Title
81338
    1CHL1    C3    1   4.201   2.517  10.285  0.7734 -0.0640 -0.1337
    1CHL1    H3    2   4.242   2.619  10.267  0.4958 -0.3494 -2.7803
    1CHL1    O3    3   4.225   2.478  10.421 -0.5385 -0.3343 -0.0550
    1CHL1   H3'    4   4.172   2.404  10.452  1.0440 -1.2362  0.5778
    1CHL1    C4    5   4.045   2.533  10.264 -0.2645 -0.7310 -0.0359
    1CHL1   H4A    6   3.990   2.446  10.305 -1.2780 -0.1286 -0.0881
    1CHL1   H4B    7   4.012   2.616  10.330 -1.2916 -0.0803 -1.3270
    1CHL1    C5    8   4.015   2.555  10.117 -0.1853  0.4845 -0.4798
    1CHL1    C6    9   3.950   2.662  10.077 -0.7565 -0.2813 -0.1001
    1CHL1    H6   10   3.926   2.731  10.160  1.0295 -0.9952  1.0642
    1CHL1    C7   11   3.913   2.692   9.931  0.2945  0.5027  0.7732
    1CHL1   H7A   12   3.805   2.717   9.931 -0.1446 -1.1915 -1.2863
    1CHL1   H7B   13   3.974   2.773   9.886 -0.6567 -0.3233 -2.2198
    1CHL1    C8   14   3.918   2.563   9.841 -0.2064 -0.4964  0.3436
    1CHL1    H8   15   3.837   2.492   9.869  0.7749 -1.3431  1.1043
    1CHL1   C14   16   3.911   2.603   9.697 -0.2218 -0.6363 -0.5993
    1CHL1   H14   17   3.997   2.671   9.678 -1.3015  0.1380 -3.1343
    1CHL1   C15   18   3.789   2.685   9.652  0.5802  0.7656 -0.4008
    1CHL1  H15A   19   3.694   2.640   9.686  0.0882  1.4905 -0.7858
    1CHL1  H15B   20   3.796   2.794   9.673  0.9112  0.5291  0.7993
    1CHL1   C16   21   3.806   2.678   9.498  0.1091 -0.2595 -0.2177
    1CHL1  H16A   22   3.711   2.637   9.457  0.3806 -1.2183  0.0832
    1CHL1  H16B   23   3.839   2.777   9.459  0.8442  0.4506  2.0301
    1CHL1   C17   24   3.915   2.571   9.467 -0.0670  0.4487  0.5794
    1CHL1   H17   25   4.008   2.630   9.448  0.5895 -0.5069  0.7406
    1CHL1   C13   26   3.921   2.492   9.599 -0.6482 -0.2066 -0.1413
    1CHL1   C18   27   3.808   2.386   9.611  0.0489 -0.3716  0.1724
    1CHL1  H18A   28   3.812   2.306   9.534 -0.7932  0.6359 -0.9504
    1CHL1  H18B   29   3.806   2.340   9.713 -1.6215  2.8046  1.7367
    1CHL1  H18C   30   3.710   2.435   9.599  0.2879  0.3598  1.0197
    1CHL1   C12   31   4.058   2.425   9.618 -0.5207  0.1392  0.1418
    1CHL1  H12A   32   4.082   2.344   9.545  0.1222 -1.8163  2.4227
    1CHL1  H12B   33   4.132   2.504   9.591 -1.8140  0.8613 -1.5237
    1CHL1   C11   34   4.080   2.382   9.766 -0.9466  0.0199 -0.0925
    1CHL1  H11A   35   4.004   2.302   9.770  0.2731 -1.1779 -0.1352
    1CHL1  H11B   36   4.177   2.332   9.785 -0.6263 -0.5243 -2.7770
    1CHL1    C9   37   4.054   2.492   9.863 -0.4544  0.5437 -0.4413
    1CHL1    H9   38   4.136   2.564   9.843  0.2961 -0.8738 -2.7111
    1CHL1   C10   39   4.083   2.452  10.015  0.4891  0.9077  0.4047
    1CHL1   C19   40   4.016   2.311  10.033 -0.4937  0.8189  0.8464
    1CHL1  H19A   41   4.075   2.234   9.980 -0.9179  0.5524  0.7528
    1CHL1  H19B   42   4.009   2.274  10.138 -0.5172 -0.9858  0.2401
    1CHL1  H19C   43   3.911   2.305   9.996 -0.4963  2.3637  0.5199
    1CHL1    C1   44   4.231   2.441  10.049 -0.0659 -0.4742 -0.2572
    1CHL1   H1A   45   4.267   2.354   9.990 -0.3420 -1.5829  1.1642
    1CHL1   H1B   46   4.282   2.534  10.015 -1.4158  0.1617 -0.6254
    1CHL1    C2   47   4.267   2.415  10.197  0.7285 -0.4605 -0.3774
    1CHL1   H2A   48   4.377   2.414  10.214  0.6191 -2.0382  0.4537
    1CHL1   H2B   49   4.229   2.319  10.238 -1.1439  0.5006  0.2618
    1CHL1   C20   50   3.878   2.496   9.332 -0.0642 -0.6717  0.4017
    1CHL1   H20   51   3.796   2.422   9.341 -0.6551 -0.3511 -1.7714
    1CHL1   C21   52   4.000   2.411   9.288  0.2832  0.4998  0.3366
    1CHL1  H21A   53   4.093   2.471   9.296 -0.7940  2.0657  1.6937
    1CHL1  H21B   54   3.967   2.379   9.186 -0.1476 -2.4377  1.3026
    1CHL1  H21C   55   4.021   2.323   9.351  1.0887 -0.3466 -1.0534
    1CHL1   C22   56   3.840   2.590   9.216  0.2744  0.3650  0.6598
    1CHL1  H22A   57   3.825   2.534   9.121  1.9207  2.7038 -1.0849
    1CHL1  H22B   58   3.743   2.640   9.239 -0.4790 -0.0948 -1.3287
    1CHL1   C23   59   3.946   2.689   9.176 -0.2535  0.4295 -0.1622
    1CHL1  H23A   60   3.974   2.742   9.270  1.1221  2.8792 -1.8473
    1CHL1  H23B   61   4.042   2.643   9.147 -0.6170  1.1625 -2.7467
    1CHL1   C24   62   3.915   2.790   9.068 -0.2627 -0.1878  0.3761
    1CHL1  H24A   63   3.910   2.730   8.974 -0.3752 -0.1790  0.3757
    1CHL1  H24B   64   3.812   2.828   9.085 -0.1520 -0.2624  1.2294
    1CHL1   C25   65   4.015   2.906   9.064 -0.4429 -0.7191  1.5532
    1CHL1   H25   66   4.118   2.867   9.047  0.3528  1.5320  0.7393
    1CHL1   C26   67   3.975   3.002   8.945  0.2296  0.0489 -0.6533
    1CHL1  H26A   68   3.869   3.032   8.962  0.5060  0.9242 -0.4191
    1CHL1  H26B   69   4.023   3.101   8.958  0.1283  0.2709 -1.8884
    1CHL1  H26C   70   3.990   2.959   8.844 -0.4741 -1.7817 -0.0327
    1CHL1   C27   71   4.018   2.986   9.193 -1.0292 -0.0413  0.8657
    1CHL1  H27A   72   3.914   3.018   9.213 -0.0152  3.4328  1.0979
    1CHL1  H27B   73   4.065   2.937   9.281 -0.8280  2.9351  2.5494
    1CHL1  H27C   74   4.069   3.080   9.163 -0.9159  0.0973  1.4811
    2CHL1    C3   75   6.153   0.610   9.896  0.2375  0.2904  0.1196
    2CHL1    H3   76   6.189   0.713   9.874 -1.5071  1.3015  1.7678
    2CHL1    O3   77   6.141   0.622  10.037  0.3224 -0.3815  0.2998
    2CHL1   H3'   78   6.117   0.536  10.070 -0.4401 -0.5206 -0.5831
    2CHL1    C4   79   6.025   0.573   9.831  0.1334  0.0648 -0.6132
    2CHL1   H4A   80   5.978   0.489   9.888 -3.2279  2.6271  0.7426
    2CHL1   H4B   81   5.952   0.645   9.876 -0.9816 -2.1432  1.4075
    2CHL1    C5   82   6.026   0.548   9.687  0.0692 -0.7938  0.3814
    2CHL1    C6   83   5.937   0.604   9.605 -0.3974 -0.2563  1.1672
    2CHL1    H6   84   5.871   0.683   9.643 -1.4856 -0.8164  0.5033
    2CHL1    C7   85   5.930   0.586   9.455  0.0268 -0.7661  0.0698
    2CHL1   H7A   86   5.827   0.571   9.416  0.7522 -1.0296 -1.8373
    2CHL1   H7B   87   5.965   0.680   9.408  1.1446 -0.8843  0.6464
    2CHL1    C8   88   6.019   0.467   9.414  0.6539 -0.1553 -0.6818
    2CHL1    H8   89   5.961   0.373   9.428 -1.4186  0.8204 -2.2311
    2CHL1   C14   90   6.054   0.477   9.262  0.2826 -0.0056  0.0311
    2CHL1   H14   91   6.119   0.567   9.251 -0.8886  0.7545 -1.0272
    2CHL1   C15   92   5.939   0.513   9.171  0.3564 -0.1263  0.0415
    2CHL1  H15A   93   5.856   0.440   9.179  3.0053 -3.5511 -1.4523
    2CHL1  H15B   94   5.900   0.618   9.168 -0.7145 -0.4460  1.3945
    2CHL1   C16   95   6.000   0.467   9.035  0.1707  0.8687 -0.1497
    2CHL1  H16A   96   5.933   0.391   8.989 -0.1246  1.9457 -1.5538
    2CHL1  H16B   97   6.013   0.544   8.956  2.4258  1.5879  0.8460
    2CHL1   C17   98   6.134   0.391   9.062 -0.3289  0.8075  0.2323
    2CHL1   H17   99   6.217   0.465   9.060 -0.6077  1.1162 -0.0840
    2CHL1   C13  100   6.127   0.355   9.209  0.5115  1.1561 -0.5453
    2CHL1   C18  101   6.036   0.227   9.226  0.2367  0.6563  0.2187
    2CHL1  H18A  102   5.937   0.227   9.176 -0.1148  1.5832  0.8796
    2CHL1  H18B  103   6.088   0.139   9.181  2.0379  1.6775  0.1880
    2CHL1  H18C  104   6.011   0.212   9.333  1.7354  0.6382  0.5859
    2CHL1   C12  105   6.264   0.357   9.277 -0.3350  0.4850  0.0417
    2CHL1  H12A  106   6.336   0.281   9.241  0.0046  0.4104  0.8748
    2CHL1  H12B  107   6.307   0.456   9.250  0.3982  0.5871  1.4869
    2CHL1   C11  108   6.244   0.349   9.427  0.6954  0.5496 -0.4305
    2CHL1  H11A  109   6.204   0.246   9.436  3.1536 -0.3375  1.0448
    2CHL1  H11B  110   6.345   0.348   9.473  0.4595 -3.3292  0.2825
    2CHL1    C9  111   6.149   0.452   9.491 -0.3022 -0.8924  0.4064
    2CHL1    H9  112   6.207   0.543   9.464  0.1707 -1.1804  0.4440
    2CHL1   C10  113   6.136   0.452   9.647 -0.0388  0.5933 -0.1366
    2CHL1   C19  114   6.091   0.309   9.689 -0.2313 -0.4516  0.0576
    2CHL1  H19A  115   6.181   0.249   9.665 -0.3552  0.3783 -2.9577
    2CHL1  H19B  116   6.069   0.302   9.797  0.1051 -0.2732  0.1367
    2CHL1  H19C  117   6.000   0.278   9.633 -0.1504 -0.1202 -0.2627
    2CHL1    C1  118   6.265   0.497   9.709 -0.7454 -0.1034  0.4152
    2CHL1   H1A  119   6.346   0.426   9.681 -0.0453  0.9220 -0.2258
    2CHL1   H1B  120   6.297   0.597   9.673 -0.3154 -0.3043  0.2258
    2CHL1    C2  121   6.257   0.498   9.864 -0.2199 -0.3922 -0.5968
    2CHL1   H2A  122   6.357   0.529   9.902  0.2906 -1.4594 -1.0133
    2CHL1   H2B  123   6.231   0.398   9.904 -1.7566  0.5774  0.9556
    2CHL1   C20  124   6.167   0.281   8.963 -0.1310  0.2757 -0.0411
    2CHL1   H20  125   6.096   0.195   8.969 -0.4147  0.4221 -1.0175
    2CHL1   C21  126   6.309   0.223   8.982 -1.0137  0.0888  0.4196
    2CHL1  H21A  127   6.332   0.148   8.903 -0.4466 -0.7212  1.3423
    2CHL1  H21B  128   6.323   0.165   9.076  0.7291 -0.3620 -0.0841
    2CHL1  H21C  129   6.379   0.309   8.981  0.6181 -1.1714  0.7372
    2CHL1   C22  130   6.147   0.321   8.813  0.0294  0.5747  0.2659
    2CHL1  H22A  131   6.040   0.346   8.794 -0.0895 -1.4449 -2.2672
    2CHL1  H22B  132   6.210   0.406   8.779  1.0212 -1.0269 -2.2069
    2CHL1   C23  133   6.180   0.205   8.713  0.1850  0.1244  0.2484
    2CHL1  H23A  134   6.289   0.193   8.697  0.1949 -0.0794  0.4591
    2CHL1  H23B  135   6.146   0.109   8.757  2.9462 -0.5242  1.1743
    2CHL1   C24  136   6.127   0.234   8.575  0.1635 -0.1317  0.1184
    2CHL1  H24A  137   6.017   0.228   8.592  0.0704  1.7167  0.3891
    2CHL1  H24B  138   6.146   0.338   8.540  1.4727 -0.8978 -1.5941
    2CHL1   C25  139   6.169   0.142   8.459  0.6648  0.1427  0.0930
    2CHL1   H25  140   6.280   0.136   8.454  0.8239  1.0443  1.7521
    2CHL1   C26  141   6.108   0.002   8.481  0.3581 -0.2756 -0.2829
    2CHL1  H26A  142   6.141  -0.062   8.566 -2.8702 -2.5345 -0.5251
    2CHL1  H26B  143   5.998   0.012   8.490  0.5134  1.4952  0.0027
    2CHL1  H26C  144   6.123  -0.061   8.390 -1.3595 -1.8919  0.4845
    2CHL1   C27  145   6.111   0.199   8.325  0.2138  0.0205 -0.6844
    2CHL1  H27A  146   6.128   0.307   8.308 -2.6410  0.5647 -0.5910
    2CHL1  H27B  147   6.167   0.150   8.242 -1.3638 -0.3594 -1.5804
    2CHL1  H27C  148   6.007   0.162   8.309  0.4974 -2.5642  2.3912
    3CHL1    C3  149   1.130   0.261  10.387  0.3969  0.7092  0.9701
    3CHL1    H3  150   1.214   0.191  10.367 -1.3960 -0.7219 -2.2972
    3CHL1    O3  151   1.103   0.258  10.527  0.2153 -0.0292  0.8251
    3CHL1   H3'  152   1.016   0.299  10.533  0.2233  0.1609 -0.1867
    3CHL1    C4  153   1.173   0.407  10.337 -0.3607  0.1402 -0.5091
    3CHL1   H4A  154   1.085   0.468  10.370  0.6791  0.5666  1.6973
    3CHL1   H4B  155   1.261   0.444  10.394 -1.6913 -0.7596  2.3103
    3CHL1    C5  156   1.201   0.396  10.190  0.0835  0.1619  0.9246
    3CHL1    C6  157   1.323   0.420  10.146 -0.3265 -0.6361 -0.3439
    3CHL1    H6  158   1.396   0.458  10.219  1.7628 -1.0781 -2.0918
    3CHL1    C7  159   1.358   0.417   9.998  0.0622 -0.1322 -0.9824
    3CHL1   H7A  160   1.426   0.503   9.977 -0.3479  0.8217  1.3566
    3CHL1   H7B  161   1.418   0.325   9.983  0.5119 -0.2686  1.3454
    3CHL1    C8  162   1.234   0.415   9.906  0.6146 -0.0456  0.7578
    3CHL1    H8  163   1.175   0.509   9.906  1.3557  0.4359  1.3187
    3CHL1   C14  164   1.281   0.394   9.762 -0.0366 -0.3369 -0.0878
    3CHL1   H14  165   1.340   0.300   9.772  1.3542  0.4925 -0.2168
    3CHL1   C15  166   1.371   0.502   9.696 -0.0307  0.5666  0.2620
    3CHL1  H15A  167   1.315   0.598   9.698  0.9432  1.1494  2.6997
    3CHL1  H15B  168   1.467   0.500   9.751 -0.0251 -1.2939  0.2383
    3CHL1   C16  169   1.385   0.451   9.556 -0.5287  0.0767  0.5021
    3CHL1  H16A  170   1.356   0.538   9.493 -0.1009  0.3213  0.6346
    3CHL1  H16B  171   1.481   0.402   9.527 -1.3492 -0.5248 -1.2897
    3CHL1   C17  172   1.261   0.346   9.539 -0.5556  0.1914 -0.1574
    3CHL1   H17  173   1.301   0.244   9.556 -3.2287 -0.6462  1.8403
    3CHL1   C13  174   1.165   0.367   9.664 -0.4302 -0.2158  0.3695
    3CHL1   C18  175   1.081   0.500   9.642 -0.3515  0.0042 -0.6631
    3CHL1  H18A  176   1.145   0.583   9.604  1.3040 -1.6869 -1.7757
    3CHL1  H18B  177   1.008   0.492   9.558 -1.4080  1.2330  0.0968
    3CHL1  H18C  178   1.023   0.533   9.731 -0.3793  1.1359 -1.0766
    3CHL1   C12  179   1.083   0.248   9.717  0.0758  0.1129  0.6503
    3CHL1  H12A  180   0.994   0.230   9.653  0.3407 -1.2617  0.6355
    3CHL1  H12B  181   1.146   0.157   9.727  2.4739  1.5759 -0.1302
    3CHL1   C11  182   1.028   0.277   9.863  0.8255 -0.2435 -0.0130
    3CHL1  H11A  183   0.961   0.365   9.849  0.3668 -0.6953 -0.7339
    3CHL1  H11B  184   0.963   0.192   9.892 -0.7894  0.9526  0.0057
    3CHL1    C9  185   1.143   0.308   9.962  0.8952  1.2923 -0.1072
    3CHL1    H9  186   1.201   0.213   9.967  1.2212  1.5326  0.7672
    3CHL1   C10  187   1.085   0.342  10.100 -0.4365  0.8262 -0.6916
    3CHL1   C19  188   0.973   0.451  10.101  0.2831 -0.3868 -0.5111
    3CHL1  H19A  189   1.008   0.540  10.045  1.3450  0.0933  0.8521
    3CHL1  H19B  190   0.890   0.404  10.044  1.1540 -2.2495 -0.3081
    3CHL1  H19C  191   0.944   0.481  10.204  2.5704  1.1267 -0.2445
    3CHL1    C1  192   1.037   0.209  10.160 -0.3098  0.7415  0.4024
    3CHL1   H1A  193   0.944   0.177  10.107  0.3361  0.6337 -0.6929
    3CHL1   H1B  194   1.116   0.134  10.140 -1.5658 -0.5764  0.1687
    3CHL1    C2  195   1.004   0.211  10.310 -0.0012 -0.8278 -1.1229
    3CHL1   H2A  196   0.980   0.111  10.350 -1.9067  0.0965  0.2147
    3CHL1   H2B  197   0.923   0.285  10.332  0.5465 -0.3061 -0.8239
    3CHL1   C20  198   1.207   0.346   9.392 -0.1935 -0.2613 -0.6441
    3CHL1   H20  199   1.173   0.450   9.371  1.0842  0.4451  0.6073
    3CHL1   C21  200   1.098   0.235   9.385 -0.3596 -0.3526  0.4930
    3CHL1  H21A  201   1.057   0.247   9.283  2.3134 -0.6186 -0.6820
    3CHL1  H21B  202   1.010   0.247   9.452  0.5719  0.4382  1.6043
    3CHL1  H21C  203   1.143   0.136   9.406 -1.5840 -0.6587  1.9287
    3CHL1   C22  204   1.322   0.306   9.288  0.6422 -0.7033  0.1579
    3CHL1  H22A  205   1.412   0.367   9.309  0.9415 -1.6734  1.8745
    3CHL1  H22B  206   1.346   0.200   9.309 -1.0082 -1.5865 -1.9572
    3CHL1   C23  207   1.291   0.337   9.135  0.0434  0.5146 -0.1372
    3CHL1  H23A  208   1.197   0.281   9.114 -0.3278  1.3828 -0.8816
    3CHL1  H23B  209   1.255   0.442   9.126 -2.4710  0.0136  2.5048
    3CHL1   C24  210   1.408   0.321   9.032 -0.1220 -0.2229  0.0372
    3CHL1  H24A  211   1.364   0.335   8.931 -2.0102 -0.9356  0.7025
    3CHL1  H24B  212   1.478   0.404   9.056 -0.7416  0.3818 -0.2269
    3CHL1   C25  213   1.489   0.190   9.022  0.3527 -0.6571  0.3739
    3CHL1   H25  214   1.434   0.113   9.079  1.8426 -0.8573  1.6172
    3CHL1   C26  215   1.534   0.154   8.878 -0.3079  0.4584 -0.2509
    3CHL1  H26A  216   1.613   0.226   8.846  0.2159  0.5853  1.2446
    3CHL1  H26B  217   1.588   0.057   8.884  1.2089  1.2714 -0.2390
    3CHL1  H26C  218   1.452   0.156   8.803  0.2458 -0.0090 -0.8764
    3CHL1   C27  219   1.620   0.191   9.107 -0.0197  0.3162 -0.2639
    3CHL1  H27A  220   1.697   0.265   9.078 -0.1146  0.8464  0.7912
    3CHL1  H27B  221   1.591   0.226   9.209  2.3396 -1.5167  1.1512
    3CHL1  H27C  222   1.676   0.096   9.124  0.7691  0.5101 -1.6609
    4CHL1    C3  223   6.690   2.676  10.530 -0.1344  0.2582  0.4105
    4CHL1    H3  224   6.591   2.629  10.551 -0.3699 -1.5207 -3.6881
    4CHL1    O3  225   6.754   2.676  10.656 -0.1573  0.0925  0.3170
    4CHL1   H3'  226   6.818   2.747  10.647 -1.2827  1.5528  2.8274
    4CHL1    C4  227   6.765   2.583  10.435 -0.8698 -0.1120  0.6628
    4CHL1   H4A  228   6.873   2.605  10.421 -0.9777  0.3608  0.5753
    4CHL1   H4B  229   6.762   2.480  10.476 -1.6271 -0.3534  0.0311
    4CHL1    C5  230   6.695   2.580  10.295 -0.0592  0.4968 -0.0875
    4CHL1    C6  231   6.649   2.456  10.256  0.4728  0.1088  0.0814
    4CHL1    H6  232   6.678   2.368  10.314  0.4433 -0.5838 -0.9369
    4CHL1    C7  233   6.579   2.448  10.127  0.0646 -0.3155  0.2054
    4CHL1   H7A  234   6.623   2.366  10.066 -0.2998 -0.7887  0.5740
    4CHL1   H7B  235   6.472   2.432  10.150 -0.4156  0.7207 -1.1748
    4CHL1    C8  236   6.588   2.570  10.030 -0.1207  0.0449 -0.4542
    4CHL1    H8  237   6.690   2.572   9.986  0.5237 -0.1775  0.9830
    4CHL1   C14  238   6.488   2.568   9.925 -0.0294  1.1959  0.4809
    4CHL1   H14  239   6.391   2.580   9.978 -0.5091 -0.3653  0.0420
    4CHL1   C15  240   6.450   2.437   9.846 -0.4242  0.1931 -0.7191
    4CHL1  H15A  241   6.529   2.361   9.828 -0.7422 -0.2246 -0.3863
    4CHL1  H15B  242   6.392   2.377   9.919  2.0158  0.8427  1.9588
    4CHL1   C16  243   6.370   2.489   9.726 -0.0029  0.0574  0.0186
    4CHL1  H16A  244   6.402   2.436   9.634  1.0400 -0.0950  0.4520
    4CHL1  H16B  245   6.262   2.464   9.735  0.2048 -1.4855 -1.3012
    4CHL1   C17  246   6.391   2.642   9.721 -0.5228 -0.5053  0.0224
    4CHL1   H17  247   6.304   2.687   9.773  1.1082  0.7341  1.8463
    4CHL1   C13  248   6.502   2.675   9.818 -0.6075 -0.0809  0.6859
    4CHL1   C18  249   6.645   2.675   9.746  0.6762 -0.2404 -0.1891
    4CHL1  H18A  250   6.721   2.672   9.828 -0.9538  0.4927  1.4310
    4CHL1  H18B  251   6.672   2.592   9.677 -0.0258 -0.2949 -0.4111
    4CHL1  H18C  252   6.657   2.767   9.686 -0.1192 -0.1534 -0.2289
    4CHL1   C12  253   6.485   2.811   9.892  0.2525 -0.4804  0.3143
    4CHL1  H12A  254   6.516   2.895   9.826  1.4775 -0.8713  0.3675
    4CHL1  H12B  255   6.378   2.824   9.921  0.5855 -0.7210  1.7152
    4CHL1   C11  256   6.583   2.823  10.006  0.5406 -0.3624  0.2869
    4CHL1  H11A  257   6.688   2.821   9.969 -0.0459  0.5284 -1.5382
    4CHL1  H11B  258   6.565   2.919  10.058 -2.8947  0.3862 -1.9380
    4CHL1    C9  259   6.572   2.702  10.102  0.6237 -0.3944  0.4090
    4CHL1    H9  260   6.468   2.710  10.142 -0.9776  1.3632 -3.5359
    4CHL1   C10  261   6.665   2.716  10.224 -0.1790  0.2179  0.4429
    4CHL1   C19  262   6.808   2.760  10.178  0.2997 -0.9836 -0.8436
    4CHL1  H19A  263   6.824   2.714  10.078 -0.6820 -0.7489 -1.1284
    4CHL1  H19B  264   6.806   2.871  10.170  0.1606 -1.0769 -2.4638
    4CHL1  H19C  265   6.885   2.734  10.253 -0.1265  0.1538  0.0329
    4CHL1    C1  266   6.611   2.819  10.325 -0.0024 -0.6687  0.0961
    4CHL1   H1A  267   6.615   2.919  10.276 -3.1579 -0.4755  0.0164
    4CHL1   H1B  268   6.505   2.796  10.349  0.0210  0.1897  1.1081
    4CHL1    C2  269   6.678   2.813  10.460 -0.1294 -0.5352 -0.4799
    4CHL1   H2A  270   6.630   2.892  10.521  0.9658  0.1850 -0.5182
    4CHL1   H2B  271   6.781   2.849  10.437 -0.5348  1.3547  0.4303
    4CHL1   C20  272   6.401   2.696   9.575 -0.5426  0.2711  0.3752
    4CHL1   H20  273   6.492   2.647   9.533  0.3485  2.1459  0.0272
    4CHL1   C21  274   6.414   2.848   9.558  0.0108 -0.3848 -0.5694
    4CHL1  H21A  275   6.421   2.886   9.454  0.1285  0.0594 -0.4042
    4CHL1  H21B  276   6.510   2.880   9.605  0.4981 -0.6246 -1.3936
    4CHL1  H21C  277   6.336   2.899   9.619  1.0377  0.4498  0.0991
    4CHL1   C22  278   6.280   2.642   9.488 -0.4766  1.0803 -0.2896
    4CHL1  H22A  279   6.271   2.531   9.491 -1.7291  1.1707 -0.2431
    4CHL1  H22B  280   6.189   2.690   9.529  0.1520  2.2831 -0.2682
    4CHL1   C23  281   6.294   2.674   9.339  0.0452 -0.6502 -0.1048
    4CHL1  H23A  282   6.260   2.780   9.332 -0.2792 -0.8089 -1.1640
    4CHL1  H23B  283   6.402   2.679   9.311  0.2968 -1.3097  0.7265
    4CHL1   C24  284   6.205   2.588   9.248  0.5659  0.6583 -0.0521
    4CHL1  H24A  285   6.261   2.492   9.239  0.5633  0.2750  2.9799
    4CHL1  H24B  286   6.110   2.557   9.296 -0.0121  1.5372 -0.5896
    4CHL1   C25  287   6.186   2.642   9.106  0.0953 -0.6787 -0.8957
    4CHL1   H25  288   6.147   2.746   9.121  4.2336  1.1200 -1.1775
    4CHL1   C26  289   6.321   2.660   9.036 -0.0220  0.0990  0.2422
    4CHL1  H26A  290   6.362   2.749   9.087 -2.1745 -0.2936  2.8966
    4CHL1  H26B  291   6.394   2.576   9.043  0.9232  0.9662  1.0847
    4CHL1  H26C  292   6.306   2.685   8.929 -1.1787  0.0657  0.3822
    4CHL1   C27  293   6.083   2.556   9.033 -0.3964  0.1715  0.3131
    4CHL1  H27A  294   6.045   2.603   8.940 -0.0277 -1.9329 -0.9718
    4CHL1  H27B  295   6.118   2.454   9.006 -0.3923  0.7933 -2.3312
    4CHL1  H27C  296   5.996   2.551   9.101 -0.1293  0.3967  0.6779
    5CHL1    C3  297   0.528   0.695  10.162 -0.4015  0.3929 -0.3056
    5CHL1    H3  298   0.567   0.601  10.119 -1.4111 -0.5319  0.7415
    5CHL1    O3  299   0.540   0.694  10.301  0.0852 -0.6255 -0.3712
    5CHL1   H3'  300   0.529   0.778  10.344  0.1821 -0.6816 -0.2330
    5CHL1    C4  301   0.583   0.821  10.098  0.5708 -0.2661  0.1051
    5CHL1   H4A  302   0.524   0.908  10.132  2.4479  1.5843 -1.1119
    5CHL1   H4B  303   0.681   0.843  10.146 -0.0134 -2.2343  2.4083
    5CHL1    C5  304   0.572   0.811   9.953  0.0941 -0.5205  0.6560
    5CHL1    C6  305   0.681   0.821   9.877 -0.3389 -0.0362  0.4961
    5CHL1    H6  306   0.776   0.835   9.930  1.3650 -4.3231 -1.0431
    5CHL1    C7  307   0.673   0.810   9.725  0.3566 -0.3390  0.0555
    5CHL1   H7A  308   0.718   0.909   9.702 -1.9587  1.6749  3.3355
    5CHL1   H7B  309   0.734   0.724   9.689 -0.7450 -0.7222 -0.9568
    5CHL1    C8  310   0.535   0.816   9.660  1.1723 -0.3700 -0.3140
    5CHL1    H8  311   0.514   0.925   9.659  1.1310 -0.3294  1.7947
    5CHL1   C14  312   0.528   0.757   9.528  0.3744 -0.0833  0.2084
    5CHL1   H14  313   0.549   0.649   9.542 -2.1720 -0.4507  1.7847
    5CHL1   C15  314   0.629   0.808   9.414  0.0134  0.4097 -0.1433
    5CHL1  H15A  315   0.619   0.919   9.418 -0.8507  0.3390  0.0048
    5CHL1  H15B  316   0.731   0.768   9.435  0.8080  2.4992  0.1851
    5CHL1   C16  317   0.563   0.771   9.284  0.1637  0.6402  0.9859
    5CHL1  H16A  318   0.558   0.862   9.221  0.4322  1.0552  1.5566
    5CHL1  H16B  319   0.614   0.691   9.225 -0.1624  1.8025 -0.9928
    5CHL1   C17  320   0.418   0.709   9.313 -0.9938 -0.1127 -0.1952
    5CHL1   H17  321   0.441   0.602   9.328  1.0120  0.4284  0.9332
    5CHL1   C13  322   0.387   0.761   9.456 -0.0959 -0.3193  0.1787
    5CHL1   C18  323   0.336   0.907   9.433 -0.0114  1.0476  0.6578
    5CHL1  H18A  324   0.350   0.964   9.527  0.6719  0.3061  1.0261
    5CHL1  H18B  325   0.394   0.966   9.359  0.1982  0.1415  0.0772
    5CHL1  H18C  326   0.228   0.907   9.408 -0.3313  2.3146  1.9150
    5CHL1   C12  327   0.282   0.681   9.537  0.6308  0.4873  0.1423
    5CHL1  H12A  328   0.180   0.693   9.495  0.7862 -1.6887 -0.9865
    5CHL1  H12B  329   0.301   0.573   9.521  0.8652  0.1895  2.2082
    5CHL1   C11  330   0.290   0.726   9.682  0.3919 -0.9328 -0.4036
    5CHL1  H11A  331   0.248   0.828   9.676  0.2365 -0.9244  0.6573
    5CHL1  H11B  332   0.220   0.670   9.748 -0.0295  2.1394  1.9988
    5CHL1    C9  333   0.437   0.739   9.744 -0.2832 -0.0202  0.4595
    5CHL1    H9  334   0.473   0.635   9.731  0.5199  0.3869 -0.8373
    5CHL1   C10  335   0.437   0.774   9.896  0.4812 -0.2783 -0.0723
    5CHL1   C19  336   0.360   0.909   9.910 -0.0644 -0.0022  0.1327
    5CHL1  H19A  337   0.353   0.943  10.015  0.3752 -0.5368  0.3370
    5CHL1  H19B  338   0.412   0.992   9.858 -1.0986  0.1804 -0.6399
    5CHL1  H19C  339   0.258   0.903   9.865  0.1522  0.7430 -0.4925
    5CHL1    C1  340   0.358   0.667   9.972  0.1351 -0.0064 -0.1187
    5CHL1   H1A  341   0.250   0.668   9.947  0.5763 -0.6439 -2.3141
    5CHL1   H1B  342   0.388   0.563   9.948 -2.8872 -0.6270 -1.7612
    5CHL1    C2  343   0.381   0.683  10.125  0.2689 -0.7031 -0.2142
    5CHL1   H2A  344   0.340   0.607  10.194  0.0574  0.5765  1.1151
    5CHL1   H2B  345   0.332   0.774  10.165  0.8347  0.0433 -1.1743
    5CHL1   C20  346   0.320   0.723   9.199  0.5310 -0.3222 -0.6258
    5CHL1   H20  347   0.283   0.828   9.200  0.9545 -0.1464 -1.9762
    5CHL1   C21  348   0.197   0.626   9.211  0.0483  0.1175  0.4632
    5CHL1  H21A  349   0.139   0.618   9.116  0.7613 -0.5460  0.0708
    5CHL1  H21B  350   0.123   0.651   9.291 -0.7059 -1.2208  0.2293
    5CHL1  H21C  351   0.224   0.522   9.240  1.4623  0.8365  1.8567
    5CHL1   C22  352   0.372   0.708   9.059  0.4880  0.2812  0.3352
    5CHL1  H22A  353   0.285   0.734   8.995  0.5786 -1.1246 -0.3976
    5CHL1  H22B  354   0.435   0.792   9.021 -1.9920  1.2804 -1.8473
    5CHL1   C23  355   0.417   0.561   9.021 -0.1199 -0.0396 -0.3320
    5CHL1  H23A  356   0.497   0.543   9.095 -0.5618  1.9472  0.6807
    5CHL1  H23B  357   0.334   0.492   9.049 -1.3535  1.7997  0.8108
    5CHL1   C24  358   0.472   0.545   8.882 -0.0960  0.0208 -0.2131
    5CHL1  H24A  359   0.390   0.577   8.814 -0.4917  1.5973  0.9371
    5CHL1  H24B  360   0.546   0.626   8.863  0.2854  0.5201  2.9534
    5CHL1   C25  361   0.535   0.410   8.845  0.7327 -0.1186  0.1712
    5CHL1   H25  362   0.616   0.385   8.916  0.0929  1.1156  1.3605
    5CHL1   C26  363   0.420   0.313   8.840  0.4256  0.0795  0.2361
    5CHL1  H26A  364   0.464   0.215   8.811  0.6034  0.6822 -1.6118
    5CHL1  H26B  365   0.370   0.310   8.940 -0.5576 -1.2337 -0.2576
    5CHL1  H26C  366   0.351   0.341   8.757  1.3515 -0.0011 -0.5720
    5CHL1   C27  367   0.607   0.415   8.711 -0.3261  0.0758 -0.3581
    5CHL1  H27A  368   0.548   0.458   8.627 -0.3261 -0.4579 -0.6339
    5CHL1  H27B  369   0.693   0.485   8.718 -0.7090  0.5404 -0.2595
    5CHL1  H27C  370   0.640   0.314   8.678  3.5242  0.5354  1.4827
    6CHL1    C3  371   4.894   3.637  10.535 -0.2400  0.7702 -0.0537
    6CHL1    H3  372   4.803   3.698  10.549 -1.1500  0.0874 -2.4287
    6CHL1    O3  373   4.986   3.627  10.648 -0.2088 -0.0113  0.0065
    6CHL1   H3'  374   4.976   3.540  10.687 -0.6833  0.4566  0.9336
    6CHL1    C4  375   4.868   3.491  10.486 -0.3788  0.1794  0.7330
    6CHL1   H4A  376   4.967   3.442  10.475 -0.2284  0.9933 -3.0406
    6CHL1   H4B  377   4.811   3.446  10.570 -0.3739  0.9387  1.1550
    6CHL1    C5  378   4.795   3.479  10.355 -0.1938 -0.1088  0.8291
    6CHL1    C6  379   4.687   3.405  10.334  0.5341 -0.0159 -0.0600
    6CHL1    H6  380   4.640   3.348  10.416  0.4930  0.0803 -0.0169
    6CHL1    C7  381   4.624   3.379  10.201 -0.0930 -0.0540 -0.0288
    6CHL1   H7A  382   4.601   3.273  10.176 -1.8305  0.5361 -1.1690
    6CHL1   H7B  383   4.531   3.440  10.188  0.8503  1.2052 -1.0683
    6CHL1    C8  384   4.713   3.416  10.079  0.3257 -0.5690  0.4426
    6CHL1    H8  385   4.773   3.324  10.061 -0.8878 -1.1759 -0.6470
    6CHL1   C14  386   4.624   3.434   9.954  0.0851 -0.6169  0.4613
    6CHL1   H14  387   4.547   3.512   9.970 -0.9233 -1.3264 -0.7540
    6CHL1   C15  388   4.537   3.312   9.903  0.1044 -0.4382  0.3377
    6CHL1  H15A  389   4.600   3.222   9.922  3.5320  1.0408 -2.6664
    6CHL1  H15B  390   4.440   3.306   9.957 -0.4383 -1.5859 -0.7171
    6CHL1   C16  391   4.520   3.350   9.750  0.3075 -0.2306  0.2198
    6CHL1  H16A  392   4.560   3.273   9.680  0.4889  1.8977 -2.1280
    6CHL1  H16B  393   4.419   3.380   9.717  0.0763 -1.7376 -0.5490
    6CHL1   C17  394   4.610   3.472   9.726  0.9854 -0.0724  0.9338
    6CHL1   H17  395   4.538   3.553   9.750 -0.0722 -1.1270  1.3578
    6CHL1   C13  396   4.710   3.486   9.831 -0.4589 -0.5981  0.4982
    6CHL1   C18  397   4.822   3.384   9.809 -0.1500  0.0386  0.1292
    6CHL1  H18A  398   4.889   3.425   9.731 -0.9524  1.0027 -0.0719
    6CHL1  H18B  399   4.887   3.374   9.899  1.5720  2.1336 -0.8068
    6CHL1  H18C  400   4.780   3.292   9.763 -1.6859  0.9646 -0.4096
    6CHL1   C12  401   4.771   3.625   9.863  1.1115 -0.3398  0.0251
    6CHL1  H12A  402   4.831   3.656   9.775  0.1097  0.4723 -0.4036
    6CHL1  H12B  403   4.694   3.705   9.868 -0.2530 -1.6594  1.1729
    6CHL1   C11  404   4.851   3.617   9.988  0.0749  0.2716  0.2057
    6CHL1  H11A  405   4.951   3.571   9.973  1.1494  2.1805  1.0287
    6CHL1  H11B  406   4.883   3.722  10.004  2.1403 -0.2229 -0.3436
    6CHL1    C9  407   4.782   3.555  10.112  0.2398  0.1407  0.1138
    6CHL1    H9  408   4.691   3.616  10.131 -2.2148 -2.6868 -1.6733
    6CHL1   C10  409   4.867   3.551  10.244  0.1919 -0.3419 -0.6824
    6CHL1   C19  410   5.000   3.484  10.209 -0.4081  0.0925 -0.0403
    6CHL1  H19A  411   5.065   3.537  10.136 -1.7285  1.4131 -0.3226
    6CHL1  H19B  412   5.076   3.470  10.289 -0.0110 -0.7933 -0.5620
    6CHL1  H19C  413   4.978   3.387  10.161 -2.7766 -0.1115  1.2992
    6CHL1    C1  414   4.884   3.699  10.295 -0.2218  0.4640 -0.3269
    6CHL1   H1A  415   4.924   3.762  10.213  2.7530 -0.7572  0.0278
    6CHL1   H1B  416   4.782   3.741  10.310 -1.7070 -2.4238 -1.5204
    6CHL1    C2  417   4.971   3.711  10.425 -0.2266 -0.4088 -0.1530
    6CHL1   H2A  418   4.978   3.816  10.459 -2.3984 -0.2716  0.0087
    6CHL1   H2B  419   5.074   3.671  10.416  0.3847  1.4065 -2.1493
    6CHL1   C20  420   4.641   3.505   9.578 -0.4473  0.0628 -0.1996
    6CHL1   H20  421   4.730   3.571   9.582  0.1101 -0.7383  2.8318
    6CHL1   C21  422   4.519   3.573   9.525 -0.1428  0.4158  0.6531
    6CHL1  H21A  423   4.437   3.498   9.528  0.4285 -0.2457  0.2013
    6CHL1  H21B  424   4.536   3.597   9.418 -0.9570 -1.4571  0.0478
    6CHL1  H21C  425   4.475   3.660   9.578 -2.5640 -0.6449  0.5422
    6CHL1   C22  426   4.686   3.380   9.492  0.3228  0.4455 -0.2868
    6CHL1  H22A  427   4.752   3.313   9.550  0.2359 -0.7760 -1.5674
    6CHL1  H22B  428   4.592   3.322   9.474 -0.2397  1.6198 -1.3135
    6CHL1   C23  429   4.750   3.406   9.361  0.4466  0.3312 -0.0268
    6CHL1  H23A  430   4.694   3.490   9.316  1.0357 -0.3201 -2.0577
    6CHL1  H23B  431   4.855   3.440   9.372  0.1329  0.8864  1.6286
    6CHL1   C24  432   4.717   3.297   9.258 -0.1450 -0.7527 -0.2969
    6CHL1  H24A  433   4.744   3.204   9.312  1.3258  0.0098  0.3246
    6CHL1  H24B  434   4.614   3.293   9.217 -1.1015 -2.5448  1.9958
    6CHL1   C25  435   4.810   3.314   9.137  0.4058 -0.4714  0.1724
    6CHL1   H25  436   4.909   3.347   9.174  0.6559 -0.8632 -0.1417
    6CHL1   C26  437   4.817   3.184   9.053 -0.3124  0.8537 -0.5140
    6CHL1  H26A  438   4.844   3.102   9.123 -0.1719  1.5578  0.2890
    6CHL1  H26B  439   4.711   3.168   9.023 -0.2458 -0.8802  0.0871
    6CHL1  H26C  440   4.884   3.181   8.966  0.1216 -1.2870 -0.1549
    6CHL1   C27  441   4.755   3.424   9.042 -0.2646  0.3328 -0.6947
    6CHL1  H27A  442   4.655   3.395   9.003  0.2130 -1.4030 -0.6910
    6CHL1  H27B  443   4.730   3.514   9.103 -2.8754 -0.4264 -0.5177
    6CHL1  H27C  444   4.817   3.447   8.953 -0.3607  2.8446 -0.2116
    7CHL1    C3  445   2.293   1.831  10.489 -0.3990 -0.3126 -0.0530
    7CHL1    H3  446   2.351   1.921  10.460 -0.4992 -0.3473 -0.3705
    7CHL1    O3  447   2.293   1.826  10.628 -0.2019 -0.3798 -0.5795
    7CHL1   H3'  448   2.220   1.771  10.657 -0.1783 -0.2274 -0.2248
    7CHL1    C4  449   2.148   1.851  10.439  0.0658 -0.3055 -0.0644
    7CHL1   H4A  450   2.092   1.761  10.471 -1.8380  0.1094 -2.0196
    7CHL1   H4B  451   2.100   1.936  10.492  0.7066  0.3968 -0.5676
    7CHL1    C5  452   2.149   1.868  10.293  0.5236 -0.3563  0.4369
    7CHL1    C6  453   2.093   1.983  10.242 -0.5006 -0.3613  0.0923
    7CHL1    H6  454   2.061   2.071  10.300 -0.4273 -0.1774 -0.1438
    7CHL1    C7  455   2.078   2.015  10.094 -0.3291  0.2526 -0.1108
    7CHL1   H7A  456   1.974   2.052  10.077 -0.5402 -0.1630  0.2438
    7CHL1   H7B  457   2.148   2.100  10.082 -0.7355  0.5853 -0.1258
    7CHL1    C8  458   2.109   1.898  10.004 -0.3552 -0.4653  0.6362
    7CHL1    H8  459   2.021   1.829  10.004 -0.0427 -0.9744 -1.6356
    7CHL1   C14  460   2.140   1.940   9.858  0.0781 -0.9825 -0.1554
    7CHL1   H14  461   2.238   1.992   9.866  1.5057 -3.4256 -0.4492
    7CHL1   C15  462   2.039   2.028   9.780  0.1883  0.1544 -0.1740
    7CHL1  H15A  463   1.936   1.987   9.777  0.2022  0.1417 -0.5354
    7CHL1  H15B  464   2.024   2.130   9.822  0.7139 -1.0502  3.3387
    7CHL1   C16  465   2.091   2.020   9.632 -0.2301  0.1851  0.3749
    7CHL1  H16A  466   2.007   1.990   9.566  1.5252 -0.0302 -1.8854
    7CHL1  H16B  467   2.139   2.113   9.595 -0.5813 -0.1098 -0.8663
    7CHL1   C17  468   2.192   1.909   9.627 -0.3730  0.2924  0.8695
    7CHL1   H17  469   2.291   1.958   9.641 -1.1847  1.9972  0.9291
    7CHL1   C13  470   2.174   1.828   9.756 -0.2254  0.3553  0.2298
    7CHL1   C18  471   2.050   1.736   9.744 -0.8096  0.3425  0.1898
    7CHL1  H18A  472   2.017   1.687   9.838 -2.6749  0.7965 -0.1876
    7CHL1  H18B  473   1.969   1.767   9.674 -0.2471  1.9039  0.1921
    7CHL1  H18C  474   2.100   1.648   9.696  2.5969  2.8661 -1.3476
    7CHL1   C12  475   2.300   1.760   9.818 -0.8331  0.1221 -0.1694
    7CHL1  H12A  476   2.325   1.665   9.766 -1.7287  0.0008 -0.3934
    7CHL1  H12B  477   2.383   1.834   9.816 -1.0394  0.4442  1.6284
    7CHL1   C11  478   2.276   1.705   9.961 -0.4331 -0.1094 -0.0982
    7CHL1  H11A  479   2.198   1.626   9.958 -0.5840 -0.0728  1.5992
    7CHL1  H11B  480   2.377   1.671   9.995 -0.8786 -1.3725  0.0363
    7CHL1    C9  481   2.227   1.814  10.058 -0.2550  0.4854 -0.2493
    7CHL1    H9  482   2.312   1.885  10.067  0.7222 -0.8059  1.1128
    7CHL1   C10  483   2.221   1.765  10.208  0.5153 -0.2182  0.3843
    7CHL1   C19  484   2.134   1.639  10.209 -0.6230  0.0971 -0.1528
    7CHL1  H19A  485   2.208   1.558  10.186  0.4476  0.7069  1.0682
    7CHL1  H19B  486   2.100   1.614  10.311 -2.6085 -0.2096 -0.8553
    7CHL1  H19C  487   2.043   1.637  10.145 -1.1181 -1.7354  0.5278
    7CHL1    C1  488   2.362   1.732  10.263  0.5944 -0.0174 -0.3014
    7CHL1   H1A  489   2.409   1.643  10.217  1.6124 -0.3590  1.3343
    7CHL1   H1B  490   2.425   1.823  10.252  0.9893 -0.3217 -0.5686
    7CHL1    C2  491   2.359   1.708  10.418  0.4343 -0.8434 -0.0749
    7CHL1   H2A  492   2.463   1.702  10.456  0.0329  0.0173  1.2491
    7CHL1   H2B  493   2.299   1.619  10.446 -2.0634  0.8363  0.2757
    7CHL1   C20  494   2.198   1.828   9.493  0.5780 -1.1554  0.4482
    7CHL1   H20  495   2.097   1.788   9.472  0.5945 -0.8240 -0.3066
    7CHL1   C21  496   2.303   1.718   9.501 -0.7099 -0.2731 -0.4002
    7CHL1  H21A  497   2.270   1.629   9.560  3.6349 -1.8103  0.0348
    7CHL1  H21B  498   2.388   1.757   9.561 -0.3286 -2.4225  0.5723
    7CHL1  H21C  499   2.336   1.668   9.408 -0.7441 -0.9839 -0.0381
    7CHL1   C22  500   2.228   1.914   9.367  0.1471  0.6242 -0.9913
    7CHL1  H22A  501   2.143   1.985   9.351 -0.0367  0.9000  0.9261
    7CHL1  H22B  502   2.332   1.951   9.372  1.2790 -2.1822 -1.8578
    7CHL1   C23  503   2.232   1.824   9.237  0.5059 -0.1908 -0.6583
    7CHL1  H23A  504   2.331   1.774   9.243  0.2683 -0.4811  1.9864
    7CHL1  H23B  505   2.144   1.756   9.236  1.0670 -0.9251 -1.7035
    7CHL1   C24  506   2.222   1.905   9.103 -0.4936  0.3711 -0.1185
    7CHL1  H24A  507   2.134   1.972   9.115 -2.1156 -1.7828  0.5631
    7CHL1  H24B  508   2.310   1.973   9.106 -1.0443  1.1046 -0.3385
    7CHL1   C25  509   2.214   1.815   8.980  0.4880  0.1187 -0.4940
    7CHL1   H25  510   2.113   1.769   8.985  0.2922  0.3518 -1.7649
    7CHL1   C26  511   2.214   1.912   8.862 -0.5292 -0.5725 -0.7642
    7CHL1  H26A  512   2.310   1.967   8.869 -0.0719 -1.5440  2.3897
    7CHL1  H26B  513   2.199   1.856   8.767  1.7070 -2.1938 -0.2494
    7CHL1  H26C  514   2.136   1.988   8.886 -0.7554 -1.2622  0.7851
    7CHL1   C27  515   2.330   1.722   8.960 -0.1815  0.0275 -0.2807
    7CHL1  H27A  516   2.317   1.636   9.029 -2.1419 -1.1378 -1.9625
    7CHL1  H27B  517   2.366   1.702   8.856 -0.5529  2.1375 -0.8495
    7CHL1  H27C  518   2.421   1.760   9.010  0.4697 -1.3652 -0.3566
    8CHL1    C3  519   3.305   1.664  10.571  0.3188 -0.1173 -0.3184
    8CHL1    H3  520   3.232   1.580  10.575  0.4418 -0.2224 -0.2820
    8CHL1    O3  521   3.333   1.721  10.693  0.2744  0.5568  0.9124
    8CHL1   H3'  522   3.394   1.659  10.734  1.5209  0.0083 -1.5992
    8CHL1    C4  523   3.432   1.614  10.501 -0.2220  0.3425 -0.1641
    8CHL1   H4A  524   3.517   1.686  10.506  3.0168 -3.0060 -1.9598
    8CHL1   H4B  525   3.466   1.529  10.564  2.0887  2.4734  1.6555
    8CHL1    C5  526   3.409   1.569  10.361  0.0858  0.5320  0.2981
    8CHL1    C6  527   3.432   1.444  10.315  0.7072  0.0165 -0.0339
    8CHL1    H6  528   3.475   1.361  10.373 -0.2881 -0.2469  0.3477
    8CHL1    C7  529   3.413   1.404  10.173 -0.1041 -0.3157 -0.2602
    8CHL1   H7A  530   3.502   1.347  10.139  0.0562  0.2804 -0.8709
    8CHL1   H7B  531   3.327   1.335  10.155  0.4556 -0.9528 -0.5321
    8CHL1    C8  532   3.413   1.520  10.074  0.7398 -0.2521 -0.1339
    8CHL1    H8  533   3.513   1.571  10.073 -0.3603  2.1640  1.4594
    8CHL1   C14  534   3.368   1.474   9.933 -0.1230 -0.9681  0.3024
    8CHL1   H14  535   3.269   1.426   9.950 -0.7480  0.8828  2.3457
    8CHL1   C15  536   3.460   1.374   9.855 -0.1185 -0.1612 -0.5447
    8CHL1  H15A  537   3.565   1.408   9.870 -0.1908  1.0745 -2.5196
    8CHL1  H15B  538   3.455   1.271   9.897 -2.9997  0.3228  0.5628
    8CHL1   C16  539   3.412   1.389   9.710 -0.5524  0.4907  0.0367
    8CHL1  H16A  540   3.496   1.408   9.639 -1.1785 -0.4796 -0.9847
    8CHL1  H16B  541   3.362   1.296   9.677  2.4631 -1.0964 -0.4321
    8CHL1   C17  542   3.317   1.514   9.704  0.5757 -0.0946  0.3537
    8CHL1   H17  543   3.219   1.465   9.719  2.3607 -5.0953 -1.9906
    8CHL1   C13  544   3.349   1.586   9.840  0.1940 -0.6736 -0.1130
    8CHL1   C18  545   3.484   1.665   9.818  0.2072  0.0914  0.0649
    8CHL1  H18A  546   3.514   1.715   9.912 -0.9168  1.9989 -0.5447
    8CHL1  H18B  547   3.569   1.602   9.783 -1.1030 -1.3642 -0.6090
    8CHL1  H18C  548   3.461   1.749   9.750  0.2400  0.1741  0.1565
    8CHL1   C12  549   3.233   1.682   9.896 -0.6974 -0.0950  1.1489
    8CHL1  H12A  550   3.202   1.766   9.829 -0.0723 -1.1059 -0.4612
    8CHL1  H12B  551   3.143   1.618   9.910 -0.3392 -1.2773 -1.3898
    8CHL1   C11  552   3.271   1.739  10.032 -0.1159  0.2537  0.5897
    8CHL1  H11A  553   3.341   1.820  10.003  1.8909 -2.1697 -1.9295
    8CHL1  H11B  554   3.175   1.782  10.068 -1.7058 -1.1317 -1.6655
    8CHL1    C9  555   3.316   1.632  10.127 -0.3568  0.2908  0.5717
    8CHL1    H9  556   3.225   1.573  10.149 -1.3193  0.9189 -1.4670
    8CHL1   C10  557   3.357   1.682  10.266 -0.2726 -0.1939 -0.3310
    8CHL1   C19  558   3.462   1.795  10.246  0.7560 -0.1529 -0.9279
    8CHL1  H19A  559   3.545   1.757  10.182 -0.9464 -1.3395 -2.5496
    8CHL1  H19B  560   3.430   1.886  10.191 -1.1314  0.5761  1.2414
    8CHL1  H19C  561   3.490   1.827  10.348 -0.8107 -0.1256 -0.4924
    8CHL1    C1  562   3.225   1.735  10.338  0.0454  0.0536 -0.0999
    8CHL1   H1A  563   3.176   1.811  10.273  0.9754  0.1114 -0.7612
    8CHL1   H1B  564   3.155   1.648  10.341 -0.2723  0.3259  0.7619
    8CHL1    C2  565   3.247   1.774  10.485  0.0892 -0.0803  0.8002
    8CHL1   H2A  566   3.148   1.808  10.523 -0.2409  1.7635 -1.4980
    8CHL1   H2B  567   3.320   1.857  10.490 -0.9013  0.8519  0.3450
    8CHL1   C20  568   3.330   1.594   9.569  0.2591 -0.4888  0.3583
    8CHL1   H20  569   3.434   1.632   9.559 -0.3852  1.4208  0.5639
    8CHL1   C21  570   3.226   1.712   9.576  0.4337  0.0800  0.2629
    8CHL1  H21A  571   3.267   1.798   9.634 -0.7787 -1.1449  3.1319
    8CHL1  H21B  572   3.132   1.670   9.616  0.7237 -0.8164  0.0422
    8CHL1  H21C  573   3.203   1.739   9.471 -1.3054 -0.1970  0.5490
    8CHL1   C22  574   3.312   1.516   9.434  0.4231  0.3783  0.6044
    8CHL1  H22A  575   3.378   1.428   9.441 -0.4108 -0.1894  1.6566
    8CHL1  H22B  576   3.206   1.485   9.419  0.0575  2.2224 -1.0832
    8CHL1   C23  577   3.351   1.596   9.303 -0.5010  0.2522  0.2421
    8CHL1  H23A  578   3.291   1.689   9.299  0.5125  0.8964 -0.3628
    8CHL1  H23B  579   3.459   1.624   9.303  0.2337 -2.2894  0.2305
    8CHL1   C24  580   3.316   1.506   9.186 -0.4939  0.1056  0.5648
    8CHL1  H24A  581   3.398   1.431   9.194 -0.1797  0.4250  0.3703
    8CHL1  H24B  582   3.210   1.473   9.196 -0.8681 -0.1846 -2.9660
    8CHL1   C25  583   3.316   1.572   9.048 -0.6882  0.1732  0.3573
    8CHL1   H25  584   3.238   1.649   9.030 -1.0051 -0.2797 -0.2568
    8CHL1   C26  585   3.456   1.622   9.016  0.4448  0.1011 -0.7778
    8CHL1  H26A  586   3.486   1.715   9.067 -0.1550 -0.2355  0.2110
    8CHL1  H26B  587   3.529   1.547   9.052 -0.2796  0.7587  2.3901
    8CHL1  H26C  588   3.473   1.620   8.906 -0.1247 -0.0027 -0.8727
    8CHL1   C27  589   3.291   1.459   8.945  0.6341  0.5510 -0.3008
    8CHL1  H27A  590   3.352   1.369   8.967 -0.9517 -0.1769  1.3232
    8CHL1  H27B  591   3.181   1.444   8.945  0.8487 -1.1686  0.3070
    8CHL1  H27C  592   3.306   1.502   8.843  0.5786 -3.0697 -1.9987
    9CHL1    C3  593   4.999   5.689  10.296  0.9101  0.0783  0.3184
    9CHL1    H3  594   5.098   5.736  10.280 -0.3653  2.2550 -1.7543
    9CHL1    O3  595   4.966   5.699  10.440 -0.3206  0.1860 -0.1564
    9CHL1   H3'  596   4.871   5.692  10.437 -0.3324  0.5163 -0.6987
    9CHL1    C4  597   4.897   5.764  10.209  0.0845  0.1446  0.4477
    9CHL1   H4A  598   4.805   5.711  10.242  0.2867  0.7030  2.0012
    9CHL1   H4B  599   4.884   5.865  10.254 -3.1652 -0.9557  2.3010
    9CHL1    C5  600   4.920   5.757  10.059 -0.2531  0.2244 -0.2765
    9CHL1    C6  601   4.919   5.858   9.979  0.0158 -0.9910  0.5435
    9CHL1    H6  602   4.911   5.962  10.015  1.0044  0.1754 -2.3587
    9CHL1    C7  603   4.926   5.854   9.828  0.6327  0.7636 -0.8356
    9CHL1   H7A  604   4.853   5.924   9.781  0.6037  0.9022 -0.5843
    9CHL1   H7B  605   5.031   5.872   9.797  0.9738 -1.8422 -1.4255
    9CHL1    C8  606   4.899   5.704   9.772  0.2568 -0.3283 -0.5368
    9CHL1    H8  607   4.788   5.699   9.786  0.2232 -0.0361 -0.6914
    9CHL1   C14  608   4.941   5.699   9.626 -0.3457  0.2068 -0.1621
    9CHL1   H14  609   5.049   5.724   9.626  0.2885 -2.2889  0.8933
    9CHL1   C15  610   4.874   5.795   9.524  0.3816  0.1408 -0.4148
    9CHL1  H15A  611   4.764   5.806   9.540  0.1850 -0.6413 -1.1495
    9CHL1  H15B  612   4.907   5.900   9.538  1.4029 -0.3777  1.4579
    9CHL1   C16  613   4.909   5.729   9.390 -0.2294  0.3448  0.1025
    9CHL1  H16A  614   4.811   5.727   9.337  0.5723 -2.2024 -1.4810
    9CHL1  H16B  615   4.989   5.784   9.337  0.9111 -1.3087  0.0061
    9CHL1   C17  616   4.957   5.581   9.415 -0.3246 -0.8053 -0.8881
    9CHL1   H17  617   5.068   5.592   9.409 -0.2873 -0.3909  0.3031
    9CHL1   C13  618   4.926   5.554   9.560  0.5959  0.0062  0.5900
    9CHL1   C18  619   4.775   5.526   9.569 -1.0261 -0.2233 -0.3006
    9CHL1  H18A  620   4.738   5.531   9.674  3.0247 -1.3971  1.3731
    9CHL1  H18B  621   4.715   5.599   9.511 -1.1472  0.4459  0.6509
    9CHL1  H18C  622   4.743   5.428   9.527  2.3354 -1.7459  0.3453
    9CHL1   C12  623   5.011   5.456   9.646 -0.3576 -0.2175  0.1747
    9CHL1  H12A  624   5.001   5.353   9.604 -0.6851  0.1127 -0.5791
    9CHL1  H12B  625   5.118   5.485   9.637  0.3307 -1.3400  3.2664
    9CHL1   C11  626   4.977   5.454   9.800 -0.1101  0.2010  0.6980
    9CHL1  H11A  627   4.877   5.405   9.806  0.8346 -1.7685  1.2612
    9CHL1  H11B  628   5.054   5.388   9.845 -1.1601 -0.6330  1.3382
    9CHL1    C9  629   4.972   5.597   9.861  0.8631  0.3924  0.5151
    9CHL1    H9  630   5.076   5.635   9.859  1.3106 -0.4738  2.9180
    9CHL1   C10  631   4.925   5.610  10.009  0.8528  0.3197 -0.2803
    9CHL1   C19  632   4.788   5.538  10.032 -0.5469 -0.3559  0.5015
    9CHL1  H19A  633   4.710   5.593   9.974  1.5508  0.8527 -1.3263
    9CHL1  H19B  634   4.786   5.433   9.996 -1.2750 -0.5010  0.9319
    9CHL1  H19C  635   4.760   5.536  10.140  0.5738 -1.0311  0.7943
    9CHL1    C1  636   5.033   5.541  10.103  0.7456 -0.0527 -0.3724
    9CHL1   H1A  637   5.057   5.439  10.065 -1.1353 -0.7795  0.3046
    9CHL1   H1B  638   5.123   5.598  10.072 -0.5159  1.7151 -0.9361
    9CHL1    C2  639   5.005   5.542  10.254 -0.3801 -0.2200  0.0360
    9CHL1   H2A  640   5.091   5.492  10.305 -0.7579 -0.0750  0.8368
    9CHL1   H2B  641   4.914   5.481  10.273 -0.1912 -0.5528 -0.1208
    9CHL1   C20  642   4.909   5.480   9.311 -0.8571  0.2710 -0.0646
    9CHL1   H20  643   4.799   5.474   9.306 -0.7774 -1.5124 -0.3136
    9CHL1   C21  644   4.966   5.339   9.336 -0.7858  0.1149  0.7496
    9CHL1  H21A  645   4.930   5.286   9.426 -1.6129 -0.4142  0.1229
    9CHL1  H21B  646   5.077   5.344   9.342 -0.7606  0.3840  0.1607
    9CHL1  H21C  647   4.939   5.276   9.248  2.0003 -2.1662  1.3533
    9CHL1   C22  648   4.962   5.531   9.169 -0.3120  0.3017  0.6160
    9CHL1  H22A  649   4.924   5.631   9.140 -1.8223 -0.3026  0.4411
    9CHL1  H22B  650   5.071   5.550   9.161 -0.1804  0.1448  1.8503
    9CHL1   C23  651   4.921   5.446   9.046 -0.1271 -0.4232  1.0200
    9CHL1  H23A  652   4.957   5.341   9.049 -1.0455 -0.9286 -1.9608
    9CHL1  H23B  653   4.812   5.431   9.065 -0.1612 -0.1003  1.0710
    9CHL1   C24  654   4.949   5.514   8.910 -0.0563 -0.4162 -0.8623
    9CHL1  H24A  655   4.902   5.614   8.919 -0.0326 -0.5750  2.0231
    9CHL1  H24B  656   5.060   5.522   8.910 -0.1339  1.6623 -3.1214
    9CHL1   C25  657   4.898   5.451   8.781 -0.1712 -0.0874  0.0166
    9CHL1   H25  658   4.923   5.343   8.781  0.4134  0.0284 -1.4797
    9CHL1   C26  659   4.738   5.440   8.786  0.1756 -0.1764  0.8181
    9CHL1  H26A  660   4.699   5.541   8.764  0.0802 -0.4640 -0.4155
    9CHL1  H26B  661   4.716   5.362   8.710  3.4970 -0.2692 -0.2301
    9CHL1  H26C  662   4.697   5.404   8.883  0.5382 -1.8332  0.4034
    9CHL1   C27  663   4.949   5.524   8.653  0.7098  0.5800 -0.2196
    9CHL1  H27A  664   4.913   5.629   8.656 -0.9952  0.0420 -0.9385
    9CHL1  H27B  665   5.060   5.520   8.656  0.7365  1.4679  0.6064
    9CHL1  H27C  666   4.918   5.463   8.566 -1.2230  0.1412  0.7345
   10CHL1    C3  667   3.664   4.120  10.096  0.1764 -0.2582  0.0234
   10CHL1    H3  668   3.711   4.020  10.110  0.6811  0.2587  2.4812
   10CHL1    O3  669   3.641   4.171  10.223 -0.2898 -0.4197 -0.5441
   10CHL1   H3'  670   3.548   4.193  10.236 -0.4255 -1.5104  0.5821
   10CHL1    C4  671   3.759   4.208  10.016 -0.0855 -1.1484  0.0827
   10CHL1   H4A  672   3.738   4.316  10.029  0.0551 -1.1363  0.2185
   10CHL1   H4B  673   3.861   4.185  10.056  0.7992 -1.0736 -1.9803
   10CHL1    C5  674   3.764   4.182   9.872  0.0493 -0.0781 -0.1579
   10CHL1    C6  675   3.884   4.165   9.815 -0.2000  0.1329 -0.8565
   10CHL1    H6  676   3.974   4.179   9.876  0.6779 -0.1521 -2.0574
   10CHL1    C7  677   3.899   4.154   9.664  0.9241  0.0005  0.5082
   10CHL1   H7A  678   3.988   4.207   9.624  1.4241 -0.2485  1.2725
   10CHL1   H7B  679   3.915   4.047   9.639  0.8788  0.6089 -2.4764
   10CHL1    C8  680   3.763   4.172   9.581 -0.5872  0.4312 -0.5085
   10CHL1    H8  681   3.746   4.282   9.580  0.4693  0.7412  2.8141
   10CHL1   C14  682   3.782   4.120   9.441 -0.2573  0.5170 -0.2500
   10CHL1   H14  683   3.801   4.011   9.455  0.2942  0.2700 -2.4905
   10CHL1   C15  684   3.907   4.155   9.356 -0.0573  0.3436 -0.3072
   10CHL1  H15A  685   3.925   4.265   9.347  1.4165  0.2000  0.4957
   10CHL1  H15B  686   3.991   4.116   9.417 -1.1174 -0.5780  0.6139
   10CHL1   C16  687   3.869   4.089   9.220  0.6094 -0.9589 -0.0563
   10CHL1  H16A  688   3.888   4.171   9.147 -1.1322 -0.4242  0.0545
   10CHL1  H16B  689   3.945   4.010   9.201  1.1990 -0.3561 -0.2485
   10CHL1   C17  690   3.723   4.049   9.231 -0.3322  0.1259  0.8834
   10CHL1   H17  691   3.715   3.941   9.257  0.0939 -0.3487 -0.8457
   10CHL1   C13  692   3.658   4.117   9.347  0.4333 -0.9356  0.0036
   10CHL1   C18  693   3.621   4.264   9.317 -0.3627 -0.8137 -0.3942
   10CHL1  H18A  694   3.596   4.304   9.418 -1.2895  0.9598 -1.2765
   10CHL1  H18B  695   3.691   4.326   9.258 -2.8035  1.7247 -0.8662
   10CHL1  H18C  696   3.526   4.277   9.261 -0.1075  3.0885 -0.2043
   10CHL1   C12  697   3.547   4.044   9.420 -0.0677 -0.1565 -0.1658
   10CHL1  H12A  698   3.453   4.051   9.362  0.8482 -1.4197 -1.8872
   10CHL1  H12B  699   3.572   3.936   9.420  2.2944  0.3312 -0.4793
   10CHL1   C11  700   3.522   4.083   9.563  0.1863  0.3868  0.6371
   10CHL1  H11A  701   3.474   4.183   9.560  0.5177  0.5902  1.8085
   10CHL1  H11B  702   3.441   4.022   9.609  1.4612 -1.6744  0.3151
   10CHL1    C9  703   3.650   4.098   9.656 -0.5030  0.0412  1.3944
   10CHL1    H9  704   3.685   3.994   9.673 -0.9206 -0.5915 -1.1817
   10CHL1   C10  705   3.630   4.167   9.794 -0.9500  0.1204 -0.8809
   10CHL1   C19  706   3.563   4.306   9.794  0.5674 -0.6778  1.0170
   10CHL1  H19A  707   3.461   4.297   9.752  0.9659  0.7100 -0.3341
   10CHL1  H19B  708   3.557   4.362   9.889  0.2001  0.0585  0.5639
   10CHL1  H19C  709   3.621   4.376   9.730  0.0125 -0.8773  0.2819
   10CHL1    C1  710   3.548   4.055   9.878  0.1288 -0.2400 -0.1281
   10CHL1   H1A  711   3.449   4.035   9.832 -0.3724  0.1757  0.7456
   10CHL1   H1B  712   3.604   3.959   9.871  1.3020  0.4489 -0.4809
   10CHL1    C2  713   3.533   4.096  10.027  0.0317  0.4358  0.2100
   10CHL1   H2A  714   3.477   4.021  10.088 -0.2121  1.6705  1.5677
   10CHL1   H2B  715   3.479   4.193  10.029  1.1941  1.0948  1.3707
   10CHL1   C20  716   3.658   4.046   9.094 -0.8601  0.2063 -0.3060
   10CHL1   H20  717   3.665   4.152   9.061 -1.5663  0.4005  0.1319
   10CHL1   C21  718   3.509   4.010   9.103 -0.3153 -0.2925 -0.0816
   10CHL1  H21A  719   3.465   4.019   9.001 -0.6303  0.5937  0.1264
   10CHL1  H21B  720   3.461   4.089   9.165 -1.0657 -1.3314  0.7032
   10CHL1  H21C  721   3.488   3.913   9.153 -0.2980  0.5375  1.6284
   10CHL1   C22  722   3.738   3.960   8.998 -0.0283  0.4160  0.4321
   10CHL1  H22A  723   3.846   3.987   8.998  0.2058 -0.4650 -0.2353
   10CHL1  H22B  724   3.742   3.853   9.028  1.5758  0.5637  0.8718
   10CHL1   C23  725   3.696   3.968   8.850  0.2337  0.2468  0.2044
   10CHL1  H23A  726   3.598   3.915   8.851 -0.5123  1.5662 -0.4538
   10CHL1  H23B  727   3.680   4.076   8.827  0.5290  0.2675  0.0878
   10CHL1   C24  728   3.790   3.903   8.748 -0.5013  0.4449 -0.0337
   10CHL1  H24A  729   3.891   3.946   8.764 -0.9797  1.3629  0.6185
   10CHL1  H24B  730   3.789   3.792   8.760  0.7939  0.0919 -2.5707
   10CHL1   C25  731   3.771   3.938   8.591 -0.2050 -0.2662  0.3155
   10CHL1   H25  732   3.782   4.047   8.575  0.3244 -0.5507 -1.5114
   10CHL1   C26  733   3.868   3.862   8.495  0.1895  0.3276 -0.5116
   10CHL1  H26A  734   3.960   3.925   8.490 -0.3640  1.2444  0.4652
   10CHL1  H26B  735   3.893   3.759   8.527 -0.3781 -0.1266 -1.5181
   10CHL1  H26C  736   3.816   3.845   8.399 -0.6287  0.6408 -0.1348
   10CHL1   C27  737   3.626   3.910   8.546  1.1486 -0.5735 -0.1435
   10CHL1  H27A  738   3.560   3.979   8.602  2.2289  1.5919 -1.4279
   10CHL1  H27B  739   3.613   3.950   8.443 -0.8440  1.4046  0.7977
   10CHL1  H27C  740   3.587   3.806   8.553 -1.3979  0.2012 -1.5676
   11CHL1    C3  741   6.397   6.727  10.009  0.3311 -0.5311  0.0844
   11CHL1    H3  742   6.377   6.618   9.996 -3.0367  0.2635 -2.7881
   11CHL1    O3  743   6.375   6.756  10.146  0.1558  0.2903  0.0304
   11CHL1   H3'  744   6.453   6.725  10.192  0.0409  2.0351  1.4825
   11CHL1    C4  745   6.541   6.761   9.961 -0.2981  0.0710 -0.5456
   11CHL1   H4A  746   6.556   6.869   9.981 -3.1599 -0.1096  4.0211
   11CHL1   H4B  747   6.616   6.709  10.024 -1.4741  1.4299  2.1421
   11CHL1    C5  748   6.565   6.712   9.822  0.7297  0.0721  0.1202
   11CHL1    C6  749   6.668   6.633   9.786  0.5951 -0.2116  0.7078
   11CHL1    H6  750   6.750   6.604   9.853  0.6236 -1.1443  0.2781
   11CHL1    C7  751   6.692   6.588   9.642  0.3680 -0.8960 -0.0557
   11CHL1   H7A  752   6.795   6.623   9.620 -0.6006  2.7458  0.4413
   11CHL1   H7B  753   6.696   6.478   9.631  1.2040 -0.7817 -1.0259
   11CHL1    C8  754   6.596   6.658   9.537 -0.4607 -0.8367 -0.9258
   11CHL1    H8  755   6.634   6.761   9.521  0.4041 -0.9774  0.1028
   11CHL1   C14  756   6.592   6.581   9.407  0.1714  0.4470  0.1422
   11CHL1   H14  757   6.555   6.480   9.435  2.7676 -0.4435  0.6301
   11CHL1   C15  758   6.720   6.546   9.339 -0.0210  0.9021 -0.6257
   11CHL1  H15A  759   6.781   6.639   9.336  1.4397 -0.0214 -0.3238
   11CHL1  H15B  760   6.779   6.477   9.403 -2.5005 -0.1739  0.6354
   11CHL1   C16  761   6.688   6.492   9.193 -0.4712 -0.5180 -0.5886
   11CHL1  H16A  762   6.748   6.554   9.122  2.0840  1.5969  3.0617
   11CHL1  H16B  763   6.705   6.384   9.175  0.2187 -0.4877 -0.1611
   11CHL1   C17  764   6.538   6.525   9.176 -0.3667  0.8786 -0.7538
   11CHL1   H17  765   6.487   6.434   9.213 -0.7184  1.9866  1.7233
   11CHL1   C13  766   6.505   6.633   9.291  0.3804  0.2307  0.7114
   11CHL1   C18  767   6.556   6.773   9.240  0.7803  1.0454  0.8819
   11CHL1  H18A  768   6.641   6.756   9.171  0.5114  0.3074  0.7266
   11CHL1  H18B  769   6.481   6.836   9.188  1.2524 -1.1026 -2.7570
   11CHL1  H18C  770   6.594   6.826   9.330 -0.5369  0.2144  1.9754
   11CHL1   C12  771   6.362   6.646   9.341 -0.4707 -0.2386  0.2362
   11CHL1  H12A  772   6.293   6.704   9.276 -2.5797 -2.5944  0.2282
   11CHL1  H12B  773   6.321   6.546   9.367  1.3102 -1.2674 -0.7247
   11CHL1   C11  774   6.361   6.722   9.475  0.2382  0.5409 -0.1121
   11CHL1  H11A  775   6.384   6.829   9.454  0.3529  0.9923  2.0928
   11CHL1  H11B  776   6.256   6.715   9.510  0.0311  1.0995 -0.6130
   11CHL1    C9  777   6.457   6.668   9.587  0.0251  0.4670 -0.4382
   11CHL1    H9  778   6.428   6.562   9.602  0.7210 -0.1560 -3.0336
   11CHL1   C10  779   6.450   6.747   9.719 -0.4771  0.2296 -0.3528
   11CHL1   C19  780   6.474   6.896   9.694 -0.1224 -0.4584  0.4595
   11CHL1  H19A  781   6.391   6.936   9.632 -0.1788 -1.0458  0.1523
   11CHL1  H19B  782   6.471   6.962   9.784  1.9405 -0.5910  0.6758
   11CHL1  H19C  783   6.569   6.921   9.641 -1.6948  3.5753 -0.8168
   11CHL1    C1  784   6.302   6.739   9.779 -0.3443  0.0544  0.4153
   11CHL1   H1A  785   6.228   6.795   9.719  0.0316  1.9429  1.6383
   11CHL1   H1B  786   6.280   6.630   9.779 -3.6562  0.5702  2.6497
   11CHL1    C2  787   6.288   6.786   9.926 -0.7023  0.8002  0.1102
   11CHL1   H2A  788   6.198   6.735   9.966  0.1732 -2.3307 -1.5469
   11CHL1   H2B  789   6.283   6.896   9.942 -4.1324  0.6422  0.7193
   11CHL1   C20  790   6.501   6.557   9.031  0.0080 -0.0504 -0.1847
   11CHL1   H20  791   6.553   6.654   9.013 -1.3349  1.3325  2.7594
   11CHL1   C21  792   6.351   6.576   9.029  0.1974 -0.4686 -0.2156
   11CHL1  H21A  793   6.338   6.678   9.071  1.7936  0.8148 -2.5497
   11CHL1  H21B  794   6.304   6.501   9.095 -1.3279 -0.5149 -1.3129
   11CHL1  H21C  795   6.303   6.576   8.929 -0.0472 -0.0892 -0.1005
   11CHL1   C22  796   6.548   6.452   8.925 -0.6098 -0.3694 -0.5374
   11CHL1  H22A  797   6.656   6.435   8.944 -0.0889  1.5590 -1.4700
   11CHL1  H22B  798   6.502   6.352   8.937 -0.2131 -0.6513 -1.2749
   11CHL1   C23  799   6.544   6.497   8.777  0.3082  0.2737  0.3799
   11CHL1  H23A  800   6.561   6.411   8.709  0.8483  1.2452 -0.7493
   11CHL1  H23B  801   6.436   6.518   8.758  1.1347  3.6196 -1.3975
   11CHL1   C24  802   6.626   6.620   8.735  0.3111 -0.3748  0.1904
   11CHL1  H24A  803   6.619   6.690   8.820  0.6806  1.4266 -1.1951
   11CHL1  H24B  804   6.731   6.583   8.733  1.5147  2.7036 -2.2418
   11CHL1   C25  805   6.581   6.682   8.604 -0.3684  0.4548  0.0466
   11CHL1   H25  806   6.539   6.600   8.542  1.7750  0.9166 -2.1390
   11CHL1   C26  807   6.481   6.794   8.614 -0.0689  0.4894 -0.3941
   11CHL1  H26A  808   6.535   6.877   8.664  1.6312 -1.2686  0.8286
   11CHL1  H26B  809   6.442   6.821   8.514 -0.2775 -1.8143 -1.0033
   11CHL1  H26C  810   6.403   6.768   8.689 -1.2745  0.6777 -1.5497
   11CHL1   C27  811   6.708   6.721   8.515  0.2217 -0.4407 -0.0383
   11CHL1  H27A  812   6.757   6.807   8.565 -3.6752  0.1858  3.2600
   11CHL1  H27B  813   6.776   6.635   8.498 -0.0261 -0.1864 -2.8874
   11CHL1  H27C  814   6.673   6.764   8.418 -0.0263 -2.3476 -0.8417
   12CHL1    C3  815   2.225   3.751  10.393 -0.3200  0.4659  0.3734
   12CHL1    H3  816   2.332   3.780  10.400 -0.3133  0.5406 -0.0431
   12CHL1    O3  817   2.172   3.735  10.524 -0.2075 -0.6351  0.0847
   12CHL1   H3'  818   2.081   3.714  10.501  1.2160 -5.0568 -2.6321
   12CHL1    C4  819   2.146   3.857  10.322 -0.1563  0.2655 -0.2654
   12CHL1   H4A  820   2.037   3.842  10.328 -0.3280  0.5439 -2.0925
   12CHL1   H4B  821   2.169   3.942  10.389  0.9044 -1.8647  2.2494
   12CHL1    C5  822   2.183   3.874  10.174 -0.5455 -0.1164 -0.2612
   12CHL1    C6  823   2.213   3.997  10.131 -0.3945  0.5904  0.5596
   12CHL1    H6  824   2.198   4.086  10.193  2.4558  0.6428  1.3225
   12CHL1    C7  825   2.241   4.012   9.982  0.2733  0.3905  0.3887
   12CHL1   H7A  826   2.192   4.107   9.951  2.3297  2.3412  2.6941
   12CHL1   H7B  827   2.349   4.037   9.974  0.1899  2.3694  3.6826
   12CHL1    C8  828   2.212   3.893   9.887 -0.4922 -0.1410  0.0717
   12CHL1    H8  829   2.102   3.893   9.870 -0.1310  1.3624 -3.0449
   12CHL1   C14  830   2.283   3.908   9.755  0.0653  0.2101  0.1278
   12CHL1   H14  831   2.391   3.889   9.770 -0.0310 -1.1820 -0.8381
   12CHL1   C15  832   2.279   4.054   9.687  0.0334 -0.2181 -0.0030
   12CHL1  H15A  833   2.177   4.098   9.696  0.3327  1.0258 -2.0554
   12CHL1  H15B  834   2.345   4.129   9.735 -0.7978  1.2217 -1.0115
   12CHL1   C16  835   2.318   4.015   9.542 -0.2167  0.0869 -0.3116
   12CHL1  H16A  836   2.239   4.048   9.471 -2.4352 -2.3013  0.8665
   12CHL1  H16B  837   2.410   4.069   9.513  0.2412 -1.5788 -2.1737
   12CHL1   C17  838   2.332   3.861   9.531 -0.7424  0.1909  0.1827
   12CHL1   H17  839   2.438   3.830   9.543 -0.3430  0.8317 -1.4409
   12CHL1   C13  840   2.251   3.807   9.646  0.5789 -0.0590 -0.5286
   12CHL1   C18  841   2.100   3.811   9.620  0.2048  0.3077  0.0319
   12CHL1  H18A  842   2.051   3.795   9.719  0.7227  2.1850  0.6374
   12CHL1  H18B  843   2.061   3.913   9.600 -3.8351 -1.0273  0.0961
   12CHL1  H18C  844   2.065   3.745   9.538 -0.5662  0.4915  0.2036
   12CHL1   C12  845   2.289   3.662   9.710 -0.5819 -0.3965  0.0364
   12CHL1  H12A  846   2.270   3.582   9.635 -1.4083  0.3205 -0.5423
   12CHL1  H12B  847   2.399   3.669   9.720 -0.5434  0.8637 -0.9799
   12CHL1   C11  848   2.232   3.639   9.851 -0.0984  0.4252  0.5740
   12CHL1  H11A  849   2.122   3.619   9.852 -0.0079 -0.1082  0.3673
   12CHL1  H11B  850   2.281   3.547   9.889 -2.2589 -2.0984 -2.1922
   12CHL1    C9  851   2.253   3.762   9.953 -0.2250  0.5565  0.0275
   12CHL1    H9  852   2.363   3.780   9.959 -0.7372  3.6343  2.9455
   12CHL1   C10  853   2.199   3.744  10.091 -0.1961 -0.0172  0.0773
   12CHL1   C19  854   2.046   3.699  10.088 -0.2679 -0.3507 -0.1893
   12CHL1  H19A  855   2.030   3.601  10.040  1.8024 -0.5740 -0.5354
   12CHL1  H19B  856   1.997   3.694  10.187  0.2366  0.5873  0.1274
   12CHL1  H19C  857   1.992   3.776  10.029 -0.4882  0.4759  1.0607
   12CHL1    C1  858   2.278   3.637  10.177  0.2757  0.1003 -0.1992
   12CHL1   H1A  859   2.278   3.538  10.124  0.6108 -0.2040  0.3606
   12CHL1   H1B  860   2.381   3.677  10.190  0.1751  0.3048 -0.0396
   12CHL1    C2  861   2.227   3.612  10.324  0.1342  0.0262  0.0822
   12CHL1   H2A  862   2.283   3.538  10.385 -1.7741 -0.3643  1.4373
   12CHL1   H2B  863   2.127   3.563  10.323 -0.3016  0.7939 -2.7022
   12CHL1   C20  864   2.299   3.815   9.381 -0.1938 -0.5633  0.0005
   12CHL1   H20  865   2.195   3.847   9.360  0.2526  1.1389  0.2241
   12CHL1   C21  866   2.317   3.661   9.358  0.0395 -0.5270 -0.5768
   12CHL1  H21A  867   2.308   3.620   9.255 -0.8884  1.3805 -1.3014
   12CHL1  H21B  868   2.248   3.599   9.420  1.0937 -1.7857 -0.6093
   12CHL1  H21C  869   2.411   3.623   9.403 -0.1843 -1.6120 -0.9861
   12CHL1   C22  870   2.381   3.882   9.271 -0.1456  0.4133  0.0142
   12CHL1  H22A  871   2.345   3.837   9.176  2.0969  2.0926 -1.7413
   12CHL1  H22B  872   2.370   3.992   9.260 -0.6781  0.3061 -0.6054
   12CHL1   C23  873   2.537   3.865   9.276 -0.1200 -0.9814  0.5655
   12CHL1  H23A  874   2.583   3.899   9.372 -0.5502 -0.3099  0.5336
   12CHL1  H23B  875   2.561   3.756   9.276 -0.7612 -1.1259  0.5099
   12CHL1   C24  876   2.616   3.927   9.154 -0.3557  0.1579  0.0891
   12CHL1  H24A  877   2.609   4.037   9.148 -2.5460  0.0058 -1.0654
   12CHL1  H24B  878   2.723   3.930   9.184 -0.2851  0.5521 -0.1984
   12CHL1   C25  879   2.594   3.853   9.021  0.7450  0.1974 -0.0078
   12CHL1   H25  880   2.488   3.833   8.994  0.4809  2.8832 -1.2950
   12CHL1   C26  881   2.640   3.940   8.901  0.7668  0.0225  1.1378
   12CHL1  H26A  882   2.747   3.967   8.914  1.4936 -2.1886  0.2055
   12CHL1  H26B  883   2.645   3.883   8.806  0.8174  0.6120  0.7777
   12CHL1  H26C  884   2.575   4.030   8.896 -0.5225 -0.9737 -1.8448
   12CHL1   C27  885   2.664   3.714   9.020  0.1416  0.3487  0.4090
   12CHL1  H27A  886   2.621   3.639   8.951 -0.0525  0.2642  0.6225
   12CHL1  H27B  887   2.775   3.715   9.006 -0.0412 -0.9687 -1.5519
   12CHL1  H27C  888   2.646   3.665   9.118 -1.7800  2.4122  1.1735
   13CHL1    C3  889   0.477   3.926   9.995 -0.1316 -0.1247 -0.5134
   13CHL1    H3  890   0.479   3.815   9.987  0.5925 -0.2287  0.8335
   13CHL1    O3  891   0.485   3.956  10.135  0.0723  0.3125  0.5073
   13CHL1   H3'  892   0.414   3.903  10.173 -2.4431  2.2034 -1.2116
   13CHL1    C4  893   0.601   3.985   9.923 -0.1999 -0.0992 -0.3919
   13CHL1   H4A  894   0.599   4.095   9.941  0.2162 -0.2216  0.4107
   13CHL1   H4B  895   0.689   3.941   9.974 -0.7849 -0.9506 -0.1023
   13CHL1    C5  896   0.603   3.951   9.777 -0.0720  0.1212 -0.5992
   13CHL1    C6  897   0.707   3.887   9.723 -0.4579  0.7352 -0.3317
   13CHL1    H6  898   0.790   3.865   9.792  0.4926 -1.5088 -2.0665
   13CHL1    C7  899   0.719   3.826   9.584  0.4600  0.1890 -0.8075
   13CHL1   H7A  900   0.810   3.869   9.536  0.7032  2.0287  1.1476
   13CHL1   H7B  901   0.700   3.718   9.598  1.1019  0.2433  0.6720
   13CHL1    C8  902   0.604   3.890   9.494 -0.6686  0.3994  0.4512
   13CHL1    H8  903   0.639   3.991   9.463  0.4137  0.4515  1.7270
   13CHL1   C14  904   0.599   3.812   9.366 -0.8372  0.2133 -0.4547
   13CHL1   H14  905   0.563   3.711   9.396 -0.3617 -0.3209 -1.6188
   13CHL1   C15  906   0.724   3.780   9.275  0.4971  0.6482  0.9250
   13CHL1  H15A  907   0.792   3.867   9.277  0.3156  0.7884  2.1744
   13CHL1  H15B  908   0.788   3.694   9.304  5.0703  2.8359 -1.6593
   13CHL1   C16  909   0.662   3.751   9.131  0.1096  0.1412 -0.1284
   13CHL1  H16A  910   0.714   3.828   9.069  0.0747  2.7095  2.7797
   13CHL1  H16B  911   0.678   3.647   9.096 -2.1663 -0.6144  0.9001
   13CHL1   C17  912   0.510   3.770   9.147 -0.2435  0.0285  0.1999
   13CHL1   H17  913   0.467   3.673   9.179 -0.1421 -0.2775 -0.5926
   13CHL1   C13  914   0.488   3.863   9.269 -0.0795 -0.3575 -0.6106
   13CHL1   C18  915   0.509   4.013   9.224  0.1860  0.0627 -0.0116
   13CHL1  H18A  916   0.600   4.030   9.161 -0.1561  2.2795  0.0092
   13CHL1  H18B  917   0.421   4.038   9.161 -1.0460 -2.3215  0.6325
   13CHL1  H18C  918   0.521   4.073   9.316  0.2987  0.9194 -0.5760
   13CHL1   C12  919   0.351   3.849   9.340 -0.7828 -0.1555 -0.3529
   13CHL1  H12A  920   0.276   3.897   9.273  0.4441  1.3527 -0.7130
   13CHL1  H12B  921   0.335   3.744   9.370  2.6007 -0.4414  0.9007
   13CHL1   C11  922   0.344   3.930   9.475  0.6884 -0.1631  0.1137
   13CHL1  H11A  923   0.338   4.039   9.456  1.5329  0.0040  0.7438
   13CHL1  H11B  924   0.249   3.896   9.520 -0.6402  1.3380 -1.4088
   13CHL1    C9  925   0.470   3.901   9.564 -0.1392 -0.3041 -0.4358
   13CHL1    H9  926   0.436   3.798   9.590  0.2491 -0.5794 -1.0149
   13CHL1   C10  927   0.475   3.979   9.702 -0.3936  0.6650  0.3698
   13CHL1   C19  928   0.472   4.125   9.672 -0.1083 -0.2951  0.2653
   13CHL1  H19A  929   0.372   4.149   9.630 -0.7867 -2.4072  0.5697
   13CHL1  H19B  930   0.498   4.182   9.764  0.1671 -2.1309  1.3897
   13CHL1  H19C  931   0.547   4.173   9.605 -0.6066  0.8431  0.5030
   13CHL1    C1  932   0.351   3.943   9.791 -0.3125  0.5988 -0.2596
   13CHL1   H1A  933   0.257   3.995   9.761  0.8913  2.9419 -0.1228
   13CHL1   H1B  934   0.347   3.833   9.775 -0.3253  0.5520  0.0503
   13CHL1    C2  935   0.351   3.978   9.938  0.3354  0.0078  0.0776
   13CHL1   H2A  936   0.268   3.935   9.997 -0.0493  0.9202  0.2249
   13CHL1   H2B  937   0.348   4.087   9.964 -1.7055  0.5508 -2.1064
   13CHL1   C20  938   0.434   3.809   9.021  0.0997 -0.9129  0.4924
   13CHL1   H20  939   0.429   3.919   9.007  2.7881 -0.7963 -0.1928
   13CHL1   C21  940   0.288   3.756   9.032  0.0623 -0.3616  0.4832
   13CHL1  H21A  941   0.227   3.796   8.948  1.0790  1.4570  0.5538
   13CHL1  H21B  942   0.231   3.783   9.124  0.5589 -0.9765  0.9804
   13CHL1  H21C  943   0.289   3.648   9.009 -0.9114  0.2661 -3.1421
   13CHL1   C22  944   0.504   3.744   8.892 -0.3826  0.7303  0.6455
   13CHL1  H22A  945   0.611   3.773   8.901  0.9194 -3.1671 -0.2683
   13CHL1  H22B  946   0.501   3.634   8.899  0.3078  0.7210  0.9094
   13CHL1   C23  947   0.444   3.789   8.756 -0.1704  0.1228 -0.0593
   13CHL1  H23A  948   0.348   3.735   8.744 -0.6385  1.2782 -2.2106
   13CHL1  H23B  949   0.425   3.899   8.758 -1.9360 -0.1107 -1.3590
   13CHL1   C24  950   0.538   3.755   8.633  0.2093 -0.1959  0.0695
   13CHL1  H24A  951   0.644   3.781   8.652  0.0103 -0.9347  2.5209
   13CHL1  H24B  952   0.531   3.647   8.608  3.4659 -0.8598  1.5282
   13CHL1   C25  953   0.481   3.822   8.508  0.1042  0.5572 -0.5202
   13CHL1   H25  954   0.495   3.933   8.508  0.5150  0.5143 -1.0871
   13CHL1   C26  955   0.568   3.777   8.386  0.1200 -0.0115 -0.6166
   13CHL1  H26A  956   0.520   3.815   8.293 -1.0647 -0.9777 -0.4311
   13CHL1  H26B  957   0.669   3.819   8.405  0.4104 -1.3266  0.9730
   13CHL1  H26C  958   0.563   3.666   8.378  0.3642 -0.2971  2.2668
   13CHL1   C27  959   0.332   3.785   8.494 -0.2723  0.1438  0.1459
   13CHL1  H27A  960   0.266   3.844   8.561 -1.7580 -1.2343 -0.0488
   13CHL1  H27B  961   0.310   3.813   8.389  2.2950 -1.1723 -0.8400
   13CHL1  H27C  962   0.311   3.676   8.504 -0.0134  0.1361  0.6534
   14CHL1    C3  963   1.682   0.648  10.537 -0.0240 -0.0258  0.0907
   14CHL1    H3  964   1.720   0.551  10.499 -1.7199 -0.3079 -0.9858
   14CHL1    O3  965   1.677   0.651  10.680 -0.7456  0.1699  0.4823
   14CHL1   H3'  966   1.653   0.743  10.692  0.0197  0.5370 -0.5756
   14CHL1    C4  967   1.785   0.752  10.488 -0.1919 -0.2396 -0.2187
   14CHL1   H4A  968   1.766   0.851  10.535 -1.8140  0.0237 -1.3730
   14CHL1   H4B  969   1.882   0.717  10.530  0.5899  0.7530 -1.1433
   14CHL1    C5  970   1.785   0.758  10.337 -0.0957 -0.5193 -0.1426
   14CHL1    C6  971   1.893   0.727  10.265 -0.2957 -0.2174 -0.1324
   14CHL1    H6  972   1.984   0.686  10.312  0.7260  1.6019 -0.4186
   14CHL1    C7  973   1.898   0.739  10.112 -0.1703 -0.0200 -0.3534
   14CHL1   H7A  974   1.991   0.795  10.089  0.3908 -0.7895 -0.0244
   14CHL1   H7B  975   1.903   0.634  10.076 -1.1542  0.2227 -1.2531
   14CHL1    C8  976   1.784   0.814  10.053  0.5226 -0.3613  0.5667
   14CHL1    H8  977   1.801   0.923  10.072 -0.9080  0.1464 -0.8298
   14CHL1   C14  978   1.771   0.794   9.903  0.0273 -0.6616 -0.2944
   14CHL1   H14  979   1.752   0.686   9.885  2.2063 -0.8589 -1.8540
   14CHL1   C15  980   1.892   0.826   9.824  0.5403 -0.1819 -0.1754
   14CHL1  H15A  981   1.932   0.920   9.867  1.5927 -0.6750 -0.0408
   14CHL1  H15B  982   1.967   0.745   9.821 -0.3689 -1.0787  0.5344
   14CHL1   C16  983   1.839   0.847   9.679 -0.0844 -0.4049  0.0271
   14CHL1  H16A  984   1.868   0.948   9.644 -0.3647  0.9588  3.4089
   14CHL1  H16B  985   1.878   0.761   9.619  4.1320  1.9925 -1.0960
   14CHL1   C17  986   1.682   0.845   9.691 -0.1181 -0.0625  0.8967
   14CHL1   H17  987   1.650   0.740   9.677 -0.7234  0.2197  0.0903
   14CHL1   C13  988   1.663   0.878   9.843  0.7321 -0.2351 -0.1249
   14CHL1   C18  989   1.669   1.031   9.868 -0.8222  0.1245  0.2832
   14CHL1  H18A  990   1.584   1.085   9.821  0.4091  1.0113 -1.0039
   14CHL1  H18B  991   1.667   1.064   9.974 -0.0214  0.5377  0.1765
   14CHL1  H18C  992   1.760   1.067   9.815 -0.5270 -2.4922 -1.1816
   14CHL1   C12  993   1.529   0.835   9.895  0.3154  0.3775  0.8768
   14CHL1  H12A  994   1.440   0.896   9.866 -1.4948 -1.4752  2.1925
   14CHL1  H12B  995   1.497   0.734   9.863  0.4392  0.8794 -0.9411
   14CHL1   C11  996   1.524   0.841  10.043 -0.0123 -0.1091  0.7442
   14CHL1  H11A  997   1.521   0.946  10.079  0.2788  0.1829 -0.0614
   14CHL1  H11B  998   1.428   0.801  10.080 -1.0171  2.8316  1.5767
   14CHL1    C9  999   1.652   0.777  10.116 -0.3890 -0.3211  0.0023
   14CHL1    H9 1000   1.646   0.670  10.088  1.2766 -0.0882 -1.3897
   14CHL1   C10 1001   1.651   0.791  10.271 -0.2322  0.4195 -0.4617
   14CHL1   C19 1002   1.625   0.937  10.303  0.1193 -0.1773 -0.2637
   14CHL1  H19A 1003   1.707   0.998  10.261 -0.4176 -0.6686 -2.1024
   14CHL1  H19B 1004   1.526   0.981  10.277  0.7708  0.8228 -1.1461
   14CHL1  H19C 1005   1.630   0.952  10.413 -1.1901  0.4477 -0.2648
   14CHL1    C1 1006   1.548   0.689  10.332 -0.6428  0.0004  0.1117
   14CHL1   H1A 1007   1.449   0.719  10.291 -0.8916  1.0275  1.3659
   14CHL1   H1B 1008   1.574   0.586  10.302  0.7628 -1.0375  4.2435
   14CHL1    C2 1009   1.542   0.691  10.486 -0.7839  0.7462  0.0300
   14CHL1   H2A 1010   1.460   0.627  10.525 -0.8011  1.2945  0.9047
   14CHL1   H2B 1011   1.513   0.788  10.531 -2.1440 -1.0568  3.3524
   14CHL1   C20 1012   1.608   0.929   9.585 -0.1231 -0.7649  0.2824
   14CHL1   H20 1013   1.613   1.035   9.620  1.6092  0.0741 -2.1953
   14CHL1   C21 1014   1.465   0.872   9.556 -0.4725  0.2042 -0.2058
   14CHL1  H21A 1015   1.402   0.900   9.643  0.6770 -1.1088  1.1109
   14CHL1  H21B 1016   1.478   0.762   9.546  1.4068  0.5315 -2.0097
   14CHL1  H21C 1017   1.418   0.921   9.468  1.7200  3.2976  0.1708
   14CHL1   C22 1018   1.691   0.943   9.446  0.0014 -0.8539  0.0575
   14CHL1  H22A 1019   1.794   0.978   9.470 -0.1181 -0.1582 -0.4272
   14CHL1  H22B 1020   1.704   0.846   9.394 -0.3165 -0.2461 -1.1839
   14CHL1   C23 1021   1.630   1.040   9.347  0.0189  0.4057 -0.1318
   14CHL1  H23A 1022   1.521   1.020   9.334 -0.3064  2.3239 -0.5888
   14CHL1  H23B 1023   1.636   1.139   9.397 -3.0025 -0.3516  1.9890
   14CHL1   C24 1024   1.711   1.031   9.214 -0.0557  0.2231 -1.1685
   14CHL1  H24A 1025   1.819   1.043   9.240  0.5514  1.6702 -3.9223
   14CHL1  H24B 1026   1.708   0.926   9.178  0.5716 -0.2027 -0.0115
   14CHL1   C25 1027   1.683   1.147   9.116 -0.3725  0.3601  0.7727
   14CHL1   H25 1028   1.707   1.241   9.170  1.4986 -0.1990  0.9649
   14CHL1   C26 1029   1.779   1.137   8.993  0.7282 -0.8466  0.3494
   14CHL1  H26A 1030   1.770   1.037   8.946 -1.2932 -0.7938  0.5654
   14CHL1  H26B 1031   1.751   1.217   8.921  1.1977 -0.5655  0.4665
   14CHL1  H26C 1032   1.878   1.167   9.035 -0.0568  1.1706  0.9279
   14CHL1   C27 1033   1.537   1.146   9.073 -0.0497 -0.2034 -0.9933
   14CHL1  H27A 1034   1.530   1.217   8.988  1.2550  1.1776 -0.0147
   14CHL1  H27B 1035   1.514   1.045   9.033  0.8441 -0.7574 -0.1659
   14CHL1  H27C 1036   1.464   1.179   9.151 -0.4373 -2.2228 -0.4442
   15CHL1    C3 1037   0.421   5.322  10.013  0.0188 -0.1872 -0.1372
   15CHL1    H3 1038   0.366   5.225  10.006  0.2139 -0.2256 -1.2813
   15CHL1    O3 1039   0.441   5.360  10.149  0.3602 -0.6578  0.1964
   15CHL1   H3' 1040   0.476   5.450  10.150 -0.3614 -0.3702  0.1551
   15CHL1    C4 1041   0.560   5.299   9.943  0.4805 -0.3547  0.4946
   15CHL1   H4A 1042   0.622   5.388   9.967  0.3279 -0.2050  0.3372
   15CHL1   H4B 1043   0.614   5.214   9.991  3.1228  1.1920  0.4612
   15CHL1    C5 1044   0.550   5.286   9.793 -0.0551  0.2363 -0.2528
   15CHL1    C6 1045   0.616   5.187   9.735  0.2833  0.0408 -0.0897
   15CHL1    H6 1046   0.662   5.115   9.803 -2.3916  0.0788  1.9368
   15CHL1    C7 1047   0.639   5.172   9.588 -0.5401 -0.1299  0.5443
   15CHL1   H7A 1048   0.748   5.158   9.571  0.2065  2.0109  2.8746
   15CHL1   H7B 1049   0.579   5.086   9.552  0.2920 -0.7094  0.5034
   15CHL1    C8 1050   0.578   5.295   9.511  0.0373  0.4137  0.5148
   15CHL1    H8 1051   0.653   5.377   9.511 -1.5633  2.0047  2.9279
   15CHL1   C14 1052   0.560   5.255   9.361  0.4576  0.4690 -0.8482
   15CHL1   H14 1053   0.475   5.184   9.366 -0.4123  1.5797  2.6125
   15CHL1   C15 1054   0.660   5.164   9.293  0.1953 -0.1163  0.1500
   15CHL1  H15A 1055   0.764   5.201   9.302  0.0980  0.3335 -0.5187
   15CHL1  H15B 1056   0.664   5.055   9.316 -0.6237 -0.2774 -0.4173
   15CHL1   C16 1057   0.615   5.181   9.145  0.0676 -0.3647 -0.0433
   15CHL1  H16A 1058   0.699   5.215   9.081  0.3818 -0.5021  0.2942
   15CHL1  H16B 1059   0.574   5.081   9.119 -0.1297  0.0787 -1.5411
   15CHL1   C17 1060   0.491   5.282   9.139 -0.0097 -0.8976 -0.5192
   15CHL1   H17 1061   0.393   5.230   9.150 -1.0627  1.1532  0.1920
   15CHL1   C13 1062   0.507   5.364   9.269 -0.0156 -0.1698 -0.7383
   15CHL1   C18 1063   0.614   5.479   9.256  0.5293  1.1385 -0.2260
   15CHL1  H18A 1064   0.575   5.555   9.185  0.3294 -0.3001 -1.7113
   15CHL1  H18B 1065   0.648   5.532   9.348 -1.3146  2.2463 -0.1233
   15CHL1  H18C 1066   0.701   5.441   9.198  0.9102  3.3111 -1.2061
   15CHL1   C12 1067   0.372   5.408   9.334  0.1989 -0.1151 -0.5886
   15CHL1  H12A 1068   0.332   5.491   9.272  0.4826 -0.2517 -0.9606
   15CHL1  H12B 1069   0.305   5.319   9.333 -0.5657  0.4563 -1.5810
   15CHL1   C11 1070   0.388   5.457   9.478  0.1943  0.0455 -0.4221
   15CHL1  H11A 1071   0.452   5.547   9.489  2.8498 -2.0012  2.4967
   15CHL1  H11B 1072   0.287   5.487   9.512  0.6036  0.2697  0.6352
   15CHL1    C9 1073   0.447   5.351   9.573 -0.7105  0.4577  0.0650
   15CHL1    H9 1074   0.366   5.275   9.568  0.3111 -0.5779 -1.8078
   15CHL1   C10 1075   0.465   5.390   9.724 -0.1273 -0.0375  0.6355
   15CHL1   C19 1076   0.543   5.513   9.728  0.3897 -0.7379  1.1010
   15CHL1  H19A 1077   0.635   5.502   9.666 -1.0130 -1.1810 -1.0347
   15CHL1  H19B 1078   0.478   5.596   9.694 -1.2623 -2.0693  0.8691
   15CHL1  H19C 1079   0.557   5.537   9.835 -1.4060 -0.4540  1.2942
   15CHL1    C1 1080   0.321   5.402   9.799 -0.0511  0.5471  0.3272
   15CHL1   H1A 1081   0.267   5.483   9.744  1.8795  2.6142  1.3100
   15CHL1   H1B 1082   0.267   5.306   9.788  2.3797 -0.7845 -0.5112
   15CHL1    C2 1083   0.333   5.421   9.948 -0.0811 -0.2439  0.1468
   15CHL1   H2A 1084   0.232   5.402   9.992  0.9312 -1.0529  2.2311
   15CHL1   H2B 1085   0.365   5.526   9.965  0.6416 -0.5758  0.9326
   15CHL1   C20 1086   0.484   5.364   9.003 -0.6765  0.4385 -0.0052
   15CHL1   H20 1087   0.583   5.412   8.992 -0.2342 -0.4028  0.2113
   15CHL1   C21 1088   0.356   5.453   8.994 -0.0631  0.2448 -0.3226
   15CHL1  H21A 1089   0.273   5.388   9.030  0.7670  0.2117  1.6480
   15CHL1  H21B 1090   0.334   5.486   8.890  2.4230 -0.6005 -1.1787
   15CHL1  H21C 1091   0.364   5.536   9.067  1.4610 -1.6173  1.7340
   15CHL1   C22 1092   0.468   5.260   8.885 -0.3845 -0.4310 -0.5179
   15CHL1  H22A 1093   0.518   5.166   8.916 -1.5719 -0.7387  0.5668
   15CHL1  H22B 1094   0.360   5.238   8.876 -0.5622 -0.0462  0.5250
   15CHL1   C23 1095   0.522   5.303   8.745 -0.0140  0.5321 -0.2753
   15CHL1  H23A 1096   0.500   5.410   8.722  0.5079  0.4351 -1.2944
   15CHL1  H23B 1097   0.633   5.304   8.753 -0.1257  0.3171  1.6863
   15CHL1   C24 1098   0.458   5.231   8.628  0.1863  0.2385  0.0576
   15CHL1  H24A 1099   0.353   5.258   8.652 -0.6135 -2.3199 -0.2343
   15CHL1  H24B 1100   0.501   5.283   8.540  0.4166  0.8999  0.5484
   15CHL1   C25 1101   0.471   5.074   8.620 -1.0641 -0.8174 -0.3410
   15CHL1   H25 1102   0.429   5.033   8.714 -2.6501  2.3550  0.4687
   15CHL1   C26 1103   0.398   5.012   8.501 -0.0154 -0.1802 -0.3029
   15CHL1  H26A 1104   0.434   4.909   8.480 -0.8950 -0.3673 -0.9752
   15CHL1  H26B 1105   0.290   5.005   8.525  0.0736  2.0217  1.0363
   15CHL1  H26C 1106   0.419   5.072   8.410  0.9957 -0.6601 -0.4006
   15CHL1   C27 1107   0.621   5.042   8.600  0.3338 -0.4375  0.0466
   15CHL1  H27A 1108   0.631   4.938   8.561  1.0364 -0.3225 -0.0871
   15CHL1  H27B 1109   0.668   5.116   8.533 -1.1915  2.5767  2.0792
   15CHL1  H27C 1110   0.676   5.059   8.696 -3.1490 -2.1639  2.5877
   16CHL1    C3 1111   0.983   6.475  10.345 -0.4685 -0.1647 -0.2332
   16CHL1    H3 1112   1.051   6.392  10.318  1.3621  0.8101  1.1593
   16CHL1    O3 1113   0.992   6.509  10.484 -0.4638  0.1894  0.8581
   16CHL1   H3' 1114   0.923   6.575  10.498  0.7753  1.1286  3.0140
   16CHL1    C4 1115   1.030   6.600  10.262 -0.1544 -0.7597 -0.7165
   16CHL1   H4A 1116   0.979   6.691  10.301  2.2442  0.8667 -1.1315
   16CHL1   H4B 1117   1.137   6.609  10.294  0.0499  0.5143 -1.6794
   16CHL1    C5 1118   1.004   6.606  10.115  0.4884  0.0258 -0.2169
   16CHL1    C6 1119   1.105   6.635  10.026  0.7012  0.4091  0.3152
   16CHL1    H6 1120   1.197   6.673  10.071  1.7499  0.5839 -1.8823
   16CHL1    C7 1121   1.100   6.638   9.874  0.0270  0.3377 -0.4934
   16CHL1   H7A 1122   1.132   6.733   9.827  0.7404 -0.3299 -1.4144
   16CHL1   H7B 1123   1.164   6.553   9.841 -0.7749 -1.3305  1.9964
   16CHL1    C8 1124   0.957   6.612   9.824  0.4646  0.1901 -0.0136
   16CHL1    H8 1125   0.902   6.708   9.837  2.1227  1.0300  1.1682
   16CHL1   C14 1126   0.969   6.559   9.678 -0.0746 -0.4613  0.2204
   16CHL1   H14 1127   1.031   6.467   9.678  0.4621 -0.1183 -0.9880
   16CHL1   C15 1128   1.028   6.643   9.565  0.3383  0.0941  0.5643
   16CHL1  H15A 1129   0.993   6.748   9.576  2.3460  0.8872 -0.1596
   16CHL1  H15B 1130   1.139   6.653   9.564  0.6485 -2.4337 -0.9975
   16CHL1   C16 1131   0.969   6.585   9.434 -0.4647  0.2939 -0.0400
   16CHL1  H16A 1132   0.922   6.670   9.380  2.1592  2.7521  1.2823
   16CHL1  H16B 1133   1.054   6.547   9.374 -2.2539 -0.2117 -2.4426
   16CHL1   C17 1134   0.873   6.470   9.474 -0.3410  0.4944 -0.6691
   16CHL1   H17 1135   0.944   6.385   9.483  1.4237  1.9741  0.0311
   16CHL1   C13 1136   0.834   6.513   9.614 -0.6777  0.5128 -0.2771
   16CHL1   C18 1137   0.734   6.633   9.603 -0.1401 -0.4818 -0.3865
   16CHL1  H18A 1138   0.766   6.708   9.527  0.1666  0.5823  0.7493
   16CHL1  H18B 1139   0.634   6.601   9.566  0.1051 -0.5428 -1.0083
   16CHL1  H18C 1140   0.726   6.689   9.699  0.8393  1.4377 -1.3564
   16CHL1   C12 1141   0.763   6.408   9.702  0.2654  0.3457  0.3182
   16CHL1  H12A 1142   0.660   6.383   9.669 -0.9458  1.4390  2.9771
   16CHL1  H12B 1143   0.826   6.318   9.716 -0.4899  0.1165  2.7068
   16CHL1   C11 1144   0.744   6.458   9.845 -0.2194 -0.4958  0.1185
   16CHL1  H11A 1145   0.678   6.547   9.846  3.0145  2.1147 -1.3970
   16CHL1  H11B 1146   0.701   6.380   9.912 -1.3775  0.3305  0.3614
   16CHL1    C9 1147   0.879   6.511   9.911 -0.5593 -0.2334 -0.4082
   16CHL1    H9 1148   0.947   6.422   9.915  1.9496  1.5751 -0.2287
   16CHL1   C10 1149   0.864   6.554  10.062 -0.5457  0.9821  0.1577
   16CHL1   C19 1150   0.768   6.675  10.074 -0.4563 -0.3470 -0.1402
   16CHL1  H19A 1151   0.759   6.716  10.177 -0.8550  1.0298 -0.6991
   16CHL1  H19B 1152   0.798   6.767  10.020 -0.8820  0.0339  0.2582
   16CHL1  H19C 1153   0.668   6.648  10.032  0.5567 -1.2472 -2.0903
   16CHL1    C1 1154   0.813   6.437  10.156  0.3818  0.8104  0.1465
   16CHL1   H1A 1155   0.707   6.428  10.122 -0.3046 -0.0969  2.3448
   16CHL1   H1B 1156   0.868   6.347  10.121 -1.0268  0.3770 -1.1204
   16CHL1    C2 1157   0.831   6.467  10.306 -0.5440 -0.7039  0.2470
   16CHL1   H2A 1158   0.784   6.387  10.367  0.5467 -1.5870 -0.0410
   16CHL1   H2B 1159   0.771   6.556  10.332 -1.2437 -0.9496 -0.4832
   16CHL1   C20 1160   0.764   6.425   9.376  0.1499  0.5491 -0.4577
   16CHL1   H20 1161   0.678   6.494   9.363 -0.0223  0.3118 -0.6011
   16CHL1   C21 1162   0.722   6.277   9.414  0.0884 -0.0005  0.1666
   16CHL1  H21A 1163   0.812   6.213   9.403  0.0367  0.3056 -2.6780
   16CHL1  H21B 1164   0.648   6.243   9.338 -2.9573  2.9733  1.4924
   16CHL1  H21C 1165   0.675   6.251   9.511 -1.3450 -2.4145 -1.0837
   16CHL1   C22 1166   0.815   6.422   9.228 -0.1236 -0.6126 -0.1911
   16CHL1  H22A 1167   0.852   6.521   9.193 -2.3444 -0.2491 -1.7467
   16CHL1  H22B 1168   0.906   6.358   9.230 -0.9914 -1.9408 -1.4590
   16CHL1   C23 1169   0.719   6.380   9.122  1.2060  0.4828 -0.0946
   16CHL1  H23A 1170   0.675   6.281   9.147 -1.2564  1.5215  0.0069
   16CHL1  H23B 1171   0.633   6.451   9.122  3.0334  2.8270  0.1666
   16CHL1   C24 1172   0.777   6.370   8.982 -0.3498  0.1803 -0.1352
   16CHL1  H24A 1173   0.850   6.452   8.966  0.2373 -0.3107 -0.0084
   16CHL1  H24B 1174   0.832   6.275   8.967 -0.9137  0.2471 -3.4251
   16CHL1   C25 1175   0.672   6.379   8.865 -0.3884  0.4984 -0.0104
   16CHL1   H25 1176   0.601   6.460   8.894 -1.6055 -0.6002  0.1572
   16CHL1   C26 1177   0.745   6.402   8.733 -0.0125 -0.7663  0.0401
   16CHL1  H26A 1178   0.789   6.504   8.733 -0.7720 -0.3698 -2.3640
   16CHL1  H26B 1179   0.820   6.322   8.719  0.9489 -0.2165  1.7252
   16CHL1  H26C 1180   0.681   6.413   8.643  0.5488  0.6860 -0.2067
   16CHL1   C27 1181   0.601   6.242   8.853 -0.2619 -0.3940  0.2070
   16CHL1  H27A 1182   0.526   6.226   8.934 -0.9180 -0.8311 -0.4771
   16CHL1  H27B 1183   0.555   6.226   8.754 -1.0696  0.2835  0.4604
   16CHL1  H27C 1184   0.683   6.168   8.864  0.7243  0.4637 -1.0726
   17CHL1    C3 1185   4.337   3.764  10.425  0.6393 -0.2167 -0.2127
   17CHL1    H3 1186   4.343   3.873  10.404 -2.8347  0.3346  0.9520
   17CHL1    O3 1187   4.377   3.738  10.561 -0.0790  0.0023  0.1950
   17CHL1   H3' 1188   4.394   3.644  10.560  3.7470  0.5362  0.0619
   17CHL1    C4 1189   4.192   3.714  10.401  0.4484  0.5220 -0.2284
   17CHL1   H4A 1190   4.194   3.609  10.437 -0.0657  1.0106  1.2958
   17CHL1   H4B 1191   4.122   3.756  10.477  0.9707 -1.9355  1.7421
   17CHL1    C5 1192   4.148   3.718  10.255 -0.5363 -0.2969 -0.0991
   17CHL1    C6 1193   4.034   3.783  10.218  0.1938 -0.8924  0.1679
   17CHL1    H6 1194   3.970   3.829  10.295 -1.1506 -0.6181 -1.0760
   17CHL1    C7 1195   3.978   3.802  10.081  0.2225 -0.1255  0.2891
   17CHL1   H7A 1196   3.869   3.784  10.095  0.1278  0.1506 -0.0789
   17CHL1   H7B 1197   3.998   3.905  10.044 -1.8248  1.6413  3.5408
   17CHL1    C8 1198   4.048   3.705   9.988  0.2014  0.5253  0.5521
   17CHL1    H8 1199   4.009   3.604  10.013  0.6978 -0.2014 -1.4230
   17CHL1   C14 1200   4.022   3.737   9.849  0.7587  0.2846  0.5792
   17CHL1   H14 1201   4.064   3.838   9.830  0.1080  0.3480 -0.5827
   17CHL1   C15 1202   3.871   3.767   9.809 -0.1495  0.2186  0.2800
   17CHL1  H15A 1203   3.808   3.690   9.858  0.9537 -1.3329 -0.6557
   17CHL1  H15B 1204   3.843   3.869   9.841  0.2462  0.0494  1.1874
   17CHL1   C16 1205   3.862   3.745   9.657 -0.2464  0.3130 -0.5221
   17CHL1  H16A 1206   3.802   3.652   9.654  1.5653 -0.9206 -0.3716
   17CHL1  H16B 1207   3.803   3.817   9.597  0.2646  1.5638  0.4308
   17CHL1   C17 1208   4.014   3.723   9.616  0.0988 -0.1348 -0.1882
   17CHL1   H17 1209   4.053   3.828   9.616  0.0175 -0.0594 -2.0276
   17CHL1   C13 1210   4.081   3.654   9.736 -0.0970  0.2128  0.7065
   17CHL1   C18 1211   4.030   3.507   9.730 -0.4993  0.5511  0.7525
   17CHL1  H18A 1212   4.068   3.441   9.811 -2.8941 -2.1562 -0.1337
   17CHL1  H18B 1213   3.921   3.500   9.747 -0.9735  5.3779  1.0075
   17CHL1  H18C 1214   4.057   3.456   9.635  0.0246 -1.6335  2.0053
   17CHL1   C12 1215   4.237   3.664   9.751  0.2086 -0.6529  0.0166
   17CHL1  H12A 1216   4.290   3.611   9.670 -2.2074 -1.2267 -1.2879
   17CHL1  H12B 1217   4.264   3.771   9.740 -1.5512 -0.2628 -0.8338
   17CHL1   C11 1218   4.272   3.616   9.895  0.2952  0.5416 -0.2887
   17CHL1  H11A 1219   4.236   3.511   9.903  1.1590  0.3658  1.7963
   17CHL1  H11B 1220   4.383   3.609   9.899  0.2825 -3.5224 -1.5200
   17CHL1    C9 1221   4.202   3.701  10.007 -0.5290  0.8571  0.2445
   17CHL1    H9 1222   4.230   3.807   9.994 -1.0118  1.1351  1.3654
   17CHL1   C10 1223   4.244   3.652  10.146 -0.9747 -0.6829 -0.7506
   17CHL1   C19 1224   4.245   3.496  10.167 -0.1622 -0.6356  0.0403
   17CHL1  H19A 1225   4.267   3.474  10.274 -0.7546  0.3541  0.3791
   17CHL1  H19B 1226   4.145   3.461  10.134 -0.2903  1.6989 -2.4353
   17CHL1  H19C 1227   4.321   3.444  10.105  1.1445 -0.3656  1.3494
   17CHL1    C1 1228   4.389   3.711  10.177 -0.0567  0.6493 -0.4933
   17CHL1   H1A 1229   4.462   3.674  10.102 -0.8497 -0.9067 -0.5392
   17CHL1   H1B 1230   4.380   3.819  10.156  0.5302  0.9084  0.5221
   17CHL1    C2 1231   4.434   3.697  10.328  0.1451 -0.2354  0.1632
   17CHL1   H2A 1232   4.534   3.744  10.343  0.5764 -1.6656  2.3012
   17CHL1   H2B 1233   4.444   3.589  10.352  2.5542 -0.0830  0.0845
   17CHL1   C20 1234   4.037   3.680   9.471  0.9587  0.0374  0.8458
   17CHL1   H20 1235   4.059   3.571   9.471 -0.0838 -0.1870  0.7839
   17CHL1   C21 1236   4.154   3.754   9.413 -0.4319  0.0233  0.1715
   17CHL1  H21A 1237   4.134   3.862   9.426 -1.6074 -0.5003  3.9063
   17CHL1  H21B 1238   4.182   3.713   9.313  1.0488  0.4194  0.3963
   17CHL1  H21C 1239   4.245   3.732   9.474  0.3157  1.6894 -0.2760
   17CHL1   C22 1240   3.922   3.706   9.363 -0.5267  0.1645 -0.3008
   17CHL1  H22A 1241   3.817   3.715   9.397 -0.9047  1.7405 -1.7525
   17CHL1  H22B 1242   3.941   3.808   9.323  1.3181  0.5256  1.2952
   17CHL1   C23 1243   3.926   3.590   9.266 -0.2582  0.7377  0.9105
   17CHL1  H23A 1244   4.030   3.555   9.250 -0.6862 -0.5941  0.9332
   17CHL1  H23B 1245   3.875   3.497   9.299  1.3412 -1.3167 -1.8889
   17CHL1   C24 1246   3.877   3.621   9.124 -0.3024 -0.2952  0.2057
   17CHL1  H24A 1247   3.766   3.610   9.123 -0.7767  2.7924  2.3160
   17CHL1  H24B 1248   3.907   3.727   9.107  1.4065 -0.9298 -0.9551
   17CHL1   C25 1249   3.942   3.524   9.021  0.2891  0.4682  0.0525
   17CHL1   H25 1250   4.052   3.522   9.040  0.2354  0.7564  0.4050
   17CHL1   C26 1251   3.874   3.380   9.043  0.1060  0.6406  0.6209
   17CHL1  H26A 1252   3.780   3.381   8.983  0.0521  3.5590  0.6224
   17CHL1  H26B 1253   3.941   3.299   9.006 -0.1499 -0.4132  2.3515
   17CHL1  H26C 1254   3.843   3.352   9.146 -0.9368  1.6899  0.6100
   17CHL1   C27 1255   3.920   3.571   8.875 -0.2181  0.4807  0.6426
   17CHL1  H27A 1256   3.960   3.673   8.856  0.8317 -0.1118 -0.5473
   17CHL1  H27B 1257   3.974   3.501   8.807  1.0277  1.9085  0.0989
   17CHL1  H27C 1258   3.815   3.580   8.841  0.0405 -0.8666 -0.6188
   18CHL1    C3 1259   3.205   3.236  10.336 -0.9309 -0.2123  0.2096
   18CHL1    H3 1260   3.282   3.156  10.336  1.3458  1.8132 -1.7830
   18CHL1    O3 1261   3.212   3.291  10.470 -0.0059  0.1069  0.1412
   18CHL1   H3' 1262   3.296   3.263  10.506  1.1238  0.6780 -1.8882
   18CHL1    C4 1263   3.236   3.342  10.235  0.4464  0.0036  0.3855
   18CHL1   H4A 1264   3.167   3.425  10.261 -0.2403  0.1374 -1.6799
   18CHL1   H4B 1265   3.338   3.383  10.252  1.2859 -1.4925 -0.7452
   18CHL1    C5 1266   3.207   3.284  10.097  0.1637  0.0496  0.5723
   18CHL1    C6 1267   3.307   3.286  10.001 -0.0034  0.2113 -0.9075
   18CHL1    H6 1268   3.405   3.331  10.025  0.7858 -1.5369 -0.6731
   18CHL1    C7 1269   3.288   3.243   9.858 -0.0035 -0.5924  0.1604
   18CHL1   H7A 1270   3.339   3.316   9.791  3.0511 -2.0590  0.6999
   18CHL1   H7B 1271   3.341   3.147   9.842 -0.3925 -0.7829  0.0006
   18CHL1    C8 1272   3.147   3.219   9.817  0.7843  0.7323  0.9444
   18CHL1    H8 1273   3.085   3.311   9.807 -2.5419 -1.3360  0.9320
   18CHL1   C14 1274   3.136   3.137   9.684  0.7460 -0.8284 -0.4858
   18CHL1   H14 1275   3.187   3.040   9.702 -0.8267 -1.5641  0.2453
   18CHL1   C15 1276   3.200   3.202   9.567 -0.0047 -0.0621 -0.2540
   18CHL1  H15A 1277   3.176   3.309   9.554  2.8006  1.1100  2.9030
   18CHL1  H15B 1278   3.311   3.194   9.575  0.2780  2.3228 -1.1095
   18CHL1   C16 1279   3.142   3.108   9.449 -0.1877 -0.5161  0.6657
   18CHL1  H16A 1280   3.112   3.182   9.372  1.4390  2.0214  2.3100
   18CHL1  H16B 1281   3.212   3.030   9.413 -2.0565 -2.2677  0.6232
   18CHL1   C17 1282   3.013   3.034   9.506  1.1371  0.0366 -1.2088
   18CHL1   H17 1283   3.048   2.929   9.522  1.5330  0.4188  0.6786
   18CHL1   C13 1284   2.983   3.103   9.640 -0.4432  0.0299 -1.0066
   18CHL1   C18 1285   2.902   3.235   9.620 -0.3462 -0.3321  0.5530
   18CHL1  H18A 1286   2.796   3.215   9.595 -0.5919  1.5444 -0.0754
   18CHL1  H18B 1287   2.901   3.301   9.709  1.8685 -0.3274  0.6338
   18CHL1  H18C 1288   2.939   3.283   9.527 -1.0443 -0.3543  0.2601
   18CHL1   C12 1289   2.933   3.013   9.759 -0.2132  0.4478  0.5078
   18CHL1  H12A 1290   2.829   2.975   9.752 -1.0215  1.5230  4.2519
   18CHL1  H12B 1291   2.995   2.922   9.770 -0.0245  0.6448  1.0930
   18CHL1   C11 1292   2.934   3.085   9.895 -0.3817  0.2495  0.4945
   18CHL1  H11A 1293   2.854   3.162   9.903 -2.9375 -2.1810 -0.3151
   18CHL1  H11B 1294   2.899   3.018   9.976  1.1453  1.9053  2.6543
   18CHL1    C9 1295   3.073   3.140   9.936  0.3716  0.2987 -0.4741
   18CHL1    H9 1296   3.139   3.052   9.954  1.3906  0.1924 -3.8941
   18CHL1   C10 1297   3.071   3.218  10.069 -0.7545  0.6465  0.2503
   18CHL1   C19 1298   2.972   3.332  10.066  0.1868  0.3985 -0.0183
   18CHL1  H19A 1299   2.974   3.398  10.155  0.6939 -1.9839  1.8542
   18CHL1  H19B 1300   2.976   3.384   9.968 -2.6612  0.9753  0.0919
   18CHL1  H19C 1301   2.873   3.281  10.068  0.2697  0.2487  0.6289
   18CHL1    C1 1302   3.040   3.116  10.189 -0.0936  0.2226 -0.1948
   18CHL1   H1A 1303   2.939   3.070  10.186  0.0602 -0.0968 -0.5975
   18CHL1   H1B 1304   3.110   3.030  10.183 -1.3139 -0.7115 -3.5981
   18CHL1    C2 1305   3.063   3.184  10.322  0.7606  0.0702  0.8031
   18CHL1   H2A 1306   3.064   3.104  10.399  0.8769 -0.7550 -0.0307
   18CHL1   H2B 1307   2.998   3.272  10.340  0.7169 -0.2653  2.3969
   18CHL1   C20 1308   2.892   3.019   9.412 -0.6735  0.1332  0.4454
   18CHL1   H20 1309   2.867   3.124   9.386 -0.6698 -0.4531 -2.2650
   18CHL1   C21 1310   2.768   2.955   9.478 -0.9610  0.4434  0.3256
   18CHL1  H21A 1311   2.815   2.870   9.531  0.7313  1.5830  0.7153
   18CHL1  H21B 1312   2.689   2.921   9.407 -0.4799  1.1760 -0.5709
   18CHL1  H21C 1313   2.728   3.025   9.554  3.8587  3.3016  0.6351
   18CHL1   C22 1314   2.927   2.935   9.287 -0.0149 -0.5371  0.3812
   18CHL1  H22A 1315   3.022   2.966   9.238  0.9625 -3.8380 -0.0213
   18CHL1  H22B 1316   2.949   2.829   9.309  1.9376 -0.3512 -0.4816
   18CHL1   C23 1317   2.814   2.945   9.182 -0.5225 -0.1280 -0.3007
   18CHL1  H23A 1318   2.725   2.883   9.207 -0.5360  0.0707  0.1512
   18CHL1  H23B 1319   2.780   3.051   9.176  0.9453  0.5862  2.4814
   18CHL1   C24 1320   2.866   2.898   9.048  0.3494 -0.4864  0.4728
   18CHL1  H24A 1321   2.973   2.919   9.026 -0.5617  0.2230 -4.2777
   18CHL1  H24B 1322   2.876   2.788   9.056 -1.9283 -0.7527  0.3323
   18CHL1   C25 1323   2.780   2.945   8.920  0.1621  0.3768  0.0157
   18CHL1   H25 1324   2.778   3.055   8.910  1.9027  0.5761  1.2884
   18CHL1   C26 1325   2.836   2.901   8.785  0.4060  0.4267 -0.5912
   18CHL1  H26A 1326   2.771   2.940   8.704  2.3734  0.9174 -1.9986
   18CHL1  H26B 1327   2.942   2.931   8.778  0.5979 -0.6385 -3.1110
   18CHL1  H26C 1328   2.827   2.790   8.779 -1.8470  0.4912  0.3108
   18CHL1   C27 1329   2.631   2.896   8.936  0.0050  0.6262 -0.0025
   18CHL1  H27A 1330   2.577   2.888   9.033 -0.5497  1.2937 -0.2512
   18CHL1  H27B 1331   2.568   2.956   8.868 -1.4969 -1.1867 -0.2914
   18CHL1  H27C 1332   2.633   2.791   8.900  3.3240  0.9360 -1.0198
   19CHL1    C3 1333   6.771   4.512  10.105  0.5829 -0.2955 -0.3902
   19CHL1    H3 1334   6.874   4.547  10.083  0.0503  1.5114 -0.1104
   19CHL1    O3 1335   6.734   4.558  10.232  0.2378  0.2055  0.1542
   19CHL1   H3' 1336   6.639   4.544  10.233  0.2728 -0.1713 -0.7397
   19CHL1    C4 1337   6.673   4.576  10.001 -0.9377 -0.6308 -0.4966
   19CHL1   H4A 1338   6.571   4.546  10.032 -0.9937  1.1018  1.1741
   19CHL1   H4B 1339   6.684   4.686  10.008 -2.7908 -0.4655  0.1289
   19CHL1    C5 1340   6.706   4.535   9.862  0.8062  0.4402  0.2124
   19CHL1    C6 1341   6.730   4.630   9.768 -0.7987  0.4341 -0.0446
   19CHL1    H6 1342   6.708   4.737   9.785  0.6724  1.0465 -1.6399
   19CHL1    C7 1343   6.758   4.594   9.621  0.1989  0.1229  0.0589
   19CHL1   H7A 1344   6.694   4.649   9.548 -0.1828  0.7470  0.8523
   19CHL1   H7B 1345   6.865   4.622   9.614  0.3415  0.6912  3.3249
   19CHL1    C8 1346   6.725   4.444   9.600  0.2683  0.2744 -0.3904
   19CHL1    H8 1347   6.615   4.430   9.590  0.3238  0.9281 -2.5371
   19CHL1   C14 1348   6.780   4.400   9.466 -0.0556 -0.5724 -0.6565
   19CHL1   H14 1349   6.891   4.400   9.475 -0.1667 -0.6433  0.9383
   19CHL1   C15 1350   6.745   4.480   9.338  0.4634 -0.6827 -0.4303
   19CHL1  H15A 1351   6.635   4.495   9.338  0.6792  1.2548  1.3186
   19CHL1  H15B 1352   6.801   4.575   9.327  0.7754 -1.1290 -3.6726
   19CHL1   C16 1353   6.793   4.386   9.226  0.1691  0.4562 -0.3836
   19CHL1  H16A 1354   6.718   4.377   9.145 -0.1371 -0.2310 -0.0306
   19CHL1  H16B 1355   6.889   4.430   9.193 -0.0358  0.8248 -0.4897
   19CHL1   C17 1356   6.811   4.249   9.293 -0.0252 -0.8012  0.3446
   19CHL1   H17 1357   6.920   4.252   9.317  0.9492 -0.1723 -3.4933
   19CHL1   C13 1358   6.744   4.254   9.430 -0.1828 -0.4485  0.1025
   19CHL1   C18 1359   6.590   4.231   9.435 -0.0887 -0.8893 -0.0521
   19CHL1  H18A 1360   6.560   4.125   9.417 -1.1168 -0.4257 -1.2173
   19CHL1  H18B 1361   6.554   4.248   9.538  0.5561  1.5754 -0.1931
   19CHL1  H18C 1362   6.538   4.304   9.370 -0.8738 -1.1227  0.3027
   19CHL1   C12 1363   6.821   4.166   9.528 -0.5456  0.3144  0.1648
   19CHL1  H12A 1364   6.801   4.059   9.508 -1.8558  0.6048 -0.1757
   19CHL1  H12B 1365   6.927   4.198   9.520 -0.3982 -0.2280 -0.0875
   19CHL1   C11 1366   6.774   4.195   9.675  0.0905  0.5335 -0.1310
   19CHL1  H11A 1367   6.671   4.155   9.688  0.8349 -1.3990  0.1226
   19CHL1  H11B 1368   6.846   4.146   9.744 -2.1453 -0.5987  1.5530
   19CHL1    C9 1369   6.783   4.345   9.706 -0.0936 -0.8673  0.0601
   19CHL1    H9 1370   6.890   4.376   9.711  0.6455 -3.3093  1.0369
   19CHL1   C10 1371   6.718   4.386   9.844  0.3291  0.1939 -0.1043
   19CHL1   C19 1372   6.566   4.337   9.854  0.4470  0.6255  0.6622
   19CHL1  H19A 1373   6.569   4.227   9.868 -1.0250  0.4895  0.0659
   19CHL1  H19B 1374   6.521   4.366   9.951 -0.0996 -2.4880  1.4515
   19CHL1  H19C 1375   6.514   4.372   9.763  0.5936 -0.6175  0.0759
   19CHL1    C1 1376   6.795   4.313   9.961 -0.1211  0.1922 -0.1995
   19CHL1   H1A 1377   6.780   4.203   9.954  0.8291  0.1449 -2.3806
   19CHL1   H1B 1378   6.903   4.320   9.934 -0.1115  1.0731  0.0541
   19CHL1    C2 1379   6.763   4.360  10.103 -0.4596  0.0715  0.8220
   19CHL1   H2A 1380   6.835   4.315  10.175 -0.4871 -1.4016 -0.0269
   19CHL1   H2B 1381   6.668   4.314  10.136  0.6594 -3.6128 -0.5969
   19CHL1   C20 1382   6.796   4.120   9.212 -0.8575  0.1397 -0.1581
   19CHL1   H20 1383   6.809   4.048   9.295  0.3976  0.7039  0.1628
   19CHL1   C21 1384   6.919   4.088   9.120  0.1601  0.7751  0.2760
   19CHL1  H21A 1385   6.927   3.978   9.106 -0.2380  0.5579  1.5796
   19CHL1  H21B 1386   7.017   4.113   9.165  0.6964 -1.6440  0.6081
   19CHL1  H21C 1387   6.911   4.144   9.025 -0.8112  1.0852  0.5269
   19CHL1   C22 1388   6.659   4.068   9.152 -0.2885 -1.0416 -0.4624
   19CHL1  H22A 1389   6.569   4.102   9.206 -0.5335 -1.8165 -0.3632
   19CHL1  H22B 1390   6.652   4.111   9.050  3.1252  1.3122  0.1098
   19CHL1   C23 1391   6.654   3.915   9.141  0.3716  0.0720  0.3881
   19CHL1  H23A 1392   6.747   3.872   9.101  0.0530 -0.6407  0.4069
   19CHL1  H23B 1393   6.647   3.880   9.246  0.0426  1.5540  0.8951
   19CHL1   C24 1394   6.532   3.856   9.062  0.4287 -0.2917 -0.3330
   19CHL1  H24A 1395   6.446   3.918   9.096  1.3221  0.1611  1.1723
   19CHL1  H24B 1396   6.551   3.877   8.955  1.0964  2.2856  0.2196
   19CHL1   C25 1397   6.505   3.711   9.096 -0.3242  0.0846  0.7345
   19CHL1   H25 1398   6.595   3.661   9.137  0.8569  0.7249 -0.9781
   19CHL1   C26 1399   6.414   3.709   9.216 -0.8701 -0.4667  0.2114
   19CHL1  H26A 1400   6.329   3.775   9.188 -0.4378  0.6894  1.5010
   19CHL1  H26B 1401   6.393   3.605   9.249  4.0420 -0.7033  3.7286
   19CHL1  H26C 1402   6.468   3.767   9.293 -0.7760 -1.3096  0.7889
   19CHL1   C27 1403   6.457   3.627   8.970  0.0235  0.3995 -0.8107
   19CHL1  H27A 1404   6.365   3.683   8.943 -0.7832 -0.1167  0.7421
   19CHL1  H27B 1405   6.534   3.644   8.892  2.0917  2.4201  1.5247
   19CHL1  H27C 1406   6.440   3.520   8.996 -1.5645  0.9461  0.6000
   20CHL1    C3 1407   1.417   6.150  10.324  0.0213 -0.3648  0.3736
   20CHL1    H3 1408   1.446   6.240  10.267  1.1545 -0.2991  1.0082
   20CHL1    O3 1409   1.459   6.173  10.456 -0.0236  0.3987 -0.2154
   20CHL1   H3' 1410   1.438   6.096  10.510 -0.7170  0.7235 -0.0101
   20CHL1    C4 1411   1.275   6.105  10.296  0.4462  0.8389 -0.5880
   20CHL1   H4A 1412   1.253   6.005  10.339  0.1659  0.4060 -1.7026
   20CHL1   H4B 1413   1.207   6.172  10.353 -2.8154 -3.1547  0.7327
   20CHL1    C5 1414   1.248   6.117  10.147 -0.3057 -0.2027 -0.0351
   20CHL1    C6 1415   1.176   6.205  10.081 -0.5613 -0.2627 -0.2751
   20CHL1    H6 1416   1.118   6.280  10.137 -1.5399 -0.6358 -0.7665
   20CHL1    C7 1417   1.142   6.187   9.931 -0.3472 -0.7057  0.0208
   20CHL1   H7A 1418   1.032   6.187   9.912 -0.2881 -1.7846 -0.3948
   20CHL1   H7B 1419   1.165   6.282   9.878 -0.1630 -0.8723 -0.1935
   20CHL1    C8 1420   1.200   6.067   9.853  0.9693  0.1521  0.3302
   20CHL1    H8 1421   1.114   5.998   9.868  0.1817  1.0491  0.0898
   20CHL1   C14 1422   1.211   6.097   9.700  0.2644 -0.0282  0.1872
   20CHL1   H14 1423   1.280   6.184   9.695  2.0530 -1.4084 -0.7246
   20CHL1   C15 1424   1.077   6.121   9.626 -0.0738 -0.2085  0.1824
   20CHL1  H15A 1425   1.005   6.041   9.654  0.2924 -0.8271 -0.6018
   20CHL1  H15B 1426   1.059   6.225   9.659 -0.0132 -0.6366  1.6259
   20CHL1   C16 1427   1.122   6.114   9.479  0.4511 -0.4057  0.4680
   20CHL1  H16A 1428   1.050   6.054   9.418  0.0919  0.1215  0.3651
   20CHL1  H16B 1429   1.137   6.209   9.424  2.5543 -0.2110  1.2893
   20CHL1   C17 1430   1.257   6.045   9.483 -0.1393  0.1930  0.2541
   20CHL1   H17 1431   1.337   6.122   9.486 -0.3700  0.4270  0.4026
   20CHL1   C13 1432   1.274   5.980   9.624 -0.3420 -0.4812  0.2198
   20CHL1   C18 1433   1.190   5.849   9.635  0.3853 -0.3428  0.5409
   20CHL1  H18A 1434   1.249   5.760   9.606  1.7446  0.2151  1.4987
   20CHL1  H18B 1435   1.157   5.829   9.740  1.7878 -2.6284  0.6076
   20CHL1  H18C 1436   1.093   5.853   9.581  0.3577 -0.7544  0.5532
   20CHL1   C12 1437   1.421   5.965   9.678 -0.0797 -0.6868  0.0643
   20CHL1  H12A 1438   1.468   5.883   9.620  0.7904  0.3984 -0.8076
   20CHL1  H12B 1439   1.475   6.061   9.665  1.6312 -1.5522  0.4690
   20CHL1   C11 1440   1.418   5.931   9.822 -0.1755 -0.5871 -0.5593
   20CHL1  H11A 1441   1.374   5.831   9.840  0.8302 -0.9479 -0.0433
   20CHL1  H11B 1442   1.519   5.930   9.869 -0.4123  0.8794  0.0513
   20CHL1    C9 1443   1.335   6.031   9.912 -0.2536  0.6790  0.7068
   20CHL1    H9 1444   1.399   6.121   9.899  1.3256 -0.6293 -1.3356
   20CHL1   C10 1445   1.337   6.018  10.067 -0.2951 -0.4787 -0.3392
   20CHL1   C19 1446   1.277   5.879  10.089 -0.4802 -0.7184 -0.2060
   20CHL1  H19A 1447   1.269   5.842  10.194 -1.6764  0.9359  0.3330
   20CHL1  H19B 1448   1.172   5.882  10.054 -2.0798  0.6944  4.0133
   20CHL1  H19C 1449   1.341   5.804  10.039  0.4497 -0.4858  0.5872
   20CHL1    C1 1450   1.484   6.019  10.116  0.2198 -0.6763 -0.4808
   20CHL1   H1A 1451   1.530   5.925  10.080 -0.1630 -1.1293  0.1823
   20CHL1   H1B 1452   1.531   6.106  10.065  0.3462  0.4474  1.4533
   20CHL1    C2 1453   1.498   6.034  10.270 -0.4233  0.3571  0.4333
   20CHL1   H2A 1454   1.607   6.042  10.288 -0.4204  2.4569 -0.2598
   20CHL1   H2B 1455   1.466   5.937  10.313  1.9817 -0.1863  1.1317
   20CHL1   C20 1456   1.268   5.954   9.363 -0.3294  0.2401  0.1221
   20CHL1   H20 1457   1.179   5.888   9.369 -0.3892  0.3664  0.6908
   20CHL1   C21 1458   1.400   5.874   9.362 -0.9987 -0.7619  0.1730
   20CHL1  H21A 1459   1.401   5.794   9.439 -0.4665 -0.1525  0.8148
   20CHL1  H21B 1460   1.486   5.940   9.389  0.5221 -1.9779 -1.4231
   20CHL1  H21C 1461   1.424   5.829   9.263  0.0829  1.4113 -0.6253
   20CHL1   C22 1462   1.257   6.037   9.230 -0.1966  0.0730  0.5236
   20CHL1  H22A 1463   1.262   5.970   9.142  1.8335  0.3434  0.3722
   20CHL1  H22B 1464   1.156   6.083   9.227 -0.0033  0.6603  2.0756
   20CHL1   C23 1465   1.348   6.155   9.207 -0.3762 -0.1548  0.5920
   20CHL1  H23A 1466   1.334   6.234   9.284 -0.2443 -0.3503  0.8160
   20CHL1  H23B 1467   1.448   6.119   9.236 -0.3161  0.4314  1.1418
   20CHL1   C24 1468   1.355   6.188   9.058 -0.0282 -0.3316 -0.1021
   20CHL1  H24A 1469   1.434   6.260   9.027  1.7101 -1.0886  2.2660
   20CHL1  H24B 1470   1.389   6.095   9.007 -2.8467 -0.5668 -1.7475
   20CHL1   C25 1471   1.217   6.224   9.007  0.4503 -0.2015  0.1477
   20CHL1   H25 1472   1.138   6.151   9.036  0.1483  0.3611  0.7494
   20CHL1   C26 1473   1.175   6.357   9.072 -0.5829  0.0397 -0.2417
   20CHL1  H26A 1474   1.258   6.430   9.080  0.5481 -1.1534 -0.6239
   20CHL1  H26B 1475   1.087   6.404   9.023 -2.4503 -2.6718  0.2830
   20CHL1  H26C 1476   1.141   6.340   9.176 -1.1797  1.9114 -0.0987
   20CHL1   C27 1477   1.214   6.251   8.853  0.6620 -0.4220  0.5998
   20CHL1  H27A 1478   1.112   6.267   8.814  0.8326  0.5437  0.5213
   20CHL1  H27B 1479   1.270   6.344   8.826 -1.5604  0.6061 -0.7624
   20CHL1  H27C 1480   1.266   6.165   8.806 -2.1668 -2.1711  0.4680
   21CHL1    C3 1481   2.139   3.251  10.173  0.0725  0.1610  0.2976
   21CHL1    H3 1482   2.178   3.354  10.164  0.8449 -0.2310 -0.9441
   21CHL1    O3 1483   2.138   3.198  10.307 -0.2868  0.2626  0.6002
   21CHL1   H3' 1484   2.104   3.108  10.303  0.6225 -0.2117  2.2377
   21CHL1    C4 1485   1.999   3.250  10.110 -0.1373 -0.7469 -0.4836
   21CHL1   H4A 1486   1.943   3.157  10.135  1.1421 -0.7799  2.7900
   21CHL1   H4B 1487   1.944   3.320  10.177 -0.8042 -2.8895  1.3386
   21CHL1    C5 1488   1.965   3.295   9.971 -1.0829 -0.2869 -0.5790
   21CHL1    C6 1489   1.884   3.401   9.936 -0.1280  0.6075  0.6635
   21CHL1    H6 1490   1.820   3.456  10.006 -1.7607 -0.1177 -0.1847
   21CHL1    C7 1491   1.859   3.427   9.793  0.0340  0.2671 -0.0522
   21CHL1   H7A 1492   1.750   3.445   9.778 -0.0836  1.0062  1.4894
   21CHL1   H7B 1493   1.901   3.527   9.770 -1.1095  0.8256  0.2048
   21CHL1    C8 1494   1.918   3.326   9.688 -0.3292 -0.5317 -0.6475
   21CHL1    H8 1495   1.845   3.244   9.673 -0.7716 -0.7588  2.1895
   21CHL1   C14 1496   1.937   3.394   9.558 -0.0773  0.2445 -0.3353
   21CHL1   H14 1497   2.012   3.473   9.580 -1.2707  1.4230 -0.3720
   21CHL1   C15 1498   1.823   3.488   9.505  0.1130  0.1122 -0.0883
   21CHL1  H15A 1499   1.724   3.442   9.530  0.6033  0.1822  2.2297
   21CHL1  H15B 1500   1.818   3.581   9.566  3.1015  0.4576 -0.2572
   21CHL1   C16 1501   1.859   3.511   9.358 -0.1599 -0.6128  0.1854
   21CHL1  H16A 1502   1.767   3.473   9.309  0.4277 -1.8758  0.0235
   21CHL1  H16B 1503   1.873   3.621   9.348 -0.5796 -0.4352  1.4066
   21CHL1   C17 1504   1.974   3.413   9.313  0.3520 -0.0767 -0.4125
   21CHL1   H17 1505   2.071   3.467   9.312  0.2162  0.2991 -3.1461
   21CHL1   C13 1506   1.979   3.312   9.435 -0.2315  0.6442  0.1171
   21CHL1   C18 1507   1.886   3.194   9.414 -0.1239  0.0943 -0.0347
   21CHL1  H18A 1508   1.787   3.227   9.375  0.1539 -0.2478 -1.0436
   21CHL1  H18B 1509   1.936   3.132   9.337 -1.4451 -1.2231  0.1188
   21CHL1  H18C 1510   1.858   3.134   9.503 -2.7118  0.3105 -0.6291
   21CHL1   C12 1511   2.116   3.256   9.470  0.7228 -0.1700 -0.1828
   21CHL1  H12A 1512   2.146   3.177   9.398  0.6070  1.2831 -1.9030
   21CHL1  H12B 1513   2.197   3.333   9.472  0.4094  0.1649 -0.2706
   21CHL1   C11 1514   2.112   3.188   9.613 -0.0567 -0.1932  0.1396
   21CHL1  H11A 1515   2.048   3.097   9.603  1.6800 -1.2947 -1.7128
   21CHL1  H11B 1516   2.208   3.137   9.638  1.2546  2.2782  0.3996
   21CHL1    C9 1517   2.054   3.273   9.732  0.7269 -0.2331 -0.2021
   21CHL1    H9 1518   2.105   3.371   9.736 -2.6204  1.6142  0.4537
   21CHL1   C10 1519   2.057   3.208   9.873 -1.0334  0.0202  0.6375
   21CHL1   C19 1520   2.004   3.065   9.866  0.5170 -0.1472  0.1005
   21CHL1  H19A 1521   1.903   3.080   9.822  1.2825  2.0516 -1.0509
   21CHL1  H19B 1522   2.066   2.998   9.802 -0.2289  0.7255 -1.6181
   21CHL1  H19C 1523   1.987   3.017   9.964  2.0584  0.0426  0.4880
   21CHL1    C1 1524   2.210   3.203   9.926 -0.1763  0.0607  0.1027
   21CHL1   H1A 1525   2.256   3.126   9.861 -1.4094 -0.2961 -0.3767
   21CHL1   H1B 1526   2.262   3.300   9.913  0.6652 -0.5253 -1.0445
   21CHL1    C2 1527   2.219   3.154  10.079  0.3173 -0.1611  0.5076
   21CHL1   H2A 1528   2.327   3.142  10.103  1.1795  0.4721 -2.6327
   21CHL1   H2B 1529   2.169   3.055  10.084  0.6252 -0.2864  1.1933
   21CHL1   C20 1530   1.953   3.355   9.176 -0.8923  0.7824  0.1232
   21CHL1   H20 1531   1.872   3.280   9.171  0.0757 -0.2742 -0.2615
   21CHL1   C21 1532   2.086   3.280   9.144  0.2465  0.0397 -0.0523
   21CHL1  H21A 1533   2.108   3.200   9.217  0.5096 -1.5065 -1.7729
   21CHL1  H21B 1534   2.174   3.346   9.154  0.2744 -0.0622  0.4123
   21CHL1  H21C 1535   2.078   3.224   9.049 -0.7228  1.1240 -0.6368
   21CHL1   C22 1536   1.932   3.472   9.065  0.2371  0.1713 -0.5442
   21CHL1  H22A 1537   1.940   3.413   8.971  1.3065  0.2623 -0.5271
   21CHL1  H22B 1538   1.833   3.518   9.079  0.5469  0.6242  0.2229
   21CHL1   C23 1539   2.032   3.586   9.065 -0.6126  0.2436 -0.1122
   21CHL1  H23A 1540   2.039   3.662   9.146  1.3118 -1.0721  1.0236
   21CHL1  H23B 1541   2.135   3.544   9.063 -0.2551  1.0348  0.6035
   21CHL1   C24 1542   2.018   3.679   8.943  0.0969 -0.4075  0.2025
   21CHL1  H24A 1543   1.977   3.626   8.855 -1.8804  0.6108  0.4514
   21CHL1  H24B 1544   1.946   3.760   8.970 -1.0236 -1.2453 -0.2157
   21CHL1   C25 1545   2.140   3.742   8.881 -0.4766  0.1584 -0.9721
   21CHL1   H25 1546   2.208   3.802   8.945 -1.2817  0.9035 -0.7999
   21CHL1   C26 1547   2.229   3.632   8.818  0.0174 -0.4386 -0.0014
   21CHL1  H26A 1548   2.302   3.682   8.751 -1.5417 -0.1833 -1.5897
   21CHL1  H26B 1549   2.288   3.592   8.903 -1.6609  1.7490  2.3808
   21CHL1  H26C 1550   2.170   3.555   8.764  0.6557 -0.7637 -0.2400
   21CHL1   C27 1551   2.099   3.841   8.773  0.3676  0.2990 -0.7030
   21CHL1  H27A 1552   2.023   3.911   8.814 -0.8348 -1.7561  0.7700
   21CHL1  H27B 1553   2.181   3.905   8.733  1.5965 -0.3976  0.5954
   21CHL1  H27C 1554   2.059   3.782   8.689  2.0439 -0.0477 -1.2937
   22CHL1    C3 1555   0.839   2.139  10.040  0.3083 -0.0537  0.3917
   22CHL1    H3 1556   0.919   2.064  10.022  1.1055  0.9577 -0.4434
   22CHL1    O3 1557   0.811   2.127  10.177 -0.6693  0.0057 -0.2214
   22CHL1   H3' 1558   0.791   2.034  10.188 -0.9102 -0.1437 -1.6698
   22CHL1    C4 1559   0.892   2.280  10.005 -0.2316 -0.1147 -0.3633
   22CHL1   H4A 1560   0.808   2.346  10.034 -0.7814 -1.0229  0.1428
   22CHL1   H4B 1561   0.979   2.299  10.072 -0.3190 -0.0036 -0.2808
   22CHL1    C5 1562   0.922   2.301   9.863  0.3646  0.1669  0.2441
   22CHL1    C6 1563   1.043   2.336   9.820 -1.0214  0.9507 -0.8455
   22CHL1    H6 1564   1.124   2.352   9.892  0.7078 -0.8746 -2.2745
   22CHL1    C7 1565   1.067   2.375   9.680  0.1417  0.4339  0.6366
   22CHL1   H7A 1566   1.124   2.471   9.676  1.5693 -0.4188 -1.1507
   22CHL1   H7B 1567   1.133   2.310   9.620 -1.0435  0.5252 -0.8245
   22CHL1    C8 1568   0.934   2.376   9.586 -0.4265 -0.5386 -0.4931
   22CHL1    H8 1569   0.880   2.467   9.619 -0.4456 -0.7831  0.1677
   22CHL1   C14 1570   0.973   2.381   9.441 -0.2383  0.4849 -0.4188
   22CHL1   H14 1571   1.029   2.287   9.423 -1.7409 -0.8729  1.5599
   22CHL1   C15 1572   1.073   2.494   9.397  0.1243  0.3879  0.3221
   22CHL1  H15A 1573   1.038   2.598   9.418  0.8236  0.7699 -0.3642
   22CHL1  H15B 1574   1.176   2.473   9.433 -0.2217 -1.4386  0.3161
   22CHL1   C16 1575   1.061   2.493   9.244  0.0033 -0.3742  0.1714
   22CHL1  H16A 1576   1.054   2.600   9.213 -2.4081 -0.7307 -0.7695
   22CHL1  H16B 1577   1.148   2.443   9.197 -0.8697  0.3023 -2.2945
   22CHL1   C17 1578   0.930   2.410   9.211 -0.0492  0.3290  0.2397
   22CHL1   H17 1579   0.967   2.306   9.200 -0.8761 -0.0427  0.8298
   22CHL1   C13 1580   0.857   2.386   9.344 -0.7758 -0.3047  0.3609
   22CHL1   C18 1581   0.768   2.511   9.368 -0.1324  0.4059 -0.1875
   22CHL1  H18A 1582   0.737   2.517   9.474 -2.5060 -3.5441 -0.4805
   22CHL1  H18B 1583   0.814   2.605   9.330  1.4784 -0.1486  0.3205
   22CHL1  H18C 1584   0.670   2.512   9.315  0.3042 -0.6460 -1.0708
   22CHL1   C12 1585   0.779   2.255   9.361  0.3867 -0.0450  0.0131
   22CHL1  H12A 1586   0.689   2.253   9.297  1.0145 -0.9616 -0.8675
   22CHL1  H12B 1587   0.843   2.167   9.340 -1.5580 -1.9085  1.5260
   22CHL1   C11 1588   0.744   2.219   9.506  0.5520 -0.1208  0.2768
   22CHL1  H11A 1589   0.652   2.278   9.528  1.4346  1.0752  0.9053
   22CHL1  H11B 1590   0.706   2.115   9.513 -0.3583  0.2560  1.2464
   22CHL1    C9 1591   0.849   2.257   9.614  0.0948 -0.2876 -0.6358
   22CHL1    H9 1592   0.915   2.169   9.598  0.2726  0.2459 -3.2691
   22CHL1   C10 1593   0.801   2.264   9.763  0.0818 -0.5066 -0.5436
   22CHL1   C19 1594   0.680   2.365   9.777  0.2718  0.3203  0.1085
   22CHL1  H19A 1595   0.589   2.309   9.748  1.1737 -0.9777 -0.3264
   22CHL1  H19B 1596   0.656   2.393   9.882 -1.0136 -1.4073  0.3152
   22CHL1  H19C 1597   0.690   2.463   9.726 -0.6849  1.0100  1.1807
   22CHL1    C1 1598   0.750   2.120   9.813  0.2838 -0.7827 -0.4026
   22CHL1   H1A 1599   0.666   2.093   9.745 -0.9399 -0.0395  0.7630
   22CHL1   H1B 1600   0.832   2.062   9.767 -2.2032 -3.1562 -2.1443
   22CHL1    C2 1601   0.725   2.099   9.959  0.0760 -0.2768 -0.2781
   22CHL1   H2A 1602   0.701   1.992   9.979  0.3574 -0.0069  1.6761
   22CHL1   H2B 1603   0.634   2.160   9.975  1.6817  2.4552 -1.0242
   22CHL1   C20 1604   0.857   2.465   9.083 -1.0624 -0.1718  0.5658
   22CHL1   H20 1605   0.815   2.565   9.106 -0.9330 -0.3152  1.4691
   22CHL1   C21 1606   0.756   2.367   9.030 -1.1297  0.3651 -0.3791
   22CHL1  H21A 1607   0.713   2.406   8.935  0.7463  3.3942 -0.1219
   22CHL1  H21B 1608   0.663   2.358   9.090 -0.5318  2.5810  0.9847
   22CHL1  H21C 1609   0.810   2.271   9.013 -0.2245  0.7930  0.0183
   22CHL1   C22 1610   0.971   2.490   8.972  0.0457  0.2980 -0.3130
   22CHL1  H22A 1611   0.909   2.504   8.881 -2.5176 -3.5178  0.6141
   22CHL1  H22B 1612   1.033   2.580   8.992 -0.9257  0.8146  0.4354
   22CHL1   C23 1613   1.057   2.371   8.929 -0.0775 -0.0516 -0.0321
   22CHL1  H23A 1614   1.112   2.315   9.007  0.7525  1.0572  0.2031
   22CHL1  H23B 1615   0.994   2.300   8.871 -0.2435  0.7597 -0.8820
   22CHL1   C24 1616   1.157   2.417   8.818 -0.5548  0.0972 -0.5093
   22CHL1  H24A 1617   1.210   2.500   8.869  0.0364 -0.2366 -0.5737
   22CHL1  H24B 1618   1.231   2.335   8.806 -1.7069 -1.2145  0.7652
   22CHL1   C25 1619   1.122   2.483   8.688 -1.1252  0.5066 -0.4602
   22CHL1   H25 1620   1.055   2.570   8.706 -0.3397  0.8524  0.9485
   22CHL1   C26 1621   1.248   2.526   8.619 -0.2203  0.1318 -0.1984
   22CHL1  H26A 1622   1.217   2.577   8.526 -0.2060 -0.1805 -0.3760
   22CHL1  H26B 1623   1.307   2.595   8.683 -0.7120  1.1140 -0.7778
   22CHL1  H26C 1624   1.308   2.436   8.592 -2.0017 -0.5223 -2.3200
   22CHL1   C27 1625   1.061   2.385   8.589  0.5017  0.1794  0.1788
   22CHL1  H27A 1626   1.129   2.300   8.566  0.8587  0.8136 -1.2376
   22CHL1  H27B 1627   0.962   2.346   8.623  0.9248 -2.1133 -1.0578
   22CHL1  H27C 1628   1.037   2.438   8.494 -2.9546  1.1980  1.4706
   23CHL1    C3 1629   5.590   5.645  10.293 -0.0833 -0.1697 -0.2615
   23CHL1    H3 1630   5.528   5.724  10.245  1.1548  1.1019  0.1820
   23CHL1    O3 1631   5.612   5.693  10.427 -0.6367 -0.0657  0.2342
   23CHL1   H3' 1632   5.694   5.653  10.456 -0.9619  0.2502  1.6487
   23CHL1    C4 1633   5.518   5.511  10.300 -0.4486 -0.3856 -0.0548
   23CHL1   H4A 1634   5.591   5.434  10.333 -1.9383 -1.4577  0.8730
   23CHL1   H4B 1635   5.432   5.493  10.368 -0.5528 -0.4619 -0.2075
   23CHL1    C5 1636   5.484   5.467  10.161 -0.0436 -0.6255 -0.0083
   23CHL1    C6 1637   5.366   5.432  10.124  0.9259 -0.1367 -0.1082
   23CHL1    H6 1638   5.287   5.444  10.200  0.9935 -2.4103  0.3942
   23CHL1    C7 1639   5.320   5.369   9.996  1.2701  0.3472 -0.1368
   23CHL1   H7A 1640   5.265   5.273  10.009 -0.3660  1.0162 -1.6245
   23CHL1   H7B 1641   5.247   5.435   9.943 -2.2266  0.4369  4.2281
   23CHL1    C8 1642   5.444   5.346   9.901 -0.4189  0.3700 -0.0127
   23CHL1    H8 1643   5.489   5.248   9.928 -0.3663  0.5422  0.5383
   23CHL1   C14 1644   5.392   5.320   9.755 -0.5604 -0.1676 -0.5145
   23CHL1   H14 1645   5.347   5.420   9.736 -1.1150  0.3908  3.0152
   23CHL1   C15 1646   5.288   5.209   9.720  0.1342 -0.2597 -0.0336
   23CHL1  H15A 1647   5.314   5.113   9.770 -1.0111 -0.0178  1.0766
   23CHL1  H15B 1648   5.190   5.233   9.768 -0.5787 -1.3842 -0.8751
   23CHL1   C16 1649   5.281   5.210   9.571  0.6390 -0.3169 -1.0030
   23CHL1  H16A 1650   5.280   5.112   9.520 -0.1665 -1.5561  1.2606
   23CHL1  H16B 1651   5.186   5.262   9.544 -0.1099 -1.3987 -0.5095
   23CHL1   C17 1652   5.404   5.295   9.521  0.1873 -0.2264  0.5132
   23CHL1   H17 1653   5.356   5.395   9.509  1.8469  0.7204  1.4029
   23CHL1   C13 1654   5.499   5.304   9.642  0.6590  0.6900 -0.0271
   23CHL1   C18 1655   5.573   5.176   9.655  0.3665 -0.6949  0.2423
   23CHL1  H18A 1656   5.498   5.096   9.674 -0.2934 -0.4857 -1.3158
   23CHL1  H18B 1657   5.625   5.148   9.561  1.6457  1.6649  0.1593
   23CHL1  H18C 1658   5.654   5.175   9.731 -1.2563 -0.7729  2.0455
   23CHL1   C12 1659   5.601   5.425   9.655  0.0906  0.0566  0.1435
   23CHL1  H12A 1660   5.678   5.410   9.577 -0.0240  1.7898 -0.3522
   23CHL1  H12B 1661   5.540   5.513   9.625 -0.3064  0.6911  2.5783
   23CHL1   C11 1662   5.663   5.438   9.800  0.5460 -0.1150 -0.4181
   23CHL1  H11A 1663   5.717   5.342   9.815  0.3982 -0.1660 -0.2031
   23CHL1  H11B 1664   5.743   5.515   9.801 -0.8278  1.3663 -0.4373
   23CHL1    C9 1665   5.550   5.451   9.912 -0.6115 -0.1214  0.1535
   23CHL1    H9 1666   5.506   5.552   9.898  0.2295  0.4354  1.2829
   23CHL1   C10 1667   5.604   5.462  10.061 -0.1806  0.3039  0.5252
   23CHL1   C19 1668   5.679   5.326  10.095  0.0190 -0.6733 -0.4184
   23CHL1  H19A 1669   5.736   5.338  10.189 -1.6285  2.2692  0.3314
   23CHL1  H19B 1670   5.611   5.239  10.101  0.2835 -0.8308  0.4694
   23CHL1  H19C 1671   5.763   5.321  10.021  0.6327  0.8665  0.1189
   23CHL1    C1 1672   5.705   5.579  10.074  0.0268 -0.4222  0.3174
   23CHL1   H1A 1673   5.806   5.552  10.039  0.2976  0.7031  0.1894
   23CHL1   H1B 1674   5.671   5.668  10.017  0.9663 -0.2754 -0.0163
   23CHL1    C2 1675   5.720   5.629  10.219 -0.6189  0.0838 -0.0292
   23CHL1   H2A 1676   5.787   5.718  10.227  0.2873 -0.7898  4.4256
   23CHL1   H2B 1677   5.777   5.551  10.274 -3.2193 -1.4435  0.6569
   23CHL1   C20 1678   5.457   5.247   9.382 -0.2625 -0.2478  0.2260
   23CHL1   H20 1679   5.480   5.140   9.396  2.0048  0.3851  1.9166
   23CHL1   C21 1680   5.587   5.322   9.351  0.0063 -0.4470  0.0109
   23CHL1  H21A 1681   5.578   5.432   9.361  0.0290 -0.2970 -1.3575
   23CHL1  H21B 1682   5.620   5.295   9.248 -0.1270 -1.7312  0.2879
   23CHL1  H21C 1683   5.667   5.287   9.420 -1.3547 -2.6581  0.5813
   23CHL1   C22 1684   5.357   5.262   9.263 -0.1539 -0.4189  0.5032
   23CHL1  H22A 1685   5.267   5.213   9.305  0.2332  0.3475  2.3264
   23CHL1  H22B 1686   5.323   5.366   9.247 -3.1555 -1.1536  1.4776
   23CHL1   C23 1687   5.405   5.204   9.128 -0.0609  0.1109 -0.4596
   23CHL1  H23A 1688   5.493   5.260   9.091 -0.2135  0.9129  0.3512
   23CHL1  H23B 1689   5.435   5.103   9.162 -1.2552  0.7332  2.8308
   23CHL1   C24 1690   5.289   5.213   9.019  0.2730 -0.2554 -0.3617
   23CHL1  H24A 1691   5.205   5.149   9.054  1.0296 -0.6013  0.8683
   23CHL1  H24B 1692   5.261   5.321   9.021  2.1865  0.2759 -0.2070
   23CHL1   C25 1693   5.327   5.165   8.881  1.4780  0.3731 -0.0806
   23CHL1   H25 1694   5.328   5.055   8.897  1.9923  0.4478  0.4159
   23CHL1   C26 1695   5.214   5.221   8.784 -0.6359  0.5216  0.1279
   23CHL1  H26A 1696   5.120   5.186   8.832 -1.7498 -0.6597 -2.7400
   23CHL1  H26B 1697   5.222   5.332   8.782 -0.3178  0.5459  1.5634
   23CHL1  H26C 1698   5.229   5.181   8.682  1.8619  0.5599  0.4077
   23CHL1   C27 1699   5.467   5.210   8.831  0.0220 -0.2311 -0.1550
   23CHL1  H27A 1700   5.485   5.167   8.730 -0.2596  2.3856 -1.3944
   23CHL1  H27B 1701   5.485   5.320   8.830  2.3841 -0.5629 -0.6290
   23CHL1  H27C 1702   5.535   5.160   8.903  0.8990  0.7497 -0.2640
   24CHL1    C3 1703   6.423   5.899  10.091 -0.2178 -0.2522 -0.4260
   24CHL1    H3 1704   6.534   5.894  10.083 -0.1172  0.0501  0.6345
   24CHL1    O3 1705   6.382   5.900  10.224 -0.2949 -1.0259 -0.0288
   24CHL1   H3' 1706   6.377   5.995  10.240  1.0680 -0.4657 -2.4277
   24CHL1    C4 1707   6.369   6.032  10.024 -0.0122  0.0288  0.1203
   24CHL1   H4A 1708   6.262   6.025  10.052 -0.0864  0.3476 -0.0750
   24CHL1   H4B 1709   6.412   6.115  10.085 -1.3735  0.9094 -0.0753
   24CHL1    C5 1710   6.394   6.050   9.878 -0.6647 -0.0083  0.0430
   24CHL1    C6 1711   6.457   6.157   9.827  0.4524  0.7992  0.5808
   24CHL1    H6 1712   6.481   6.234   9.902 -0.7588  0.5673  1.2419
   24CHL1    C7 1713   6.481   6.173   9.676 -0.4876  0.0991 -0.0095
   24CHL1   H7A 1714   6.451   6.275   9.644  0.6251 -0.2373 -2.3995
   24CHL1   H7B 1715   6.587   6.164   9.646 -0.7572  3.5023 -2.6257
   24CHL1    C8 1716   6.408   6.065   9.588 -0.6775  0.2216  0.0021
   24CHL1    H8 1717   6.304   6.103   9.580 -1.2323 -0.4946  2.5503
   24CHL1   C14 1718   6.468   6.053   9.450  0.3168  0.1753  0.2291
   24CHL1   H14 1719   6.567   6.007   9.470 -0.0530 -0.0789  1.5554
   24CHL1   C15 1720   6.486   6.186   9.368  0.1644 -0.4631 -0.5855
   24CHL1  H15A 1721   6.394   6.246   9.379 -0.5528 -1.3692 -1.4386
   24CHL1  H15B 1722   6.574   6.239   9.411 -1.0580 -0.5323  2.1860
   24CHL1   C16 1723   6.511   6.134   9.221 -0.0013  0.0791 -0.4670
   24CHL1  H16A 1724   6.438   6.182   9.153  0.7191  0.4966 -0.9465
   24CHL1  H16B 1725   6.615   6.153   9.189  1.7768 -3.4472  2.4426
   24CHL1   C17 1726   6.482   5.981   9.222  0.1406 -0.1548 -0.0823
   24CHL1   H17 1727   6.582   5.936   9.240 -0.1366 -0.4653  0.7094
   24CHL1   C13 1728   6.405   5.948   9.348  0.2718 -0.2911  0.5344
   24CHL1   C18 1729   6.260   5.982   9.330 -0.1744 -0.6692  0.6721
   24CHL1  H18A 1730   6.220   5.918   9.249 -1.8785 -0.0296  0.9710
   24CHL1  H18B 1731   6.189   5.975   9.415 -1.9104  1.9171 -0.4325
   24CHL1  H18C 1732   6.230   6.084   9.296  1.3533 -0.3707  0.1598
   24CHL1   C12 1733   6.421   5.811   9.419 -0.1408  0.0971  0.9267
   24CHL1  H12A 1734   6.389   5.727   9.355  1.1836  1.1327 -1.2045
   24CHL1  H12B 1735   6.532   5.802   9.415 -0.2638 -0.9751 -1.1515
   24CHL1   C11 1736   6.357   5.810   9.562  0.0376 -0.2595 -0.2082
   24CHL1  H11A 1737   6.248   5.823   9.545  0.5260  0.5311 -3.5108
   24CHL1  H11B 1738   6.370   5.709   9.607  0.2584 -0.1910 -0.1154
   24CHL1    C9 1739   6.403   5.927   9.658 -0.6841  0.0530 -0.0283
   24CHL1    H9 1740   6.508   5.898   9.676 -1.4697 -0.2822  5.6735
   24CHL1   C10 1741   6.343   5.927   9.801  0.4689  0.2278  0.2421
   24CHL1   C19 1742   6.196   5.916   9.793  0.1519 -0.0733  0.2474
   24CHL1  H19A 1743   6.159   5.989   9.718  0.3883  0.2855  0.4750
   24CHL1  H19B 1744   6.155   5.823   9.748  0.0989  0.2695 -0.4131
   24CHL1  H19C 1745   6.148   5.944   9.889 -0.7477  1.9535 -0.7463
   24CHL1    C1 1746   6.388   5.794   9.864  0.4566  0.6514 -0.9469
   24CHL1   H1A 1747   6.340   5.711   9.809  1.2586 -0.3978 -0.0955
   24CHL1   H1B 1748   6.495   5.767   9.847 -0.0769 -0.2547 -3.2688
   24CHL1    C2 1749   6.355   5.779  10.017 -0.3348  0.9095 -0.4404
   24CHL1   H2A 1750   6.413   5.695  10.059  1.0244  0.1436 -3.5766
   24CHL1   H2B 1751   6.245   5.778  10.031  0.0251 -0.0660  3.3595
   24CHL1   C20 1752   6.439   5.924   9.085 -0.4409  0.0417  0.2114
   24CHL1   H20 1753   6.337   5.962   9.064 -0.2552  0.8739  0.7663
   24CHL1   C21 1754   6.444   5.773   9.083  0.1274 -0.0353 -0.1946
   24CHL1  H21A 1755   6.420   5.729   8.984 -0.4189 -2.1463  0.8160
   24CHL1  H21B 1756   6.363   5.732   9.147 -0.2410 -1.8605 -1.7101
   24CHL1  H21C 1757   6.535   5.734   9.132 -0.2679  0.1964  0.7380
   24CHL1   C22 1758   6.515   5.975   8.962 -0.2437 -0.3736  0.4863
   24CHL1  H22A 1759   6.504   6.085   8.956  0.0245 -0.3678  0.0838
   24CHL1  H22B 1760   6.619   5.944   8.987 -0.4019  0.3341  2.1712
   24CHL1   C23 1761   6.473   5.912   8.825  0.8035 -0.5506  0.3071
   24CHL1  H23A 1762   6.543   5.956   8.751  1.7417  0.1581  1.5792
   24CHL1  H23B 1763   6.480   5.802   8.813  0.2741 -0.6473  0.8630
   24CHL1   C24 1764   6.333   5.958   8.790  0.0371  0.2799 -0.0566
   24CHL1  H24A 1765   6.263   5.912   8.864 -0.2971 -0.3024 -0.7210
   24CHL1  H24B 1766   6.320   6.068   8.800  2.2403  0.5028  0.8014
   24CHL1   C25 1767   6.285   5.911   8.651 -0.4456  1.2792 -0.4841
   24CHL1   H25 1768   6.175   5.930   8.643 -0.9575 -1.4403 -0.9422
   24CHL1   C26 1769   6.359   5.989   8.541 -0.2703  0.1674 -0.0029
   24CHL1  H26A 1770   6.468   5.968   8.538 -0.5478 -1.2617 -1.1000
   24CHL1  H26B 1771   6.329   5.959   8.438  2.5599  0.7495 -1.1034
   24CHL1  H26C 1772   6.339   6.098   8.549  0.1581  0.0954  3.2959
   24CHL1   C27 1773   6.305   5.754   8.624  0.5074 -0.3122  0.2918
   24CHL1  H27A 1774   6.257   5.736   8.525 -0.1664  1.6207  0.2355
   24CHL1  H27B 1775   6.410   5.718   8.625  0.5765 -0.3362 -2.0498
   24CHL1  H27C 1776   6.245   5.689   8.691 -0.4987 -2.3268 -2.3877
   25CHL1    C3 1777   1.587   6.663  10.330  0.8158  0.4965 -0.0791
   25CHL1    H3 1778   1.670   6.729  10.295  0.9410 -0.2116 -1.1886
   25CHL1    O3 1779   1.566   6.649  10.469  0.3130  0.2311  0.0412
   25CHL1   H3' 1780   1.504   6.577  10.486  1.5521 -1.2074 -1.1658
   25CHL1    C4 1781   1.454   6.701  10.259 -0.0450 -0.4713 -0.9201
   25CHL1   H4A 1782   1.371   6.637  10.295 -1.2929  1.1193 -0.8819
   25CHL1   H4B 1783   1.430   6.802  10.299 -0.2584 -0.3055 -1.4510
   25CHL1    C5 1784   1.460   6.694  10.107 -0.4296 -0.6002  0.4053
   25CHL1    C6 1785   1.430   6.793  10.021  0.3863  0.2679 -0.2998
   25CHL1    H6 1786   1.396   6.880  10.078  1.7375  0.0773  0.8516
   25CHL1    C7 1787   1.432   6.795   9.871 -0.1224  0.9174  0.3259
   25CHL1   H7A 1788   1.338   6.832   9.825 -0.7424  0.3602  1.1265
   25CHL1   H7B 1789   1.514   6.869   9.853  1.2048 -1.0286 -2.4077
   25CHL1    C8 1790   1.460   6.649   9.824  0.0220  0.1350 -0.1875
   25CHL1    H8 1791   1.366   6.590   9.835 -0.3794  0.6858 -0.6136
   25CHL1   C14 1792   1.513   6.664   9.678 -0.1293 -0.7169 -0.4561
   25CHL1   H14 1793   1.618   6.695   9.697 -0.1951 -2.0900  2.9871
   25CHL1   C15 1794   1.448   6.764   9.593  0.8576 -0.2603 -0.1903
   25CHL1  H15A 1795   1.338   6.750   9.598  0.7464  0.8668  0.9682
   25CHL1  H15B 1796   1.475   6.867   9.625  0.0416  0.6402 -2.2104
   25CHL1   C16 1797   1.501   6.720   9.455 -0.1611  0.8439  0.6121
   25CHL1  H16A 1798   1.403   6.695   9.409 -0.7289  0.1513  2.1299
   25CHL1  H16B 1799   1.560   6.797   9.401 -0.6535  0.9555  0.2177
   25CHL1   C17 1800   1.580   6.587   9.465 -0.3719  0.4887 -0.5614
   25CHL1   H17 1801   1.687   6.609   9.481 -0.5359  0.0858  1.3252
   25CHL1   C13 1802   1.532   6.531   9.606 -0.7817 -0.0422 -0.1479
   25CHL1   C18 1803   1.394   6.451   9.579 -0.1572 -0.0088 -0.2276
   25CHL1  H18A 1804   1.408   6.341   9.564 -1.1548 -0.0393 -0.9814
   25CHL1  H18B 1805   1.339   6.470   9.674  0.6034 -0.8937  0.4110
   25CHL1  H18C 1806   1.344   6.503   9.495  1.7041  1.4263 -0.5068
   25CHL1   C12 1807   1.630   6.444   9.687 -0.3954  1.0603  0.0446
   25CHL1  H12A 1808   1.612   6.342   9.647 -1.9833  0.3761  2.3031
   25CHL1  H12B 1809   1.736   6.476   9.687 -0.1418  0.3105  1.4748
   25CHL1   C11 1810   1.588   6.435   9.833  0.2959  0.1940 -1.2132
   25CHL1  H11A 1811   1.496   6.374   9.841  0.0181  0.6216 -1.1330
   25CHL1  H11B 1812   1.665   6.380   9.891  2.3064  0.0477 -3.8141
   25CHL1    C9 1813   1.565   6.569   9.900 -0.3350 -0.5938  0.0072
   25CHL1    H9 1814   1.665   6.619   9.899 -0.4020 -0.4691 -0.5809
   25CHL1   C10 1815   1.527   6.563  10.054  0.3923 -0.0779 -0.1667
   25CHL1   C19 1816   1.420   6.448  10.074  0.1551  0.4562  0.1072
   25CHL1  H19A 1817   1.382   6.439  10.178  1.8927  0.4298  0.7677
   25CHL1  H19B 1818   1.328   6.477  10.019 -0.0218 -0.4796 -0.1121
   25CHL1  H19C 1819   1.452   6.347  10.040 -1.2863  0.3927 -1.2114
   25CHL1    C1 1820   1.659   6.512  10.137  0.4419 -0.1519 -0.2705
   25CHL1   H1A 1821   1.683   6.406  10.111 -1.8794 -0.2901 -2.1740
   25CHL1   H1B 1822   1.734   6.587  10.105  0.5102 -0.4913 -0.9221
   25CHL1    C2 1823   1.630   6.524  10.293  0.1171  0.6740  0.3171
   25CHL1   H2A 1824   1.721   6.502  10.353  0.4092  0.3889 -0.2198
   25CHL1   H2B 1825   1.558   6.440  10.304  1.4675 -0.4717  0.6720
   25CHL1   C20 1826   1.564   6.500   9.340  0.2138 -0.2798 -0.0513
   25CHL1   H20 1827   1.456   6.487   9.320  0.3156 -0.7746 -0.2958
   25CHL1   C21 1828   1.649   6.374   9.378  0.4631  0.1987 -0.6775
   25CHL1  H21A 1829   1.671   6.315   9.286 -0.0360 -1.7646  0.4151
   25CHL1  H21B 1830   1.595   6.306   9.448  0.9925  0.0003 -0.4603
   25CHL1  H21C 1831   1.748   6.410   9.412  1.6164 -0.4257 -3.1408
   25CHL1   C22 1832   1.621   6.573   9.216  0.1071  0.1658 -0.4887
   25CHL1  H22A 1833   1.565   6.668   9.207 -1.1416 -0.3483  1.2833
   25CHL1  H22B 1834   1.727   6.591   9.245 -0.9036  0.0000  4.2085
   25CHL1   C23 1835   1.613   6.488   9.089  0.4932 -0.4442 -0.1319
   25CHL1  H23A 1836   1.653   6.384   9.094 -1.1520 -1.0610  0.9545
   25CHL1  H23B 1837   1.507   6.469   9.062 -0.2086  1.9507  0.6438
   25CHL1   C24 1838   1.690   6.565   8.973  0.4343 -0.0417  0.1215
   25CHL1  H24A 1839   1.660   6.671   8.964 -0.6212 -0.3240  0.1710
   25CHL1  H24B 1840   1.799   6.557   8.997  0.6939  0.4813 -0.8421
   25CHL1   C25 1841   1.662   6.510   8.829  0.5723 -0.0413  0.4159
   25CHL1   H25 1842   1.727   6.560   8.754  1.4027 -0.5925  0.7402
   25CHL1   C26 1843   1.692   6.356   8.822  0.4312 -0.3813 -0.3251
   25CHL1  H26A 1844   1.792   6.332   8.862  0.7387  0.7059 -0.3972
   25CHL1  H26B 1845   1.620   6.295   8.881  0.3967  0.4359  0.5110
   25CHL1  H26C 1846   1.697   6.323   8.716  1.8305 -0.0488 -0.3755
   25CHL1   C27 1847   1.512   6.531   8.791 -0.1003 -0.2416 -0.2450
   25CHL1  H27A 1848   1.472   6.499   8.692 -1.4080 -0.6032  0.3814
   25CHL1  H27B 1849   1.450   6.476   8.865 -1.7385 -0.1156 -1.4503
   25CHL1  H27C 1850   1.476   6.635   8.808  1.6774  0.4414 -0.5329
   26CHL1    C3 1851   1.858   4.802  10.006 -0.6922 -0.1651  0.3259
   26CHL1    H3 1852   1.906   4.705   9.984 -1.4573 -0.9909  2.1191
   26CHL1    O3 1853   1.794   4.809  10.132  0.6004  0.5377 -0.2612
   26CHL1   H3' 1854   1.717   4.751  10.133  1.4938 -0.7144  0.9108
   26CHL1    C4 1855   1.954   4.918  10.007 -0.8242 -0.6964 -1.1716
   26CHL1   H4A 1856   1.895   5.006  10.038 -0.0038 -0.9362  1.3856
   26CHL1   H4B 1857   2.024   4.890  10.090 -1.1095 -3.4920 -1.7636
   26CHL1    C5 1858   2.020   4.940   9.867 -0.6007 -0.3059 -0.1257
   26CHL1    C6 1859   2.152   4.935   9.860 -0.0170 -1.6037  0.2959
   26CHL1    H6 1860   2.217   4.928   9.949  0.1409  1.1011  0.4607
   26CHL1    C7 1861   2.224   4.959   9.732 -0.2229 -0.0941  0.4962
   26CHL1   H7A 1862   2.304   5.033   9.756 -3.3535  4.6443 -2.0702
   26CHL1   H7B 1863   2.255   4.858   9.697  0.9997  0.9916 -1.7903
   26CHL1    C8 1864   2.138   5.035   9.627  0.3062 -0.0979 -0.2202
   26CHL1    H8 1865   2.117   5.137   9.667  1.2702  0.1117 -0.2321
   26CHL1   C14 1866   2.216   5.025   9.495  0.0648 -0.1348 -0.0267
   26CHL1   H14 1867   2.224   4.916   9.474  0.0522 -0.0940 -0.2460
   26CHL1   C15 1868   2.365   5.074   9.489 -0.7545 -0.3341 -0.2664
   26CHL1  H15A 1869   2.373   5.174   9.538 -0.0281 -0.2052 -0.6383
   26CHL1  H15B 1870   2.435   5.002   9.535  0.4025  0.6700 -0.4101
   26CHL1   C16 1871   2.399   5.070   9.343  0.4259 -0.1210 -0.2813
   26CHL1  H16A 1872   2.464   5.148   9.299 -2.6787  1.9126 -1.6100
   26CHL1  H16B 1873   2.438   4.967   9.329 -0.6635 -1.1884  3.4119
   26CHL1   C17 1874   2.259   5.063   9.274 -0.2166  0.1465  0.1879
   26CHL1   H17 1875   2.257   4.955   9.251 -1.2115 -0.1455  1.4585
   26CHL1   C13 1876   2.145   5.084   9.376  0.1374  0.1773 -0.3869
   26CHL1   C18 1877   2.125   5.230   9.390  0.0265 -0.1062 -0.0191
   26CHL1  H18A 1878   2.057   5.252   9.306  1.5496  1.1989 -0.9732
   26CHL1  H18B 1879   2.070   5.258   9.483 -1.2320 -1.0466 -0.4562
   26CHL1  H18C 1880   2.217   5.293   9.385  0.1064 -0.2370 -0.1968
   26CHL1   C12 1881   2.017   4.996   9.356 -0.1545 -0.5745  0.6786
   26CHL1  H12A 1882   1.969   5.034   9.263 -0.6065 -1.0461  0.7115
   26CHL1  H12B 1883   2.034   4.888   9.336  0.3834 -0.5974  1.2585
   26CHL1   C11 1884   1.936   4.998   9.486 -0.5655 -0.3112 -0.1107
   26CHL1  H11A 1885   1.909   5.105   9.496  1.1774  0.2490 -0.9514
   26CHL1  H11B 1886   1.840   4.942   9.483  0.9840 -3.3973  2.1670
   26CHL1    C9 1887   2.009   4.953   9.610  0.0853 -0.5844 -1.1866
   26CHL1    H9 1888   2.030   4.849   9.579 -1.2218 -1.6452  1.2389
   26CHL1   C10 1889   1.925   4.956   9.743  0.3366  0.2868 -0.7610
   26CHL1   C19 1890   1.865   5.103   9.760 -0.5908  0.1786 -0.2651
   26CHL1  H19A 1891   1.791   5.139   9.685  0.1481  2.9060  0.2276
   26CHL1  H19B 1892   1.814   5.099   9.859  0.4267 -3.5073  0.2611
   26CHL1  H19C 1893   1.948   5.176   9.761 -1.8838  1.7027  0.3930
   26CHL1    C1 1894   1.808   4.850   9.754  0.0627  0.7217 -0.3687
   26CHL1   H1A 1895   1.723   4.873   9.687 -0.7589  0.2720  0.5033
   26CHL1   H1B 1896   1.834   4.745   9.728 -2.5351  0.0935 -0.6931
   26CHL1    C2 1897   1.753   4.827   9.898  0.1001 -0.1092  0.3141
   26CHL1   H2A 1898   1.673   4.750   9.891 -1.2055  1.2785 -0.8077
   26CHL1   H2B 1899   1.689   4.918   9.909  0.3231 -0.0227  0.9107
   26CHL1   C20 1900   2.252   5.133   9.127 -0.1754  0.3564 -0.7743
   26CHL1   H20 1901   2.273   5.240   9.146 -0.8210  0.1569  1.4191
   26CHL1   C21 1902   2.112   5.127   9.059  0.0172  0.2258  0.3363
   26CHL1  H21A 1903   2.085   5.020   9.048  3.0318 -0.8946  2.3320
   26CHL1  H21B 1904   2.128   5.172   8.959 -0.3791 -2.2923 -0.9521
   26CHL1  H21C 1905   2.041   5.181   9.125 -1.0451 -1.2173  0.4073
   26CHL1   C22 1906   2.357   5.079   9.025  0.7816  0.1721  0.3666
   26CHL1  H22A 1907   2.452   5.066   9.082  0.9353 -0.2174  0.0255
   26CHL1  H22B 1908   2.334   4.976   8.992  0.9851 -0.0858  1.0170
   26CHL1   C23 1909   2.376   5.164   8.902 -0.1203 -0.1604  0.2083
   26CHL1  H23A 1910   2.305   5.141   8.819 -0.5834  1.3086  0.1670
   26CHL1  H23B 1911   2.334   5.264   8.926 -1.9301 -0.6634 -0.6442
   26CHL1   C24 1912   2.519   5.148   8.857 -0.2824 -0.0787  0.9258
   26CHL1  H24A 1913   2.569   5.224   8.921  2.2123  0.3335 -1.3354
   26CHL1  H24B 1914   2.557   5.050   8.891  3.3417  0.9074  0.1178
   26CHL1   C25 1915   2.554   5.194   8.713  0.1216  0.2549  0.3720
   26CHL1   H25 1916   2.501   5.132   8.639  0.2093 -0.3101  0.7777
   26CHL1   C26 1917   2.504   5.339   8.690  0.1111 -0.3316 -0.7120
   26CHL1  H26A 1918   2.535   5.389   8.784  0.4042 -2.3942  0.3391
   26CHL1  H26B 1919   2.551   5.377   8.596  1.1234 -0.5983 -0.3309
   26CHL1  H26C 1920   2.394   5.337   8.676  0.1318 -2.6142 -0.9093
   26CHL1   C27 1921   2.706   5.179   8.688  0.3781  0.3367  0.4146
   26CHL1  H27A 1922   2.770   5.248   8.746 -0.9597  0.6577  1.5619
   26CHL1  H27B 1923   2.711   5.070   8.709  0.0755 -0.0203 -1.2628
   26CHL1  H27C 1924   2.733   5.188   8.581 -1.5907  0.7672 -0.0720
   27CHL1    C3 1925   2.320   0.245  10.350 -0.4415  0.4024  0.1803
   27CHL1    H3 1926   2.225   0.188  10.358  0.4119 -1.2556 -0.8624
   27CHL1    O3 1927   2.380   0.259  10.476 -0.3434  0.4645  0.1779
   27CHL1   H3' 1928   2.304   0.278  10.531 -0.6733  0.1195 -0.1527
   27CHL1    C4 1929   2.418   0.177  10.253 -0.3403  0.2848 -0.2828
   27CHL1   H4A 1930   2.512   0.236  10.256  0.1647 -0.5433  1.0037
   27CHL1   H4B 1931   2.429   0.071  10.282 -2.9024 -0.5184 -1.8533
   27CHL1    C5 1932   2.376   0.192  10.109  1.0678  0.5607  0.5819
   27CHL1    C6 1933   2.384   0.078  10.034 -0.2035  0.2562 -0.0652
   27CHL1    H6 1934   2.402  -0.018  10.086 -0.0857 -0.7594 -1.8778
   27CHL1    C7 1935   2.362   0.073   9.880 -0.5417  0.2580 -0.5003
   27CHL1   H7A 1936   2.443   0.017   9.829 -1.2007 -0.1777 -1.0860
   27CHL1   H7B 1937   2.264   0.028   9.854  0.5676 -3.7454  1.4455
   27CHL1    C8 1938   2.357   0.221   9.824 -0.1168  0.2025  0.4712
   27CHL1    H8 1939   2.459   0.265   9.823 -0.6149  1.5395 -2.5540
   27CHL1   C14 1940   2.303   0.217   9.686 -0.6068  0.2374 -0.0369
   27CHL1   H14 1941   2.198   0.183   9.698  0.0672 -2.8254 -1.5809
   27CHL1   C15 1942   2.367   0.118   9.583 -0.1304  0.1745  0.1933
   27CHL1  H15A 1943   2.478   0.113   9.582 -0.1965 -1.6505 -0.4851
   27CHL1  H15B 1944   2.320   0.018   9.596 -1.0888  0.5400 -0.3956
   27CHL1   C16 1945   2.317   0.178   9.452  0.4340  0.4705  0.7067
   27CHL1  H16A 1946   2.404   0.199   9.386  0.1219  0.7320  0.3756
   27CHL1  H16B 1947   2.254   0.108   9.393  0.8813  0.1788  0.5642
   27CHL1   C17 1948   2.245   0.318   9.478 -0.3855  0.2323 -0.2501
   27CHL1   H17 1949   2.136   0.295   9.477 -0.9169  2.4453 -1.7897
   27CHL1   C13 1950   2.298   0.354   9.616 -0.2121 -0.3717 -0.5869
   27CHL1   C18 1951   2.436   0.411   9.600 -0.0976 -0.3752  0.1640
   27CHL1  H18A 1952   2.504   0.336   9.554  1.7497  0.3097  1.6432
   27CHL1  H18B 1953   2.438   0.501   9.534  3.0957  0.1105  0.7876
   27CHL1  H18C 1954   2.474   0.447   9.698  3.9725 -1.3543 -0.8481
   27CHL1   C12 1955   2.201   0.445   9.694  0.2307 -0.2128 -0.1734
   27CHL1  H12A 1956   2.206   0.550   9.657 -0.1806 -0.5692 -1.2864
   27CHL1  H12B 1957   2.096   0.409   9.689  0.6532 -1.3656 -1.1675
   27CHL1   C11 1958   2.242   0.460   9.846 -0.0389  0.0121  0.2309
   27CHL1  H11A 1959   2.330   0.527   9.856 -0.3659  0.3212  1.1435
   27CHL1  H11B 1960   2.159   0.504   9.905  0.8850  1.6612  0.3601
   27CHL1    C9 1961   2.274   0.318   9.913  0.2373  0.0484  0.4774
   27CHL1    H9 1962   2.172   0.275   9.927 -1.1063  3.1467  1.0774
   27CHL1   C10 1963   2.339   0.328  10.050  0.6037  0.1891 -1.0221
   27CHL1   C19 1964   2.459   0.423  10.042 -0.3498 -0.6728  0.6958
   27CHL1  H19A 1965   2.523   0.409   9.953  2.5517 -2.7703  2.9134
   27CHL1  H19B 1966   2.413   0.523  10.053 -0.5486 -0.8236  1.2771
   27CHL1  H19C 1967   2.521   0.417  10.134 -0.1107  1.2237  0.6942
   27CHL1    C1 1968   2.232   0.375  10.155  0.7367 -0.2668 -0.2517
   27CHL1   H1A 1969   2.192   0.474  10.124  0.6367  0.5343  2.2570
   27CHL1   H1B 1970   2.146   0.305  10.148  0.7346 -0.1120 -2.5653
   27CHL1    C2 1971   2.286   0.391  10.297 -0.5201 -0.1415 -0.2318
   27CHL1   H2A 1972   2.218   0.437  10.372 -0.4809 -2.7185  1.5373
   27CHL1   H2B 1973   2.379   0.452  10.295 -1.0937  0.8499  1.2736
   27CHL1   C20 1974   2.271   0.416   9.358  0.0683  0.1336 -0.2827
   27CHL1   H20 1975   2.379   0.444   9.352 -0.4555  2.6446  0.7939
   27CHL1   C21 1976   2.198   0.553   9.380  0.4663 -0.0013  1.0049
   27CHL1  H21A 1977   2.206   0.618   9.290 -0.6320 -1.5476 -0.2668
   27CHL1  H21B 1978   2.260   0.604   9.457  3.2949 -1.0619 -0.4302
   27CHL1  H21C 1979   2.091   0.537   9.408  0.5363 -2.0756  0.2555
   27CHL1   C22 1980   2.215   0.348   9.225  0.2060  0.6099 -0.6739
   27CHL1  H22A 1981   2.270   0.253   9.207  0.7493  0.6107  0.8217
   27CHL1  H22B 1982   2.112   0.311   9.244  0.8423 -1.3481 -0.7720
   27CHL1   C23 1983   2.222   0.429   9.094 -0.1045 -0.5014 -0.1365
   27CHL1  H23A 1984   2.161   0.522   9.102  0.1814 -0.2766 -0.5167
   27CHL1  H23B 1985   2.327   0.464   9.094 -0.1933  0.0139  2.6707
   27CHL1   C24 1986   2.176   0.351   8.968  0.6331  0.0944  0.1209
   27CHL1  H24A 1987   2.225   0.251   8.964  2.1715  0.8347 -3.2834
   27CHL1  H24B 1988   2.066   0.337   8.981  0.5101 -0.0117 -0.9888
   27CHL1   C25 1989   2.205   0.405   8.839  0.9324 -0.5427  0.9977
   27CHL1   H25 1990   2.171   0.511   8.828 -0.4526 -1.0939 -0.3325
   27CHL1   C26 1991   2.358   0.430   8.809  0.3448  0.3477  0.7442
   27CHL1  H26A 1992   2.411   0.334   8.825 -1.9763 -1.3723 -1.1988
   27CHL1  H26B 1993   2.374   0.465   8.705  0.8259 -0.2118  0.6261
   27CHL1  H26C 1994   2.399   0.501   8.884  1.7983 -0.8425  1.1254
   27CHL1   C27 1995   2.138   0.332   8.729 -0.4569 -0.7064 -0.1900
   27CHL1  H27A 1996   2.032   0.312   8.758 -1.3383 -0.1772 -2.7616
   27CHL1  H27B 1997   2.144   0.390   8.634  0.4860 -0.8999 -0.2513
   27CHL1  H27C 1998   2.183   0.235   8.699 -1.2138 -0.9263 -0.6579
   28CHL1    C3 1999   1.881   6.132  10.141  0.5644 -0.5596 -0.4647
   28CHL1    H3 2000   1.776   6.156  10.114  0.3485  0.4664  1.1261
   28CHL1    O3 2001   1.891   6.119  10.283 -0.2418  0.4496  0.9967
   28CHL1   H3' 2002   1.981   6.138  10.310  0.8047  1.2792 -2.5673
   28CHL1    C4 2003   1.922   6.001  10.082  0.0344  0.1287  0.0495
   28CHL1   H4A 2004   2.021   5.967  10.117 -2.0691 -1.6029  5.3124
   28CHL1   H4B 2005   1.856   5.917  10.110  0.9933  0.1164  2.4622
   28CHL1    C5 2006   1.927   6.011   9.930  0.3575 -0.2524  0.7593
   28CHL1    C6 2007   1.864   5.925   9.852  0.3609  0.2447  0.5315
   28CHL1    H6 2008   1.810   5.840   9.895 -0.3398  0.6494  0.4613
   28CHL1    C7 2009   1.874   5.929   9.703 -0.1020  0.1780  0.1337
   28CHL1   H7A 2010   1.899   5.835   9.648 -0.1869 -0.0042  0.4046
   28CHL1   H7B 2011   1.773   5.957   9.667  0.1189  0.3282 -0.3857
   28CHL1    C8 2012   1.972   6.030   9.638 -0.2602  0.1514  0.2408
   28CHL1    H8 2013   2.073   5.985   9.647 -0.0923  0.3672 -0.4893
   28CHL1   C14 2014   1.944   6.051   9.489 -0.0257  0.2969  0.1407
   28CHL1   H14 2015   1.852   6.113   9.487 -0.2577 -0.0652 -0.4651
   28CHL1   C15 2016   1.932   5.925   9.401 -0.5789  0.0787  0.5773
   28CHL1  H15A 2017   2.028   5.870   9.415  0.9444  1.9051 -1.8728
   28CHL1  H15B 2018   1.847   5.857   9.418 -1.1312 -0.2607 -2.8525
   28CHL1   C16 2019   1.943   5.993   9.260 -0.0048 -0.8481  0.6787
   28CHL1  H16A 2020   2.014   5.926   9.206 -0.8905  0.9604 -2.9766
   28CHL1  H16B 2021   1.842   5.986   9.214  0.2978  0.0905 -0.1595
   28CHL1   C17 2022   1.990   6.140   9.280  0.7568  0.5656 -0.4550
   28CHL1   H17 2023   1.890   6.188   9.283  0.1798 -0.6340  0.2307
   28CHL1   C13 2024   2.043   6.146   9.426 -0.1865  0.4855  0.1586
   28CHL1   C18 2025   2.187   6.100   9.430 -0.3878 -0.4252 -0.3769
   28CHL1  H18A 2026   2.206   6.007   9.373  0.8983 -1.8466  2.2123
   28CHL1  H18B 2027   2.261   6.182   9.423 -0.3660 -0.0652  2.6888
   28CHL1  H18C 2028   2.211   6.057   9.529  0.9119 -0.2589 -0.5987
   28CHL1   C12 2029   2.025   6.276   9.501 -0.3534 -0.9747  0.7436
   28CHL1  H12A 2030   2.101   6.353   9.477  2.4352 -2.9789  2.5251
   28CHL1  H12B 2031   1.924   6.317   9.479 -1.3236 -2.3413  2.3671
   28CHL1   C11 2032   2.056   6.260   9.648  0.2767  0.2070  0.0455
   28CHL1  H11A 2033   2.162   6.228   9.654  0.0559 -1.3550 -2.7290
   28CHL1  H11B 2034   2.057   6.358   9.700 -0.9311 -0.1464  0.7552
   28CHL1    C9 2035   1.970   6.157   9.721 -0.3523  0.1784  0.1256
   28CHL1    H9 2036   1.862   6.180   9.708 -0.4185 -1.0546 -1.8859
   28CHL1   C10 2037   2.009   6.128   9.869  0.1130  0.2281  0.2074
   28CHL1   C19 2038   2.161   6.080   9.884  0.2343  0.3523  0.9776
   28CHL1  H19A 2039   2.171   5.979   9.841 -0.9349  0.2502  0.9167
   28CHL1  H19B 2040   2.240   6.146   9.842 -0.7359  0.5412 -0.6283
   28CHL1  H19C 2041   2.187   6.066   9.991 -1.0027 -0.5851  1.1751
   28CHL1    C1 2042   1.980   6.258   9.942 -0.2946 -0.4148 -0.3211
   28CHL1   H1A 2043   2.063   6.328   9.916 -0.7363  0.9484  1.7053
   28CHL1   H1B 2044   1.883   6.297   9.905  0.5618  1.1092 -1.1078
   28CHL1    C2 2045   1.972   6.251  10.094 -0.3795 -0.3828 -0.7290
   28CHL1   H2A 2046   1.911   6.330  10.142  0.3379 -0.5337  0.4728
   28CHL1   H2B 2047   2.074   6.252  10.137 -0.6601  0.1446 -0.0511
   28CHL1   C20 2048   2.081   6.190   9.162  0.3722 -0.4467 -0.2808
   28CHL1   H20 2049   2.181   6.141   9.166  1.1447  1.0515 -0.2803
   28CHL1   C21 2050   2.125   6.336   9.179  0.1801 -0.6045 -0.6158
   28CHL1  H21A 2051   2.159   6.378   9.082  0.6681  0.7250  0.1054
   28CHL1  H21B 2052   2.214   6.346   9.245  0.4540 -1.6595 -0.8073
   28CHL1  H21C 2053   2.037   6.388   9.222 -1.5966 -2.2181 -2.1369
   28CHL1   C22 2054   2.017   6.163   9.018  0.3978 -0.3465  0.4798
   28CHL1  H22A 2055   1.949   6.075   9.024  1.6038 -1.5752 -2.2303
   28CHL1  H22B 2056   1.952   6.244   8.980  0.6625  0.1165  1.0083
   28CHL1   C23 2057   2.136   6.129   8.922 -0.1183  0.4364  0.1636
   28CHL1  H23A 2058   2.213   6.208   8.931  1.5222 -1.0765  0.0528
   28CHL1  H23B 2059   2.176   6.029   8.951 -0.2865 -0.3187 -2.0333
   28CHL1   C24 2060   2.079   6.112   8.783 -0.8743  0.3285  0.0410
   28CHL1  H24A 2061   1.996   6.039   8.769 -2.4979  1.8164  1.3631
   28CHL1  H24B 2062   2.038   6.210   8.750  1.0016  1.6030  1.3360
   28CHL1   C25 2063   2.187   6.076   8.674  0.6239  0.1563  0.0251
   28CHL1   H25 2064   2.131   6.076   8.578  2.8860  1.4150 -1.4052
   28CHL1   C26 2065   2.283   6.194   8.664 -0.2230  0.4915  0.8901
   28CHL1  H26A 2066   2.225   6.285   8.692 -0.9972  0.7102 -1.2961
   28CHL1  H26B 2067   2.353   6.186   8.750  0.2660  2.1303  0.6830
   28CHL1  H26C 2068   2.352   6.198   8.577 -0.3342  1.1334  0.8250
   28CHL1   C27 2069   2.253   5.941   8.683 -0.0371  0.8297  0.0629
   28CHL1  H27A 2070   2.318   5.955   8.772 -1.1722 -0.0647  1.0668
   28CHL1  H27B 2071   2.176   5.863   8.702 -1.1018  1.1871 -2.4360
   28CHL1  H27C 2072   2.314   5.911   8.594  0.2456 -0.1161  0.5573
   29CHL1    C3 2073   2.778   5.017   6.635  0.6134 -0.0288  0.1754
   29CHL1    H3 2074   2.778   4.907   6.627  0.8706 -0.0227  0.0871
   29CHL1    O3 2075   2.788   5.056   6.503 -0.0777 -0.1803  0.1049
   29CHL1   H3' 2076   2.766   5.149   6.511 -0.9582 -0.3190 -0.5628
   29CHL1    C4 2077   2.636   5.054   6.696  0.0213  0.1652 -0.0618
   29CHL1   H4A 2078   2.614   5.162   6.685 -0.6194  0.1682  1.1133
   29CHL1   H4B 2079   2.562   4.997   6.635  1.6001 -1.9757 -0.0724
   29CHL1    C5 2080   2.632   5.011   6.840 -0.4714  0.6969 -0.0439
   29CHL1    C6 2081   2.545   4.923   6.896 -0.3671  0.7658  0.1959
   29CHL1    H6 2082   2.475   4.874   6.827 -0.0106 -0.0224  0.3818
   29CHL1    C7 2083   2.541   4.894   7.042  0.0063 -0.0444  0.5740
   29CHL1   H7A 2084   2.437   4.871   7.077 -0.7186  0.9913 -0.7939
   29CHL1   H7B 2085   2.596   4.800   7.065  1.6677  0.4980 -0.9420
   29CHL1    C8 2086   2.607   4.995   7.132  0.0080  0.0858  0.2889
   29CHL1    H8 2087   2.552   5.092   7.128 -0.5077 -0.2511 -1.6309
   29CHL1   C14 2088   2.625   4.942   7.272 -0.3066  0.1274  0.0560
   29CHL1   H14 2089   2.704   4.864   7.259  0.5330  1.3509 -2.9775
   29CHL1   C15 2090   2.509   4.866   7.342 -0.6382  0.6517  0.4013
   29CHL1  H15A 2091   2.409   4.881   7.298 -0.1981 -1.0386 -1.3180
   29CHL1  H15B 2092   2.526   4.756   7.334 -1.5532  0.4608  0.9193
   29CHL1   C16 2093   2.516   4.903   7.492  0.3011 -0.4814 -0.2697
   29CHL1  H16A 2094   2.437   4.981   7.491 -1.5406 -2.1803 -3.9157
   29CHL1  H16B 2095   2.491   4.810   7.547  2.5962 -1.2696 -0.4172
   29CHL1   C17 2096   2.657   4.963   7.511  0.0969  0.0566  0.1407
   29CHL1   H17 2097   2.727   4.877   7.515 -0.4791 -0.4054  0.6581
   29CHL1   C13 2098   2.680   5.042   7.372  0.1696 -0.3473  0.1040
   29CHL1   C18 2099   2.607   5.178   7.383  0.2290  0.3354  0.2067
   29CHL1  H18A 2100   2.606   5.226   7.284 -2.1002  2.1715  1.0190
   29CHL1  H18B 2101   2.498   5.160   7.396  0.3417 -0.7756 -0.2404
   29CHL1  H18C 2102   2.646   5.238   7.468 -0.5886  1.0323  0.1000
   29CHL1   C12 2103   2.828   5.059   7.330  0.3361 -0.4389 -0.1615
   29CHL1  H12A 2104   2.873   5.145   7.383 -0.4769  0.3468 -0.7078
   29CHL1  H12B 2105   2.875   4.960   7.348  0.4771 -0.2695  0.4258
   29CHL1   C11 2106   2.841   5.104   7.181  0.0045  0.0553 -0.0308
   29CHL1  H11A 2107   2.822   5.214   7.187  0.4236  0.0828  0.8790
   29CHL1  H11B 2108   2.948   5.098   7.149 -0.5786  3.4341 -3.4154
   29CHL1    C9 2109   2.746   5.026   7.072  0.4108 -0.3919  0.4304
   29CHL1    H9 2110   2.795   4.927   7.067  0.2365 -0.4419 -0.4640
   29CHL1   C10 2111   2.749   5.076   6.920 -0.0081 -0.2000  0.3427
   29CHL1   C19 2112   2.723   5.232   6.923 -0.6522 -0.6973  0.0310
   29CHL1  H19A 2113   2.751   5.276   6.825  2.1354  0.7783  1.3404
   29CHL1  H19B 2114   2.620   5.258   6.953 -0.2402 -1.1812  2.0089
   29CHL1  H19C 2115   2.793   5.272   7.000 -3.2265  1.5766  1.3502
   29CHL1    C1 2116   2.890   5.033   6.857  0.0277  0.0573  0.3724
   29CHL1   H1A 2117   2.969   5.083   6.916  0.2764  3.7446 -2.6414
   29CHL1   H1B 2118   2.895   4.923   6.869 -0.1121  0.0980  0.8118
   29CHL1    C2 2119   2.907   5.061   6.707  0.0971 -0.1866 -0.6240
   29CHL1   H2A 2120   2.993   5.004   6.664  0.7241  0.0443  0.2844
   29CHL1   H2B 2121   2.930   5.167   6.686  1.2010  0.2183  2.1524
   29CHL1   C20 2122   2.680   5.040   7.643  0.3219  0.9201  0.0619
   29CHL1   H20 2123   2.606   5.123   7.643  0.3582  0.9640  0.8661
   29CHL1   C21 2124   2.821   5.099   7.652  0.0734 -0.2372  0.0215
   29CHL1  H21A 2125   2.844   5.174   7.573 -2.9754  0.6891 -0.1415
   29CHL1  H21B 2126   2.883   5.009   7.629 -1.7597 -1.0694 -2.0849
   29CHL1  H21C 2127   2.844   5.141   7.752 -2.3716 -0.3689  0.7132
   29CHL1   C22 2128   2.647   4.948   7.771 -0.5392 -0.0566 -0.4423
   29CHL1  H22A 2129   2.542   4.912   7.763 -0.4396 -0.2375 -1.0000
   29CHL1  H22B 2130   2.709   4.857   7.762 -1.4337 -0.6439 -0.8334
   29CHL1   C23 2131   2.673   5.010   7.912 -0.4693 -0.2778 -0.0772
   29CHL1  H23A 2132   2.778   4.994   7.944 -0.8690  0.9957  2.1584
   29CHL1  H23B 2133   2.639   5.115   7.931 -1.6238 -1.1364  3.3473
   29CHL1   C24 2134   2.586   4.938   8.019  0.3514  0.2017 -0.2421
   29CHL1  H24A 2135   2.480   4.971   8.019 -0.4226 -2.0745 -0.7995
   29CHL1  H24B 2136   2.585   4.831   7.989 -0.2677  0.6078 -1.7974
   29CHL1   C25 2137   2.634   4.939   8.172  0.2931 -0.2026 -0.2409
   29CHL1   H25 2138   2.719   4.868   8.180  0.0945 -0.5211 -0.8527
   29CHL1   C26 2139   2.675   5.078   8.221 -0.8701 -1.5623  0.6141
   29CHL1  H26A 2140   2.594   5.154   8.215  1.1218  0.7647  1.5243
   29CHL1  H26B 2141   2.719   5.093   8.322  3.2861  0.8118 -1.3023
   29CHL1  H26C 2142   2.753   5.126   8.158 -2.0437  1.0926  1.0164
   29CHL1   C27 2143   2.525   4.895   8.263  0.2932  0.2137 -0.0565
   29CHL1  H27A 2144   2.556   4.906   8.369  0.3322 -0.8380  0.0503
   29CHL1  H27B 2145   2.429   4.949   8.252  0.4365  0.4446 -0.1706
   29CHL1  H27C 2146   2.501   4.788   8.243  2.0322 -0.0180 -1.1522
   30CHL1    C3 2147   6.733   2.624   7.409 -0.6119  0.1096  0.3590
   30CHL1    H3 2148   6.732   2.722   7.461 -2.4561 -0.3977  1.4059
   30CHL1    O3 2149   6.731   2.646   7.269 -1.1023 -0.0986  0.3321
   30CHL1   H3' 2150   6.743   2.563   7.223  1.2895  0.0381  0.5877
   30CHL1    C4 2151   6.854   2.544   7.464 -0.8710  0.2870  0.2525
   30CHL1   H4A 2152   6.875   2.459   7.395 -0.2477 -0.5527  1.4489
   30CHL1   H4B 2153   6.945   2.608   7.454 -0.0231 -0.7080  1.3813
   30CHL1    C5 2154   6.846   2.517   7.611 -0.2677  0.7984  0.6239
   30CHL1    C6 2155   6.938   2.573   7.694  0.1875 -0.5194 -0.5834
   30CHL1    H6 2156   7.020   2.638   7.658 -0.5213  1.8143  1.7267
   30CHL1    C7 2157   6.925   2.548   7.843  0.4580 -0.2341 -0.8483
   30CHL1   H7A 2158   7.030   2.536   7.879  1.3300 -1.3377 -3.5558
   30CHL1   H7B 2159   6.877   2.635   7.893 -3.1678 -1.3159 -2.1485
   30CHL1    C8 2160   6.855   2.420   7.890 -0.0611  0.2296 -0.0680
   30CHL1    H8 2161   6.917   2.339   7.849 -0.3681 -0.6171  1.0994
   30CHL1   C14 2162   6.837   2.419   8.044  0.1560  1.1525  0.0034
   30CHL1   H14 2163   6.775   2.510   8.060 -1.2880 -0.2950  3.5801
   30CHL1   C15 2164   6.955   2.442   8.139  0.3653 -0.1531  0.5476
   30CHL1  H15A 2165   7.055   2.401   8.113  0.3804 -0.2854  0.8150
   30CHL1  H15B 2166   6.978   2.550   8.146 -0.1274  0.0880 -1.2340
   30CHL1   C16 2167   6.891   2.394   8.270  0.7173 -0.1479  0.4850
   30CHL1  H16A 2168   6.950   2.311   8.315  1.3563  0.5817  1.0395
   30CHL1  H16B 2169   6.859   2.468   8.347  0.8311 -0.5271  0.9047
   30CHL1   C17 2170   6.749   2.331   8.246 -0.5746  0.2220  0.2257
   30CHL1   H17 2171   6.665   2.403   8.253  0.5773  1.5986  0.3186
   30CHL1   C13 2172   6.750   2.304   8.092  0.6077 -0.3237  0.2260
   30CHL1   C18 2173   6.832   2.175   8.055 -0.1656 -0.2735  0.1905
   30CHL1  H18A 2174   6.855   2.175   7.947  0.1863  0.7981  0.2520
   30CHL1  H18B 2175   6.935   2.173   8.098  0.4902 -3.7248 -1.2167
   30CHL1  H18C 2176   6.774   2.082   8.075  0.1464 -0.5486 -0.1855
   30CHL1   C12 2177   6.612   2.311   8.023  0.0365  0.1278 -0.4819
   30CHL1  H12A 2178   6.553   2.222   8.053 -1.6776  0.4402 -2.6901
   30CHL1  H12B 2179   6.565   2.398   8.073  2.6102  1.3686 -0.0512
   30CHL1   C11 2180   6.614   2.318   7.868  0.7558  0.1674  0.5221
   30CHL1  H11A 2181   6.642   2.216   7.836 -0.9396  0.5975 -2.7645
   30CHL1  H11B 2182   6.513   2.338   7.828  0.4775 -0.4876  0.8982
   30CHL1    C9 2183   6.715   2.421   7.813  0.2896  0.5163  0.4848
   30CHL1    H9 2184   6.660   2.511   7.847 -1.9610 -0.7898  0.5221
   30CHL1   C10 2185   6.725   2.435   7.650 -0.1047  0.3660 -0.9651
   30CHL1   C19 2186   6.741   2.294   7.588 -0.3623 -0.2122 -0.0204
   30CHL1  H19A 2187   6.774   2.290   7.482 -0.0079 -0.9620  0.1087
   30CHL1  H19B 2188   6.808   2.232   7.652  2.2542 -0.6556 -2.9492
   30CHL1  H19C 2189   6.638   2.251   7.592 -0.6914  0.6281  1.4715
   30CHL1    C1 2190   6.599   2.503   7.584  0.5205  0.0797  0.9902
   30CHL1   H1A 2191   6.510   2.438   7.597 -0.2780  1.2063  1.3469
   30CHL1   H1B 2192   6.569   2.598   7.634  0.1920  0.2290  0.5216
   30CHL1    C2 2193   6.609   2.543   7.439 -0.5621 -0.0083 -0.5175
   30CHL1   H2A 2194   6.521   2.603   7.408 -0.4154  0.1095 -0.7054
   30CHL1   H2B 2195   6.626   2.453   7.377 -1.4136  0.0050 -0.7927
   30CHL1   C20 2196   6.722   2.210   8.338  0.3667  0.0214 -0.7876
   30CHL1   H20 2197   6.805   2.137   8.331  0.9361  0.6241 -0.4857
   30CHL1   C21 2198   6.595   2.126   8.301 -0.0050 -0.7129  0.0911
   30CHL1  H21A 2199   6.564   2.056   8.382  0.1551 -0.3314  0.4880
   30CHL1  H21B 2200   6.627   2.059   8.218  1.7811  2.4932 -2.0041
   30CHL1  H21C 2201   6.511   2.184   8.256 -0.8840 -2.5484 -0.7673
   30CHL1   C22 2202   6.710   2.256   8.482 -0.5054 -0.0388  0.0071
   30CHL1  H22A 2203   6.803   2.308   8.516 -1.0894 -0.1522  1.9292
   30CHL1  H22B 2204   6.621   2.320   8.497 -0.2369  0.0838  1.2757
   30CHL1   C23 2205   6.702   2.146   8.586 -0.1462  0.1374 -0.2330
   30CHL1  H23A 2206   6.595   2.122   8.569  0.0526 -0.0486 -1.2919
   30CHL1  H23B 2207   6.775   2.064   8.566 -0.6038 -0.0799 -1.0425
   30CHL1   C24 2208   6.727   2.188   8.731  0.4236  0.3212  0.3355
   30CHL1  H24A 2209   6.823   2.244   8.743  0.1996  0.4475  1.6311
   30CHL1  H24B 2210   6.650   2.265   8.751  1.9509  1.9803  0.0475
   30CHL1   C25 2211   6.697   2.083   8.837  0.5033  0.3401 -0.1434
   30CHL1   H25 2212   6.767   1.998   8.822  0.3828  0.2607 -0.2604
   30CHL1   C26 2213   6.708   2.134   8.977  0.1592 -0.9879  0.2108
   30CHL1  H26A 2214   6.623   2.203   9.000  0.3752  0.3923 -2.6181
   30CHL1  H26B 2215   6.703   2.052   9.051  1.7783 -3.2541 -2.0005
   30CHL1  H26C 2216   6.793   2.203   8.996 -0.6631  0.6838 -1.6740
   30CHL1   C27 2217   6.556   2.031   8.808 -0.2566  0.2927 -1.0192
   30CHL1  H27A 2218   6.486   2.116   8.792 -1.7511 -1.1676 -2.4833
   30CHL1  H27B 2219   6.551   1.970   8.715  0.2517  0.4923 -1.1842
   30CHL1  H27C 2220   6.525   1.960   8.887 -0.5338  0.8428 -0.6277
   31CHL1    C3 2221   6.152   5.150   6.695  0.7103  0.2294 -0.8877
   31CHL1    H3 2222   6.047   5.120   6.711  0.9840 -0.4025 -0.2075
   31CHL1    O3 2223   6.166   5.136   6.557 -0.6840 -0.2012 -0.3575
   31CHL1   H3' 2224   6.189   5.045   6.536  2.8639  0.9268 -2.0919
   31CHL1    C4 2225   6.180   5.295   6.728  0.4579 -0.0859 -0.8149
   31CHL1   H4A 2226   6.285   5.317   6.699  1.0252  1.5838  2.1393
   31CHL1   H4B 2227   6.116   5.366   6.670 -0.1187  1.2782  1.3928
   31CHL1    C5 2228   6.157   5.304   6.881 -0.8325  0.3175 -0.1795
   31CHL1    C6 2229   6.060   5.385   6.928  0.2449 -0.2540  0.3549
   31CHL1    H6 2230   6.007   5.449   6.857  3.6105 -0.4732 -2.5975
   31CHL1    C7 2231   6.046   5.410   7.075  0.0614  0.8603  0.0445
   31CHL1   H7A 2232   6.038   5.520   7.088 -1.5735  0.6964  0.5436
   31CHL1   H7B 2233   5.954   5.357   7.108  0.4376  0.0948 -0.0967
   31CHL1    C8 2234   6.164   5.372   7.162  0.3314  0.7217  0.0797
   31CHL1    H8 2235   6.253   5.437   7.150 -0.2119  1.0656 -2.9487
   31CHL1   C14 2236   6.110   5.369   7.301  0.5214  0.7334  0.0082
   31CHL1   H14 2237   6.030   5.292   7.306  1.7451 -0.5134  1.5214
   31CHL1   C15 2238   6.043   5.497   7.363  0.3451  0.0096  0.3223
   31CHL1  H15A 2239   6.100   5.588   7.334 -0.7817 -0.5349 -4.3797
   31CHL1  H15B 2240   5.940   5.512   7.325 -0.3615 -1.0259  1.7445
   31CHL1   C16 2241   6.038   5.478   7.510  0.7596  0.1343 -0.6382
   31CHL1  H16A 2242   6.067   5.565   7.572 -1.1888  0.1555  0.3295
   31CHL1  H16B 2243   5.939   5.458   7.557 -0.5501  0.6192 -3.0460
   31CHL1   C17 2244   6.130   5.361   7.545  0.1225  0.2533 -0.0774
   31CHL1   H17 2245   6.068   5.270   7.561  1.8078 -0.9741 -0.2208
   31CHL1   C13 2246   6.206   5.335   7.409 -0.3776  0.0135  0.0325
   31CHL1   C18 2247   6.334   5.413   7.410  0.5274 -0.1100 -0.2287
   31CHL1  H18A 2248   6.405   5.377   7.487  0.5439  0.7274  0.1598
   31CHL1  H18B 2249   6.393   5.403   7.316 -0.8413 -2.0804 -0.9319
   31CHL1  H18C 2250   6.303   5.518   7.426 -0.7716 -0.6718  1.0747
   31CHL1   C12 2251   6.237   5.182   7.376 -0.1304  0.3122  0.7024
   31CHL1  H12A 2252   6.320   5.139   7.437  0.9511  0.0460 -0.8811
   31CHL1  H12B 2253   6.138   5.132   7.383  0.0434 -0.5625 -1.8420
   31CHL1   C11 2254   6.293   5.161   7.230  0.3379 -0.5781 -0.5610
   31CHL1  H11A 2255   6.394   5.207   7.229 -0.3975  1.1480  0.3438
   31CHL1  H11B 2256   6.301   5.056   7.194 -0.1893 -0.3681 -1.3169
   31CHL1    C9 2257   6.199   5.223   7.117 -0.2343 -0.3812 -1.1265
   31CHL1    H9 2258   6.100   5.174   7.129 -1.5458  2.5374  1.8117
   31CHL1   C10 2259   6.249   5.211   6.971  0.8027 -1.0325 -0.3723
   31CHL1   C19 2260   6.393   5.254   6.964 -0.6914 -0.1048  0.1061
   31CHL1  H19A 2261   6.455   5.175   7.011 -0.8434 -0.3869 -0.1582
   31CHL1  H19B 2262   6.427   5.281   6.862 -3.7052 -2.2723 -1.6732
   31CHL1  H19C 2263   6.404   5.344   7.028 -0.4253 -0.0891  0.0354
   31CHL1    C1 2264   6.217   5.069   6.919 -0.2575 -0.5640  0.5495
   31CHL1   H1A 2265   6.279   4.999   6.980  0.3300  0.7383  1.5116
   31CHL1   H1B 2266   6.116   5.038   6.951  0.2786 -0.5458  2.4331
   31CHL1    C2 2267   6.244   5.053   6.768  0.3518 -0.2247 -0.4063
   31CHL1   H2A 2268   6.219   4.946   6.752  0.7004 -0.5308  0.9421
   31CHL1   H2B 2269   6.349   5.079   6.742  0.5524 -0.0004  0.5767
   31CHL1   C20 2270   6.204   5.377   7.678  0.5528 -0.0708 -0.2653
   31CHL1   H20 2271   6.293   5.443   7.665  1.6775 -1.2395  1.1238
   31CHL1   C21 2272   6.270   5.243   7.708  0.4929  0.2721  0.1076
   31CHL1  H21A 2273   6.192   5.165   7.711  0.2187  0.4639 -1.2439
   31CHL1  H21B 2274   6.336   5.243   7.797 -2.1719  0.1139  2.2116
   31CHL1  H21C 2275   6.335   5.220   7.621 -0.8133  1.9255 -1.3848
   31CHL1   C22 2276   6.119   5.428   7.795 -0.4549 -0.5030 -0.2282
   31CHL1  H22A 2277   6.088   5.534   7.778 -0.2312 -0.4500 -0.3041
   31CHL1  H22B 2278   6.031   5.361   7.786  0.2936 -1.7994  1.5806
   31CHL1   C23 2279   6.171   5.401   7.940  0.1052 -0.0291 -0.3397
   31CHL1  H23A 2280   6.178   5.293   7.966  3.7122  0.3995  1.0407
   31CHL1  H23B 2281   6.271   5.447   7.954  0.7230 -1.0580 -1.1858
   31CHL1   C24 2282   6.086   5.474   8.048 -0.1144  0.5940  0.3333
   31CHL1  H24A 2283   6.099   5.581   8.021  0.7422  0.7225  1.2100
   31CHL1  H24B 2284   5.984   5.431   8.040  0.2371 -0.4030  1.0562
   31CHL1   C25 2285   6.132   5.442   8.185 -0.3469 -0.0921 -0.4370
   31CHL1   H25 2286   6.136   5.332   8.203 -1.2388 -0.4218 -2.0483
   31CHL1   C26 2287   6.273   5.499   8.226 -0.2791  0.0530  0.1576
   31CHL1  H26A 2288   6.275   5.608   8.205 -0.2622  0.2079  0.9503
   31CHL1  H26B 2289   6.298   5.483   8.333  1.9756 -0.2840 -0.3679
   31CHL1  H26C 2290   6.351   5.455   8.161  0.1047 -0.3187  0.8583
   31CHL1   C27 2291   6.037   5.493   8.291  0.4263  0.2641 -0.0142
   31CHL1  H27A 2292   6.086   5.480   8.390  2.3127 -1.7614 -1.1120
   31CHL1  H27B 2293   5.935   5.449   8.296  0.9881 -0.9605  1.5572
   31CHL1  H27C 2294   6.028   5.602   8.274  0.1701  0.0476 -1.4132
   32CHL1    C3 2295   1.118   4.532   6.894 -0.8326  0.5663  0.2742
   32CHL1    H3 2296   1.110   4.639   6.925 -2.7181  0.4474  0.2939
   32CHL1    O3 2297   1.137   4.508   6.760  0.1782  0.5231  0.6921
   32CHL1   H3' 2298   1.087   4.577   6.716  2.6390  0.8677 -1.8475
   32CHL1    C4 2299   1.248   4.474   6.960  0.0284 -0.1249  0.1017
   32CHL1   H4A 2300   1.269   4.371   6.926 -0.3937 -0.3740  0.5771
   32CHL1   H4B 2301   1.341   4.523   6.925  1.3306 -1.5064  1.4992
   32CHL1    C5 2302   1.226   4.476   7.109  0.1110 -0.4734 -0.2933
   32CHL1    C6 2303   1.316   4.537   7.195  0.4477 -0.4881  0.5411
   32CHL1    H6 2304   1.403   4.588   7.151  0.1005  0.2578  0.7063
   32CHL1    C7 2305   1.300   4.523   7.345 -0.0648  0.5699 -0.7254
   32CHL1   H7A 2306   1.396   4.490   7.390 -0.1463  0.3499 -0.7124
   32CHL1   H7B 2307   1.298   4.626   7.386  0.0834 -0.0127  0.8467
   32CHL1    C8 2308   1.197   4.427   7.408  0.6087 -0.2431  0.3773
   32CHL1    H8 2309   1.231   4.321   7.403  1.9856  0.1025  1.6464
   32CHL1   C14 2310   1.138   4.478   7.544 -0.6502  0.3849 -0.0918
   32CHL1   H14 2311   1.092   4.577   7.525 -0.7855  0.7288  1.8925
   32CHL1   C15 2312   1.244   4.513   7.648  0.3467 -0.0215 -0.3500
   32CHL1  H15A 2313   1.334   4.448   7.647  0.0447 -0.5004  0.8589
   32CHL1  H15B 2314   1.270   4.619   7.631  0.7615 -0.0282  0.2214
   32CHL1   C16 2315   1.162   4.482   7.777 -0.1212 -0.5257  0.0119
   32CHL1  H16A 2316   1.214   4.394   7.820 -0.2613 -0.2528  0.7575
   32CHL1  H16B 2317   1.162   4.568   7.849  0.1860  0.3529 -1.0111
   32CHL1   C17 2318   1.015   4.450   7.743 -0.6436  0.5663  0.3847
   32CHL1   H17 2319   0.959   4.545   7.732 -1.2960  0.1406 -0.0535
   32CHL1   C13 2320   1.033   4.382   7.606  0.3550 -0.2459  0.2148
   32CHL1   C18 2321   1.080   4.239   7.617 -0.1875 -0.2984  0.4414
   32CHL1  H18A 2322   1.003   4.180   7.671 -1.4177 -0.9482 -1.8898
   32CHL1  H18B 2323   1.088   4.195   7.515 -1.7185 -0.1930  0.2554
   32CHL1  H18C 2324   1.176   4.229   7.672  0.7258 -0.0223 -1.0240
   32CHL1   C12 2325   0.906   4.387   7.511 -0.3175  0.3669 -0.2701
   32CHL1  H12A 2326   0.845   4.301   7.547 -2.4793  0.7254 -2.8202
   32CHL1  H12B 2327   0.865   4.489   7.525  1.8378  1.5204 -1.8240
   32CHL1   C11 2328   0.945   4.359   7.370  0.4031  0.1745 -0.1012
   32CHL1  H11A 2329   0.958   4.250   7.355  0.3636  0.2057 -0.3575
   32CHL1  H11B 2330   0.862   4.382   7.301 -0.1514 -1.5438 -0.0338
   32CHL1    C9 2331   1.072   4.439   7.315 -0.2932  0.5076 -0.3043
   32CHL1    H9 2332   1.043   4.546   7.318 -1.1545  0.2580  1.1462
   32CHL1   C10 2333   1.102   4.406   7.165  0.3093 -0.0978 -0.0799
   32CHL1   C19 2334   1.123   4.255   7.146  0.7892  0.3700 -0.1719
   32CHL1  H19A 2335   1.155   4.240   7.040  0.1477  0.0231 -0.3217
   32CHL1  H19B 2336   1.202   4.205   7.206  1.4841 -0.7476 -1.9227
   32CHL1  H19C 2337   1.028   4.198   7.157  1.5228 -1.4059 -2.2686
   32CHL1    C1 2338   0.974   4.449   7.083 -0.0982  0.0323 -0.0437
   32CHL1   H1A 2339   0.896   4.371   7.098  0.1151  0.1198  1.6840
   32CHL1   H1B 2340   0.937   4.546   7.121  1.2614  0.6432 -0.2486
   32CHL1    C2 2341   0.995   4.462   6.931  0.7235 -0.0902 -0.8378
   32CHL1   H2A 2342   0.906   4.505   6.881 -0.9056  0.4348  2.2610
   32CHL1   H2B 2343   1.000   4.357   6.894 -1.0772  0.0184 -1.4778
   32CHL1   C20 2344   0.940   4.365   7.846  0.1953 -1.1861 -0.2801
   32CHL1   H20 2345   0.960   4.258   7.827  0.6062 -0.9334 -1.3705
   32CHL1   C21 2346   0.790   4.383   7.826 -0.1316 -0.0375 -0.1979
   32CHL1  H21A 2347   0.735   4.308   7.887 -1.1550  0.5352 -0.4038
   32CHL1  H21B 2348   0.752   4.353   7.727 -0.0904  0.3905 -0.3452
   32CHL1  H21C 2349   0.768   4.491   7.838 -1.3566 -0.1475 -1.3388
   32CHL1   C22 2350   0.985   4.398   7.992  0.2971 -0.5818 -0.0249
   32CHL1  H22A 2351   1.095   4.404   8.010  0.4996  1.9620 -1.6079
   32CHL1  H22B 2352   0.965   4.503   8.023 -2.2284 -1.0712  0.2307
   32CHL1   C23 2353   0.906   4.312   8.094  0.2134  0.0289  0.5741
   32CHL1  H23A 2354   0.799   4.339   8.086  0.8119  1.9981 -1.8115
   32CHL1  H23B 2355   0.911   4.202   8.077 -0.3703 -0.2785  2.1529
   32CHL1   C24 2356   0.946   4.335   8.241  0.3094 -0.2948  0.0245
   32CHL1  H24A 2357   1.054   4.306   8.240  0.5572  0.5918 -0.3113
   32CHL1  H24B 2358   0.939   4.443   8.267 -0.0704 -0.5252  0.9036
   32CHL1   C25 2359   0.865   4.245   8.333 -0.0336 -1.0929 -0.4051
   32CHL1   H25 2360   0.859   4.151   8.275  1.9296  0.3577 -3.1884
   32CHL1   C26 2361   0.941   4.203   8.470  0.7594 -0.0881  0.7346
   32CHL1  H26A 2362   0.938   4.292   8.535 -1.1486  1.2292 -1.0054
   32CHL1  H26B 2363   0.879   4.121   8.513 -0.1278  1.2546  2.1372
   32CHL1  H26C 2364   1.044   4.174   8.440  0.2200  0.4378 -1.8946
   32CHL1   C27 2365   0.727   4.302   8.357  0.0765 -0.3659 -0.0062
   32CHL1  H27A 2366   0.731   4.334   8.463  2.5426 -1.4014  0.3014
   32CHL1  H27B 2367   0.714   4.397   8.301 -1.5348 -0.8897 -0.5732
   32CHL1  H27C 2368   0.648   4.227   8.334 -0.3605  0.1834 -0.3186
   33CHL1    C3 2369   1.865   3.746   6.855  0.0319 -0.4775 -0.6908
   33CHL1    H3 2370   1.857   3.638   6.831 -2.5259  0.1071 -3.0667
   33CHL1    O3 2371   1.864   3.814   6.732  0.1301  0.2240 -0.4395
   33CHL1   H3' 2372   1.877   3.906   6.756  4.0524 -0.8364  2.6347
   33CHL1    C4 2373   1.747   3.795   6.942 -0.1011 -0.0902  0.5202
   33CHL1   H4A 2374   1.753   3.905   6.935  2.8609  0.0434  3.1523
   33CHL1   H4B 2375   1.656   3.772   6.881  1.3078 -0.6008 -1.4997
   33CHL1    C5 2376   1.739   3.768   7.090 -0.1955 -0.0363  1.0099
   33CHL1    C6 2377   1.631   3.716   7.152 -0.1022  0.3890  0.2934
   33CHL1    H6 2378   1.542   3.694   7.091 -0.0822 -0.7037  0.6377
   33CHL1    C7 2379   1.622   3.684   7.294  0.5310  0.3003 -0.1124
   33CHL1   H7A 2380   1.520   3.714   7.328  1.0712  0.9738  0.9658
   33CHL1   H7B 2381   1.625   3.573   7.297  2.2934  0.3466  0.8576
   33CHL1    C8 2382   1.733   3.745   7.381  0.0250  0.4085 -0.3108
   33CHL1    H8 2383   1.716   3.855   7.390  0.9142  0.4339  1.5944
   33CHL1   C14 2384   1.735   3.685   7.522  0.1932 -0.0886 -0.1824
   33CHL1   H14 2385   1.746   3.575   7.516 -2.5788 -0.4348 -0.5139
   33CHL1   C15 2386   1.611   3.705   7.615  0.0503  0.2159  0.0846
   33CHL1  H15A 2387   1.559   3.803   7.601  0.4481  0.6799  1.6284
   33CHL1  H15B 2388   1.535   3.628   7.591 -0.1567  0.0990  1.0509
   33CHL1   C16 2389   1.668   3.699   7.757  0.7753 -0.6543  0.1676
   33CHL1  H16A 2390   1.654   3.799   7.804 -1.1965  0.1850 -2.0092
   33CHL1  H16B 2391   1.622   3.617   7.816 -2.6876  0.4521 -0.7704
   33CHL1   C17 2392   1.819   3.674   7.742 -0.6940  0.2552  1.1470
   33CHL1   H17 2393   1.838   3.568   7.717  0.0326  0.6411  0.0172
   33CHL1   C13 2394   1.849   3.738   7.606 -1.0070  0.8577  0.1348
   33CHL1   C18 2395   1.848   3.895   7.622  0.6635 -0.0154  0.2383
   33CHL1  H18A 2396   1.747   3.928   7.652 -1.0370 -2.3037 -2.4274
   33CHL1  H18B 2397   1.927   3.921   7.696 -0.2144  1.0656  0.8113
   33CHL1  H18C 2398   1.858   3.938   7.520 -1.0687 -1.0279 -0.4046
   33CHL1   C12 2399   1.983   3.692   7.539 -0.3700 -0.2561  0.1775
   33CHL1  H12A 2400   2.070   3.724   7.600 -0.5292  1.2148 -0.3176
   33CHL1  H12B 2401   1.993   3.582   7.533 -0.4244 -0.1988 -1.5466
   33CHL1   C11 2402   1.992   3.756   7.395 -0.2793  0.9024 -0.5442
   33CHL1  H11A 2403   2.007   3.866   7.398 -0.0267  0.9066 -1.6530
   33CHL1  H11B 2404   2.087   3.719   7.351 -0.7351  0.5009 -1.2026
   33CHL1    C9 2405   1.869   3.719   7.303  0.0076  0.2553 -0.3906
   33CHL1    H9 2406   1.880   3.611   7.283  0.5879  0.1707  0.3532
   33CHL1   C10 2407   1.872   3.785   7.164 -0.1059 -0.0553 -0.6000
   33CHL1   C19 2408   1.889   3.938   7.188 -0.1338  0.3852  0.0783
   33CHL1  H19A 2409   1.860   3.997   7.098  1.0447 -0.9846 -1.2436
   33CHL1  H19B 2410   1.830   3.980   7.272 -0.1515  2.3776 -0.8598
   33CHL1  H19C 2411   1.995   3.962   7.210 -0.1610  0.0695  0.5820
   33CHL1    C1 2412   1.985   3.730   7.077 -0.6760 -0.0537 -0.2921
   33CHL1   H1A 2413   2.084   3.754   7.123 -0.2498 -1.1567 -0.5995
   33CHL1   H1B 2414   1.976   3.620   7.070  2.2722 -0.5425  1.7635
   33CHL1    C2 2415   1.994   3.783   6.928  0.1532 -0.0334  0.2082
   33CHL1   H2A 2416   2.076   3.738   6.868  0.5434  1.7795 -0.6710
   33CHL1   H2B 2417   2.011   3.892   6.936  0.1474  0.1360 -1.5718
   33CHL1   C20 2418   1.909   3.718   7.855  0.1361  0.3461 -0.0461
   33CHL1   H20 2419   2.001   3.758   7.806 -1.1841  0.0965 -2.9359
   33CHL1   C21 2420   1.939   3.590   7.938 -0.0701 -0.1906  0.0451
   33CHL1  H21A 2421   2.022   3.609   8.010  1.0627  1.4454 -1.5943
   33CHL1  H21B 2422   1.962   3.501   7.875 -1.4132 -0.2018 -0.4612
   33CHL1  H21C 2423   1.848   3.574   8.000 -0.1767  0.4157  0.0539
   33CHL1   C22 2424   1.871   3.845   7.943 -0.4881 -0.1249  0.2581
   33CHL1  H22A 2425   1.866   3.935   7.877  1.5382  1.4499  2.0827
   33CHL1  H22B 2426   1.768   3.842   7.983 -0.6197  2.8652  0.3628
   33CHL1   C23 2427   1.951   3.860   8.077 -0.0068 -0.0396 -0.1489
   33CHL1  H23A 2428   1.947   3.758   8.121  0.3115 -0.2673 -0.6395
   33CHL1  H23B 2429   2.051   3.888   8.038  0.4111 -1.2163  0.0488
   33CHL1   C24 2430   1.889   3.962   8.175 -0.5969  0.5416 -0.0215
   33CHL1  H24A 2431   1.877   4.065   8.137 -0.3172  1.2538  1.7174
   33CHL1  H24B 2432   1.781   3.938   8.177 -0.7627  1.0157 -1.8484
   33CHL1   C25 2433   1.954   3.960   8.311 -0.1553  0.4189 -1.3204
   33CHL1   H25 2434   2.062   3.941   8.294  0.0742  0.6723 -0.1758
   33CHL1   C26 2435   1.935   4.098   8.382 -0.7446 -0.1059 -0.0981
   33CHL1  H26A 2436   1.952   4.087   8.491  0.8124 -1.1920 -0.4127
   33CHL1  H26B 2437   2.012   4.162   8.334  0.1300 -0.3738  0.9065
   33CHL1  H26C 2438   1.835   4.140   8.360 -0.3537 -0.3814 -2.7657
   33CHL1   C27 2439   1.893   3.848   8.400  0.1467 -0.4640  0.0522
   33CHL1  H27A 2440   1.783   3.837   8.390  0.3869 -2.2387 -1.2805
   33CHL1  H27B 2441   1.943   3.756   8.361  1.0886  0.4795 -1.0381
   33CHL1  H27C 2442   1.923   3.861   8.506 -0.4949 -1.8995  0.4471
   34CHL1    C3 2443   2.860   1.496   7.101 -0.0814 -0.6324 -0.4866
   34CHL1    H3 2444   2.920   1.402   7.098 -0.4599 -0.9838  1.5944
   34CHL1    O3 2445   2.873   1.556   6.974 -0.6932 -0.3537  0.5388
   34CHL1   H3' 2446   2.963   1.564   6.941 -0.4234  0.4365  1.4417
   34CHL1    C4 2447   2.707   1.465   7.128 -0.3292 -0.7587  0.1669
   34CHL1   H4A 2448   2.653   1.559   7.106  0.1287 -0.9209 -1.8024
   34CHL1   H4B 2449   2.677   1.393   7.050 -0.4421  3.1049 -3.7032
   34CHL1    C5 2450   2.677   1.418   7.271  0.2123  0.3929  0.3636
   34CHL1    C6 2451   2.630   1.295   7.294 -0.3663  0.2250 -0.0514
   34CHL1    H6 2452   2.605   1.224   7.213  1.6415 -1.4674  0.7077
   34CHL1    C7 2453   2.594   1.242   7.430  0.0133 -0.5420 -0.5059
   34CHL1   H7A 2454   2.490   1.203   7.433 -0.2516 -0.2032 -3.1227
   34CHL1   H7B 2455   2.661   1.157   7.454  1.8923  0.8258 -0.6576
   34CHL1    C8 2456   2.612   1.345   7.544 -0.4032 -0.0772 -0.0135
   34CHL1    H8 2457   2.525   1.413   7.548 -0.4010 -0.0922  0.2537
   34CHL1   C14 2458   2.619   1.281   7.681  0.3827  0.2077 -0.5741
   34CHL1   H14 2459   2.708   1.216   7.690  0.2415  0.3307  4.0529
   34CHL1   C15 2460   2.506   1.188   7.723  0.2942  0.6656  0.2536
   34CHL1  H15A 2461   2.409   1.242   7.713  0.2059  0.7726  1.5898
   34CHL1  H15B 2462   2.516   1.089   7.674  1.4401  1.2155 -0.6754
   34CHL1   C16 2463   2.529   1.171   7.873  0.6905 -0.0117 -0.1049
   34CHL1  H16A 2464   2.433   1.192   7.925  0.7551  0.7986 -0.3075
   34CHL1  H16B 2465   2.554   1.066   7.902 -0.4205 -0.4875 -0.8281
   34CHL1   C17 2466   2.641   1.267   7.913 -0.2802 -0.3876  0.0014
   34CHL1   H17 2467   2.734   1.208   7.901 -1.0614 -1.6520  0.0565
   34CHL1   C13 2468   2.648   1.368   7.802 -0.2102 -0.2762  0.0876
   34CHL1   C18 2469   2.530   1.466   7.827 -0.6064 -0.0173 -0.0131
   34CHL1  H18A 2470   2.562   1.526   7.915  1.2346 -2.1684  0.8786
   34CHL1  H18B 2471   2.497   1.529   7.741 -2.3415 -0.5989  0.1863
   34CHL1  H18C 2472   2.439   1.407   7.850  0.5771 -1.1533  2.0702
   34CHL1   C12 2473   2.773   1.457   7.774  0.5996  0.7278 -0.2256
   34CHL1  H12A 2474   2.787   1.528   7.859 -0.0749 -1.2226  1.5876
   34CHL1  H12B 2475   2.865   1.395   7.765 -0.0427 -0.0063 -2.2736
   34CHL1   C11 2476   2.760   1.537   7.643 -0.7244 -0.5175 -0.3179
   34CHL1  H11A 2477   2.677   1.610   7.648  0.1366  0.4832 -0.2304
   34CHL1  H11B 2478   2.854   1.592   7.622 -0.5597  0.7145  3.0252
   34CHL1    C9 2479   2.739   1.440   7.522 -0.5905  0.4724 -1.3919
   34CHL1    H9 2480   2.821   1.366   7.524 -0.1903  0.8963 -2.0010
   34CHL1   C10 2481   2.738   1.513   7.382 -0.1490  0.9208 -0.1094
   34CHL1   C19 2482   2.641   1.636   7.392  0.5643 -0.4788  0.5690
   34CHL1  H19A 2483   2.672   1.714   7.466 -1.1265  0.6219  0.1776
   34CHL1  H19B 2484   2.609   1.680   7.295 -0.0534 -1.0227  0.5254
   34CHL1  H19C 2485   2.550   1.589   7.434  1.2807 -0.2581  2.5243
   34CHL1    C1 2486   2.884   1.559   7.347 -0.0661 -0.0207  0.0499
   34CHL1   H1A 2487   2.898   1.650   7.410 -1.0754  0.5313 -0.5041
   34CHL1   H1B 2488   2.954   1.479   7.379  0.8133  1.5099  2.2336
   34CHL1    C2 2489   2.909   1.601   7.206 -0.1638 -0.2978 -0.2213
   34CHL1   H2A 2490   3.016   1.623   7.186 -0.1600 -0.5464 -0.4926
   34CHL1   H2B 2491   2.861   1.698   7.183  0.4477 -0.1175 -0.7874
   34CHL1   C20 2492   2.642   1.300   8.066 -0.3046  0.6775 -0.3545
   34CHL1   H20 2493   2.700   1.394   8.074 -0.3493  0.5558  2.7475
   34CHL1   C21 2494   2.715   1.184   8.145  0.5573 -0.5987  0.6250
   34CHL1  H21A 2495   2.822   1.166   8.118  0.1335 -1.0878 -0.8108
   34CHL1  H21B 2496   2.655   1.092   8.131  1.0587 -0.5673 -2.2668
   34CHL1  H21C 2497   2.713   1.196   8.255 -0.0138 -1.7386  0.7518
   34CHL1   C22 2498   2.506   1.336   8.135  0.1125 -0.5105 -0.8014
   34CHL1  H22A 2499   2.442   1.404   8.075 -0.0313 -0.8939 -1.0893
   34CHL1  H22B 2500   2.442   1.249   8.161  1.7928 -1.2905  0.9116
   34CHL1   C23 2501   2.519   1.416   8.273 -0.4548  0.0849  0.5046
   34CHL1  H23A 2502   2.591   1.356   8.332 -0.8877  0.2346  1.1988
   34CHL1  H23B 2503   2.564   1.516   8.258 -0.9596  0.3340  0.6065
   34CHL1   C24 2504   2.386   1.433   8.345  0.1866  0.1498  0.3166
   34CHL1  H24A 2505   2.330   1.502   8.278 -1.4567  0.1223  1.6010
   34CHL1  H24B 2506   2.329   1.338   8.342 -2.0801  1.4497 -1.3884
   34CHL1   C25 2507   2.382   1.511   8.482 -0.4186  0.1525 -0.3096
   34CHL1   H25 2508   2.414   1.617   8.472  1.8125 -0.2872  1.4009
   34CHL1   C26 2509   2.234   1.509   8.536 -0.4218 -0.0502  0.2192
   34CHL1  H26A 2510   2.226   1.524   8.646 -1.8975 -0.8537  0.2630
   34CHL1  H26B 2511   2.165   1.580   8.485  0.5404  3.2423  3.1311
   34CHL1  H26C 2512   2.203   1.404   8.517  0.7644 -0.2852 -0.4979
   34CHL1   C27 2513   2.478   1.447   8.583 -0.2964 -0.1342 -0.1709
   34CHL1  H27A 2514   2.489   1.503   8.679  1.3503  0.5039 -0.6933
   34CHL1  H27B 2515   2.444   1.342   8.592  1.8085 -0.8269  0.1228
   34CHL1  H27C 2516   2.581   1.435   8.544  0.3083 -0.9491  1.5733
   35CHL1    C3 2517   0.188   3.706   7.224 -0.0125 -0.5890 -0.0324
   35CHL1    H3 2518   0.081   3.679   7.236 -0.1206 -0.0902  0.1558
   35CHL1    O3 2519   0.202   3.767   7.096  0.3417  0.1809 -0.3278
   35CHL1   H3' 2520   0.285   3.814   7.109  0.5595 -0.5786  1.2489
   35CHL1    C4 2521   0.209   3.813   7.336 -0.8283  0.3286  0.0963
   35CHL1   H4A 2522   0.309   3.851   7.306  0.0817 -0.7651  1.6001
   35CHL1   H4B 2523   0.138   3.896   7.315 -0.0235  0.5506 -1.9921
   35CHL1    C5 2524   0.204   3.770   7.478  0.0462  0.2523 -0.6785
   35CHL1    C6 2525   0.127   3.830   7.567  0.1891  0.2523  0.6052
   35CHL1    H6 2526   0.061   3.912   7.536 -0.2725 -0.4169 -0.2278
   35CHL1    C7 2527   0.126   3.799   7.704  0.6663 -0.7536 -0.1245
   35CHL1   H7A 2528   0.133   3.892   7.765  1.1359 -0.3215 -0.8307
   35CHL1   H7B 2529   0.034   3.739   7.722  0.1275 -0.6191 -2.2175
   35CHL1    C8 2530   0.235   3.700   7.748  0.6556 -0.0218 -1.1569
   35CHL1    H8 2531   0.329   3.754   7.773  0.1824 -0.8473  3.2550
   35CHL1   C14 2532   0.197   3.635   7.880  0.1367 -0.5532 -0.7786
   35CHL1   H14 2533   0.108   3.573   7.858  0.2640  0.0934 -3.5663
   35CHL1   C15 2534   0.159   3.729   7.987  0.2418  0.2898  0.0344
   35CHL1  H15A 2535   0.241   3.803   7.988 -0.7855  1.5095 -1.4793
   35CHL1  H15B 2536   0.064   3.785   7.984 -0.2258 -0.4919 -0.1050
   35CHL1   C16 2537   0.146   3.638   8.104 -0.1163  0.7667 -0.3033
   35CHL1  H16A 2538   0.181   3.690   8.195  1.4105 -0.9802  0.1661
   35CHL1  H16B 2539   0.041   3.605   8.120 -0.0302  1.7736  2.9513
   35CHL1   C17 2540   0.225   3.507   8.078 -0.4450 -0.2089  0.2237
   35CHL1   H17 2541   0.152   3.428   8.051  1.0230 -1.3666 -0.5348
   35CHL1   C13 2542   0.303   3.537   7.945  0.0234  0.1618  0.2326
   35CHL1   C18 2543   0.428   3.617   7.994  0.0644  0.5618 -0.5264
   35CHL1  H18A 2544   0.413   3.697   8.070 -0.9362 -0.6065  0.5480
   35CHL1  H18B 2545   0.506   3.553   8.042  0.2721  1.4187  0.3083
   35CHL1  H18C 2546   0.486   3.674   7.919  1.3422  1.4775  1.0811
   35CHL1   C12 2547   0.329   3.430   7.840  0.9087 -0.2960  0.4565
   35CHL1  H12A 2548   0.401   3.356   7.882 -0.2259 -1.5120  0.3442
   35CHL1  H12B 2549   0.234   3.373   7.826  0.9316 -0.5687  1.3314
   35CHL1   C11 2550   0.371   3.492   7.702 -0.6892  0.1426 -0.1284
   35CHL1  H11A 2551   0.466   3.547   7.720 -0.6737  0.3527 -0.8501
   35CHL1  H11B 2552   0.371   3.410   7.627 -1.0052  1.6021 -1.7827
   35CHL1    C9 2553   0.265   3.591   7.645  0.5837 -0.1614  0.0849
   35CHL1    H9 2554   0.162   3.550   7.641 -0.6487  2.6769  0.2123
   35CHL1   C10 2555   0.292   3.649   7.510  0.2019  0.1111 -0.0513
   35CHL1   C19 2556   0.438   3.698   7.501 -0.3885 -0.2422  0.3641
   35CHL1  H19A 2557   0.511   3.614   7.499 -2.0192 -1.7011 -1.0627
   35CHL1  H19B 2558   0.453   3.760   7.410 -1.4792  0.1514  0.4391
   35CHL1  H19C 2559   0.448   3.767   7.587 -1.1661 -0.7149  0.8392
   35CHL1    C1 2560   0.263   3.544   7.398  0.6694  0.2050 -0.1984
   35CHL1   H1A 2561   0.330   3.458   7.420  1.2241  0.7289  0.1787
   35CHL1   H1B 2562   0.163   3.498   7.410  1.4798 -1.3912  0.7168
   35CHL1    C2 2563   0.282   3.589   7.251  0.1035 -0.5317 -0.4586
   35CHL1   H2A 2564   0.265   3.502   7.185 -1.7561 -0.7396  0.2486
   35CHL1   H2B 2565   0.388   3.616   7.232  0.1173 -1.0470 -1.1580
   35CHL1   C20 2566   0.305   3.450   8.195 -0.0432  0.2555 -0.4228
   35CHL1   H20 2567   0.382   3.525   8.224 -1.5140  1.3746  0.7695
   35CHL1   C21 2568   0.373   3.313   8.166  0.4095  0.8724 -0.5306
   35CHL1  H21A 2569   0.476   3.303   8.208  0.3601  0.5979 -0.4734
   35CHL1  H21B 2570   0.381   3.289   8.058  1.2135 -1.1854 -0.0494
   35CHL1  H21C 2571   0.313   3.228   8.205 -0.5057  2.0129  0.6299
   35CHL1   C22 2572   0.220   3.436   8.320 -0.6590  0.1216  0.4969
   35CHL1  H22A 2573   0.166   3.530   8.346 -1.3523 -0.3008  0.6181
   35CHL1  H22B 2574   0.148   3.355   8.299 -2.0429  1.3685  0.2113
   35CHL1   C23 2575   0.287   3.403   8.455  0.2407 -0.6455  0.9737
   35CHL1  H23A 2576   0.337   3.304   8.447  2.3801  0.3983  0.7708
   35CHL1  H23B 2577   0.364   3.479   8.480  0.6729 -1.3626  1.9225
   35CHL1   C24 2578   0.184   3.406   8.570  0.3934 -0.7292 -0.3702
   35CHL1  H24A 2579   0.116   3.492   8.550 -0.6592 -1.8983 -2.1074
   35CHL1  H24B 2580   0.128   3.310   8.572  1.4117 -1.4071 -2.0828
   35CHL1   C25 2581   0.241   3.426   8.714  0.1198  0.5494 -0.4343
   35CHL1   H25 2582   0.306   3.515   8.700 -1.5825  1.7970 -0.7176
   35CHL1   C26 2583   0.132   3.459   8.811 -0.1619 -0.4939 -0.4195
   35CHL1  H26A 2584   0.162   3.511   8.904 -0.2602  1.6442 -1.5300
   35CHL1  H26B 2585   0.068   3.537   8.766  1.2352  1.0616  0.2165
   35CHL1  H26C 2586   0.063   3.375   8.834  0.0461 -0.0805  1.9455
   35CHL1   C27 2587   0.328   3.310   8.765  0.0809  0.2053  0.3859
   35CHL1  H27A 2588   0.259   3.224   8.780 -0.3279  0.0791 -1.9071
   35CHL1  H27B 2589   0.381   3.328   8.861  2.3780 -2.7530 -0.1571
   35CHL1  H27C 2590   0.403   3.281   8.687 -2.2802 -2.8527 -0.9428
   36CHL1    C3 2591   4.495   2.901   7.158  0.6945 -0.4716 -0.3106
   36CHL1    H3 2592   4.547   2.803   7.164  0.8419 -0.2909  3.5435
   36CHL1    O3 2593   4.462   2.912   7.024  0.7301  0.3312  0.2830
   36CHL1   H3' 2594   4.516   2.985   6.993  0.4194  0.1847 -0.6442
   36CHL1    C4 2595   4.366   2.901   7.234 -0.2385  1.1976 -0.2621
   36CHL1   H4A 2596   4.315   2.998   7.218 -1.9122  0.0532 -2.4511
   36CHL1   H4B 2597   4.309   2.819   7.185  2.6804  0.5269 -2.7822
   36CHL1    C5 2598   4.390   2.878   7.382 -0.2002  0.1001 -0.1216
   36CHL1    C6 2599   4.348   2.765   7.445 -0.7293 -0.4012  0.0896
   36CHL1    H6 2600   4.286   2.687   7.399 -0.3910 -1.2013  0.9432
   36CHL1    C7 2601   4.369   2.738   7.590 -0.0510  0.0324  0.0977
   36CHL1   H7A 2602   4.275   2.728   7.648  1.2149  2.2244  2.7968
   36CHL1   H7B 2603   4.428   2.646   7.610  0.5293  0.0015 -1.6093
   36CHL1    C8 2604   4.440   2.859   7.666 -0.1455  0.1560 -0.1425
   36CHL1    H8 2605   4.362   2.934   7.692  0.5945  0.5350  1.0682
   36CHL1   C14 2606   4.508   2.812   7.793 -0.3422  0.1238 -0.7107
   36CHL1   H14 2607   4.594   2.748   7.763 -0.7432  0.6462 -3.1421
   36CHL1   C15 2608   4.425   2.713   7.886 -0.7105  0.4529 -0.1112
   36CHL1  H15A 2609   4.318   2.745   7.881 -0.3263  1.7048 -1.0081
   36CHL1  H15B 2610   4.443   2.606   7.864 -2.2587 -0.0955  1.1183
   36CHL1   C16 2611   4.484   2.746   8.026 -1.0252  0.1503 -0.1970
   36CHL1  H16A 2612   4.403   2.802   8.078 -1.1074  0.2053 -0.3843
   36CHL1  H16B 2613   4.512   2.653   8.080 -0.6856 -0.3728 -1.2471
   36CHL1   C17 2614   4.608   2.833   7.998 -0.3817 -0.2459  0.3110
   36CHL1   H17 2615   4.683   2.763   7.956 -1.1965 -0.0641 -1.5469
   36CHL1   C13 2616   4.571   2.921   7.878  0.6344 -0.3197  0.1806
   36CHL1   C18 2617   4.455   3.022   7.919  0.1177 -0.0191  0.0492
   36CHL1  H18A 2618   4.435   3.087   7.831  2.1430 -0.1505 -0.5493
   36CHL1  H18B 2619   4.363   2.972   7.956  0.8968 -0.4072  1.5379
   36CHL1  H18C 2620   4.486   3.091   8.000 -0.6371 -1.0093  1.2163
   36CHL1   C12 2621   4.682   2.991   7.799  0.2907  0.1195  0.1116
   36CHL1  H12A 2622   4.708   3.079   7.862  1.9630 -0.2643  0.0113
   36CHL1  H12B 2623   4.768   2.921   7.787 -0.9986 -1.1226 -2.7619
   36CHL1   C11 2624   4.635   3.040   7.659 -0.6890  0.5844  0.6531
   36CHL1  H11A 2625   4.565   3.125   7.667 -0.5854  0.6680  0.6801
   36CHL1  H11B 2626   4.725   3.071   7.602 -1.1020  0.8922  0.1672
   36CHL1    C9 2627   4.557   2.924   7.578  0.2011 -0.3315 -0.4559
   36CHL1    H9 2628   4.624   2.840   7.549 -2.3526 -1.7157 -2.8702
   36CHL1   C10 2629   4.493   2.967   7.445 -0.5470 -0.1631 -0.3803
   36CHL1   C19 2630   4.410   3.101   7.473  0.0680 -0.4410  0.5285
   36CHL1  H19A 2631   4.349   3.142   7.390  1.5118 -0.0491 -0.3671
   36CHL1  H19B 2632   4.332   3.088   7.551 -2.2732 -1.6028 -1.8622
   36CHL1  H19C 2633   4.481   3.185   7.489  0.8531 -1.0356  0.2118
   36CHL1    C1 2634   4.613   3.013   7.354  0.3422  0.8378  0.0721
   36CHL1   H1A 2635   4.659   3.106   7.395  0.9145  0.5825  0.0201
   36CHL1   H1B 2636   4.680   2.928   7.379  2.0510  2.0259 -0.3077
   36CHL1    C2 2637   4.581   3.018   7.204  0.5798 -0.1953 -0.0229
   36CHL1   H2A 2638   4.672   3.019   7.139  1.6947 -1.7378  1.4288
   36CHL1   H2B 2639   4.534   3.119   7.200 -1.6691 -1.2006 -0.4248
   36CHL1   C20 2640   4.674   2.896   8.114  0.5047 -0.5647 -0.4045
   36CHL1   H20 2641   4.632   2.998   8.124 -1.4812 -0.9992 -3.1897
   36CHL1   C21 2642   4.826   2.902   8.093  0.1079  0.3622  0.1769
   36CHL1  H21A 2643   4.875   2.802   8.100 -0.4089  0.1637  1.0395
   36CHL1  H21B 2644   4.875   2.973   8.163 -0.0545  1.8373 -1.1356
   36CHL1  H21C 2645   4.849   2.940   7.991  0.8101 -1.0063 -0.2006
   36CHL1   C22 2646   4.637   2.837   8.251 -0.0605 -0.4415 -0.2231
   36CHL1  H22A 2647   4.528   2.860   8.259 -0.0579  0.2661 -1.8209
   36CHL1  H22B 2648   4.649   2.727   8.257 -0.4294 -0.4549  0.3432
   36CHL1   C23 2649   4.719   2.902   8.366 -0.3670  0.1242  1.0713
   36CHL1  H23A 2650   4.828   2.880   8.364 -0.5230 -0.6376  0.5110
   36CHL1  H23B 2651   4.702   3.012   8.362  0.2144  0.1880 -0.0429
   36CHL1   C24 2652   4.665   2.859   8.506 -0.5520  0.2470 -0.2162
   36CHL1  H24A 2653   4.558   2.885   8.520 -0.1947  0.8141  1.9685
   36CHL1  H24B 2654   4.670   2.748   8.502  2.8774  0.3495 -2.7987
   36CHL1   C25 2655   4.741   2.935   8.621  0.6993  0.7705 -0.0546
   36CHL1   H25 2656   4.841   2.948   8.574  0.4359 -0.5949 -1.0634
   36CHL1   C26 2657   4.692   3.072   8.662  0.1160 -0.2378 -0.3106
   36CHL1  H26A 2658   4.763   3.103   8.742  0.8747 -0.5188 -0.8568
   36CHL1  H26B 2659   4.701   3.148   8.582  1.1310  0.3887  0.3789
   36CHL1  H26C 2660   4.589   3.060   8.702 -0.5217  0.3536 -1.7299
   36CHL1   C27 2661   4.736   2.846   8.746 -0.1646 -0.7145 -0.1539
   36CHL1  H27A 2662   4.639   2.859   8.797  1.7188  0.8997  3.3630
   36CHL1  H27B 2663   4.763   2.743   8.715  3.0072 -0.1572  0.4185
   36CHL1  H27C 2664   4.817   2.875   8.816 -1.7918  0.7175  1.2131
   37CHL1    C3 2665   2.915   5.781   6.925  0.1959 -0.0022  1.0088
   37CHL1    H3 2666   2.907   5.891   6.937  1.8382  0.3972 -1.1172
   37CHL1    O3 2667   2.934   5.761   6.788 -0.4177 -0.0827  0.1059
   37CHL1   H3' 2668   2.856   5.791   6.741 -0.2961 -0.8751 -0.6442
   37CHL1    C4 2669   3.022   5.728   7.015 -0.6308 -0.1381 -0.2631
   37CHL1   H4A 2670   3.044   5.625   6.981  0.2498  0.5857 -1.9958
   37CHL1   H4B 2671   3.114   5.784   6.987  0.3026 -1.8048 -0.6227
   37CHL1    C5 2672   2.991   5.731   7.166  0.9612  0.1927 -0.2821
   37CHL1    C6 2673   3.069   5.792   7.256 -0.6368 -1.1132 -0.5729
   37CHL1    H6 2674   3.165   5.830   7.219 -0.5925 -0.7749 -0.1166
   37CHL1    C7 2675   3.050   5.792   7.408 -0.6999  0.8760  0.7399
   37CHL1   H7A 2676   3.140   5.760   7.464 -0.1182  0.3103 -0.4749
   37CHL1   H7B 2677   3.001   5.888   7.435 -1.5355  1.0271 -1.1423
   37CHL1    C8 2678   2.935   5.696   7.443 -0.1436  0.1019  0.1630
   37CHL1    H8 2679   2.989   5.598   7.443 -3.0071 -1.6861 -3.1557
   37CHL1   C14 2680   2.890   5.720   7.590  0.0141  0.2623  0.0470
   37CHL1   H14 2681   2.838   5.818   7.585 -2.5408 -1.0809 -1.1573
   37CHL1   C15 2682   2.998   5.734   7.692  0.6418  0.0185 -0.0236
   37CHL1  H15A 2683   3.066   5.649   7.672 -0.0063  0.0137 -2.6056
   37CHL1  H15B 2684   3.055   5.830   7.691 -0.9145  0.9737 -0.0610
   37CHL1   C16 2685   2.926   5.719   7.831 -0.2144 -0.7947  0.9256
   37CHL1  H16A 2686   2.990   5.639   7.873 -0.8986 -1.7446  0.1945
   37CHL1  H16B 2687   2.915   5.806   7.899 -0.8326 -0.3058  0.2250
   37CHL1   C17 2688   2.779   5.669   7.794 -0.0747 -0.1020 -0.8251
   37CHL1   H17 2689   2.717   5.761   7.788  0.4060  0.2844 -0.0803
   37CHL1   C13 2690   2.792   5.622   7.651 -0.6982 -0.5195 -1.0044
   37CHL1   C18 2691   2.855   5.479   7.662 -0.3670 -0.0761  0.3426
   37CHL1  H18A 2692   2.956   5.477   7.707 -0.7886 -0.0889  1.3040
   37CHL1  H18B 2693   2.795   5.401   7.713 -2.3398  0.7004 -0.6836
   37CHL1  H18C 2694   2.880   5.442   7.560  0.4095  1.7219 -0.1658
   37CHL1   C12 2695   2.672   5.624   7.562 -0.1637 -0.3797  0.1040
   37CHL1  H12A 2696   2.611   5.534   7.585  2.1792 -2.2240 -0.5127
   37CHL1  H12B 2697   2.606   5.713   7.569  0.9991  0.5144 -0.0997
   37CHL1   C11 2698   2.706   5.602   7.414 -0.4720 -0.4281 -0.2491
   37CHL1  H11A 2699   2.740   5.498   7.395 -1.4570 -1.0287  1.1489
   37CHL1  H11B 2700   2.610   5.621   7.361  0.1778  1.7737 -0.7852
   37CHL1    C9 2701   2.817   5.694   7.352 -0.9688  0.2704 -0.3754
   37CHL1    H9 2702   2.786   5.800   7.354 -1.2152  0.1885  1.2905
   37CHL1   C10 2703   2.855   5.660   7.206  0.1771  0.4946 -0.2295
   37CHL1   C19 2704   2.879   5.508   7.180  0.3419 -0.5061 -0.3415
   37CHL1  H19A 2705   2.937   5.473   7.268 -0.3267 -0.8926 -0.0494
   37CHL1  H19B 2706   2.790   5.444   7.196  0.1770 -0.2237 -0.1317
   37CHL1  H19C 2707   2.927   5.486   7.082 -0.4377 -0.3191 -0.7707
   37CHL1    C1 2708   2.747   5.717   7.116  0.0754  0.3399 -0.1894
   37CHL1   H1A 2709   2.657   5.652   7.120 -0.1476  0.5510 -1.4797
   37CHL1   H1B 2710   2.718   5.821   7.142  0.3800  0.3660  0.0441
   37CHL1    C2 2711   2.778   5.714   6.965 -0.4429  0.0646  1.0481
   37CHL1   H2A 2712   2.695   5.760   6.907 -1.9424 -1.5082  1.8562
   37CHL1   H2B 2713   2.758   5.610   6.932  2.0722  0.0207 -0.6359
   37CHL1   C20 2714   2.709   5.577   7.903 -0.1913 -0.5974  0.0135
   37CHL1   H20 2715   2.773   5.490   7.928 -0.0485 -0.0793  1.5828
   37CHL1   C21 2716   2.569   5.537   7.855 -0.1274  0.2977 -0.1091
   37CHL1  H21A 2717   2.510   5.503   7.942  2.1434 -1.7178  0.7513
   37CHL1  H21B 2718   2.553   5.466   7.770 -0.2337  0.1922 -0.0023
   37CHL1  H21C 2719   2.520   5.628   7.813 -1.8994 -1.3072 -1.7695
   37CHL1   C22 2720   2.701   5.650   8.044  0.6881 -0.4789  0.5767
   37CHL1  H22A 2721   2.787   5.716   8.065 -0.8734  2.2196 -0.9329
   37CHL1  H22B 2722   2.622   5.728   8.036  0.5338 -0.5617  1.2552
   37CHL1   C23 2723   2.680   5.558   8.159  0.2962  0.4693  0.3158
   37CHL1  H23A 2724   2.585   5.501   8.150  0.3771  0.2975  0.5582
   37CHL1  H23B 2725   2.756   5.477   8.163 -1.9751 -1.8313  0.0499
   37CHL1   C24 2726   2.669   5.625   8.293  0.0903 -0.0128 -1.6908
   37CHL1  H24A 2727   2.598   5.710   8.293 -1.9915 -1.4927  1.8108
   37CHL1  H24B 2728   2.636   5.547   8.365  2.4329 -0.1666 -0.7016
   37CHL1   C25 2729   2.802   5.674   8.344  0.1492  0.2280 -0.1614
   37CHL1   H25 2730   2.841   5.732   8.257 -2.0210  0.6155 -0.9353
   37CHL1   C26 2731   2.790   5.772   8.462  0.0353 -0.2089 -0.0866
   37CHL1  H26A 2732   2.749   5.734   8.558 -0.0344  0.3237  0.0980
   37CHL1  H26B 2733   2.891   5.816   8.474  0.5353 -0.7657 -1.9100
   37CHL1  H26C 2734   2.723   5.859   8.442  0.3620  0.5726  1.9560
   37CHL1   C27 2735   2.913   5.569   8.375  1.2106 -0.6660  0.7205
   37CHL1  H27A 2736   2.958   5.532   8.281 -0.7691 -1.7126  0.1368
   37CHL1  H27B 2737   2.994   5.629   8.423 -0.8081  2.1131  0.8819
   37CHL1  H27C 2738   2.878   5.480   8.432  0.6584 -0.5598  0.5497
   38CHL1    C3 2739   4.892   6.695   6.914  0.4590  0.1828 -0.2200
   38CHL1    H3 2740   4.793   6.645   6.917  0.6485 -0.2681 -1.0753
   38CHL1    O3 2741   4.915   6.711   6.771  0.5433 -0.0374  0.5438
   38CHL1   H3' 2742   5.007   6.737   6.763 -0.1771  3.5760  1.8259
   38CHL1    C4 2743   4.892   6.831   6.974 -0.5736  0.3309  0.0024
   38CHL1   H4A 2744   4.989   6.878   6.946 -1.1618  1.0448 -0.8696
   38CHL1   H4B 2745   4.823   6.905   6.929  1.0794  2.3848  0.6609
   38CHL1    C5 2746   4.876   6.835   7.126 -0.1890 -0.5319 -0.6459
   38CHL1    C6 2747   4.787   6.920   7.188 -0.0424  0.5510  0.9117
   38CHL1    H6 2748   4.727   6.987   7.125 -2.0782 -1.0232  1.0545
   38CHL1    C7 2749   4.770   6.923   7.334 -0.0297 -0.3353 -0.1054
   38CHL1   H7A 2750   4.776   7.029   7.369 -1.9937  0.4716 -1.9684
   38CHL1   H7B 2751   4.671   6.877   7.355  0.7387 -1.8032  0.4344
   38CHL1    C8 2752   4.877   6.848   7.423  0.7177 -0.0083  0.7827
   38CHL1    H8 2753   4.964   6.915   7.438  1.0784 -0.6756  1.8007
   38CHL1   C14 2754   4.819   6.815   7.561  0.0988  0.5711 -0.2146
   38CHL1   H14 2755   4.731   6.750   7.542  0.8232 -0.4635 -0.1792
   38CHL1   C15 2756   4.752   6.927   7.652 -0.1568 -0.1661  0.6967
   38CHL1  H15A 2757   4.820   7.012   7.673  0.7432 -0.9760  1.1476
   38CHL1  H15B 2758   4.654   6.955   7.607  0.3991 -0.4515 -0.7763
   38CHL1   C16 2759   4.740   6.859   7.789  0.5814  0.0375 -0.0236
   38CHL1  H16A 2760   4.780   6.932   7.862 -2.7762 -0.4707  2.5835
   38CHL1  H16B 2761   4.635   6.830   7.814  1.3808 -0.9183  2.4663
   38CHL1   C17 2762   4.826   6.727   7.780  0.2781  0.4511  0.1680
   38CHL1   H17 2763   4.762   6.640   7.755  1.5705 -0.5526  0.2587
   38CHL1   C13 2764   4.913   6.737   7.651  0.5133  0.7840  0.2382
   38CHL1   C18 2765   5.036   6.824   7.679  0.3966  0.7986 -0.0119
   38CHL1  H18A 2766   5.009   6.912   7.741  0.0760  0.5468  0.2096
   38CHL1  H18B 2767   5.123   6.786   7.737 -0.4612  0.1008  0.8562
   38CHL1  H18C 2768   5.088   6.862   7.588  1.2000 -1.1646 -0.4166
   38CHL1   C12 2769   4.953   6.604   7.592  0.0031  0.6627 -0.4291
   38CHL1  H12A 2770   5.028   6.550   7.654 -1.1750 -1.2199 -0.5647
   38CHL1  H12B 2771   4.870   6.530   7.581 -1.1462  1.5010  1.8883
   38CHL1   C11 2772   5.005   6.627   7.446 -0.0338 -0.0409 -0.5397
   38CHL1  H11A 2773   5.102   6.677   7.464 -0.5587  1.7338 -2.3225
   38CHL1  H11B 2774   5.023   6.527   7.399  0.0148 -1.0579  1.5269
   38CHL1    C9 2775   4.921   6.717   7.355 -0.2663 -0.7113 -1.0872
   38CHL1    H9 2776   4.829   6.658   7.334  0.7093 -1.5875 -3.1764
   38CHL1   C10 2777   4.963   6.733   7.209 -0.0323 -0.0528 -0.5499
   38CHL1   C19 2778   5.101   6.808   7.213  0.3950 -0.1822 -0.0418
   38CHL1  H19A 2779   5.093   6.918   7.226  0.1188 -0.1471 -0.4734
   38CHL1  H19B 2780   5.171   6.767   7.288  2.1285  2.4965 -0.0792
   38CHL1  H19C 2781   5.163   6.789   7.123  0.4315 -3.0987  0.4824
   38CHL1    C1 2782   4.967   6.600   7.131 -0.2733  0.2187 -0.7363
   38CHL1   H1A 2783   5.046   6.535   7.175 -0.7699 -0.3646 -0.6878
   38CHL1   H1B 2784   4.870   6.548   7.147  0.3674 -0.9328 -0.4309
   38CHL1    C2 2785   4.994   6.600   6.977  0.3126 -0.2537 -0.2948
   38CHL1   H2A 2786   4.970   6.501   6.934 -1.7949  0.0793  0.0365
   38CHL1   H2B 2787   5.093   6.643   6.949  0.4070 -0.6460 -0.5669
   38CHL1   C20 2788   4.896   6.684   7.917 -0.9895 -0.3729  0.0813
   38CHL1   H20 2789   4.991   6.631   7.894 -0.9740 -0.5515  0.5528
   38CHL1   C21 2790   4.822   6.565   7.977  0.1640  0.5603  0.1538
   38CHL1  H21A 2791   4.867   6.535   8.073  1.4005 -0.0064 -0.5738
   38CHL1  H21B 2792   4.830   6.475   7.911  3.2787  1.3566 -0.7612
   38CHL1  H21C 2793   4.719   6.602   7.994 -1.2085 -2.2219 -1.5136
   38CHL1   C22 2794   4.917   6.798   8.018  0.1977 -0.6719 -0.5618
   38CHL1  H22A 2795   4.967   6.879   7.960 -0.4921 -0.5313 -0.9704
   38CHL1  H22B 2796   4.825   6.847   8.058  1.8284  1.4863  0.8164
   38CHL1   C23 2797   5.009   6.755   8.132 -0.5360  0.9773  0.8157
   38CHL1  H23A 2798   4.969   6.660   8.172 -1.5597  0.4662 -1.2824
   38CHL1  H23B 2799   5.109   6.734   8.088 -1.6349  1.4751 -2.2153
   38CHL1   C24 2800   5.036   6.869   8.232  0.1405  0.6970 -0.3911
   38CHL1  H24A 2801   5.103   6.946   8.189  0.6364 -0.0867 -1.0746
   38CHL1  H24B 2802   4.938   6.920   8.238 -0.0034  0.4849 -0.8793
   38CHL1   C25 2803   5.083   6.821   8.369 -0.2856  0.5303 -0.9880
   38CHL1   H25 2804   5.115   6.905   8.435  0.9518 -1.1934  0.7290
   38CHL1   C26 2805   4.980   6.742   8.453  0.1971 -0.4329  0.4166
   38CHL1  H26A 2806   4.960   6.648   8.396  1.7984 -1.0222  0.7633
   38CHL1  H26B 2807   5.017   6.694   8.546 -1.0675 -1.2510  0.5288
   38CHL1  H26C 2808   4.889   6.802   8.477  0.3185 -0.3343  0.6298
   38CHL1   C27 2809   5.210   6.734   8.346 -0.4196 -0.2324  0.3225
   38CHL1  H27A 2810   5.247   6.708   8.448 -0.3292 -1.7741 -0.0763
   38CHL1  H27B 2811   5.181   6.644   8.289 -3.2489  0.9651 -0.2987
   38CHL1  H27C 2812   5.280   6.795   8.284 -0.1294  1.5990  2.3151
   39CHL1    C3 2813   6.617   4.713   6.884  0.1636  0.5844  0.0370
   39CHL1    H3 2814   6.555   4.622   6.897  0.0293  0.9145  2.1325
   39CHL1    O3 2815   6.625   4.726   6.745  0.3396  0.0205  0.4756
   39CHL1   H3' 2816   6.678   4.652   6.714  0.3847 -1.5185  3.7929
   39CHL1    C4 2817   6.550   4.836   6.957 -0.0435 -0.4411 -0.2232
   39CHL1   H4A 2818   6.615   4.923   6.934 -1.3753  0.9706  1.1426
   39CHL1   H4B 2819   6.452   4.858   6.911 -0.6400 -0.0548  1.1762
   39CHL1    C5 2820   6.542   4.794   7.103  0.3638 -0.1811 -0.0744
   39CHL1    C6 2821   6.434   4.798   7.174 -0.1298 -0.4961 -0.5115
   39CHL1    H6 2822   6.345   4.822   7.115  0.0657 -0.5326 -0.8263
   39CHL1    C7 2823   6.419   4.793   7.331  0.1383  0.2739  0.0720
   39CHL1   H7A 2824   6.350   4.875   7.361  0.4120  1.4035 -2.1842
   39CHL1   H7B 2825   6.371   4.698   7.362  0.6006 -0.5890 -1.7252
   39CHL1    C8 2826   6.553   4.803   7.397 -0.5686 -0.2577  0.1926
   39CHL1    H8 2827   6.594   4.904   7.374  1.1351 -1.4654 -2.5325
   39CHL1   C14 2828   6.548   4.766   7.543 -0.6600  0.4661  0.2044
   39CHL1   H14 2829   6.512   4.661   7.544 -1.2941  0.6621  2.0870
   39CHL1   C15 2830   6.435   4.838   7.627 -0.4322 -0.1718 -0.5118
   39CHL1  H15A 2831   6.452   4.948   7.624  0.5797 -0.2957 -3.7346
   39CHL1  H15B 2832   6.332   4.804   7.605 -0.0497 -0.8079 -1.3618
   39CHL1   C16 2833   6.463   4.790   7.769  0.0128  0.3058  0.2978
   39CHL1  H16A 2834   6.462   4.876   7.840 -0.6228 -0.6048  1.4092
   39CHL1  H16B 2835   6.386   4.722   7.809  1.0410 -0.0243  1.8085
   39CHL1   C17 2836   6.600   4.716   7.765  0.0050 -0.6754  0.3987
   39CHL1   H17 2837   6.575   4.608   7.759 -1.3059 -0.3022 -1.6893
   39CHL1   C13 2838   6.673   4.758   7.629 -0.0845  0.5932  0.2340
   39CHL1   C18 2839   6.743   4.903   7.629  0.1376  0.5175  0.1752
   39CHL1  H18A 2840   6.849   4.895   7.662 -0.1035 -0.4117  0.7522
   39CHL1  H18B 2841   6.731   4.940   7.525 -0.2336 -0.1646 -0.0321
   39CHL1  H18C 2842   6.685   4.967   7.699  2.7969  1.6157  1.5208
   39CHL1   C12 2843   6.758   4.654   7.550 -0.0431 -0.3690 -0.5566
   39CHL1  H12A 2844   6.858   4.644   7.596 -0.9144  0.5249  1.7144
   39CHL1  H12B 2845   6.721   4.549   7.554  2.6184 -1.3590  0.4702
   39CHL1   C11 2846   6.789   4.694   7.407  0.1399  0.1944  0.8713
   39CHL1  H11A 2847   6.861   4.779   7.407  1.5858 -0.9641 -0.1205
   39CHL1  H11B 2848   6.847   4.616   7.353 -1.5708 -0.5215  0.0074
   39CHL1    C9 2849   6.655   4.717   7.325  0.0143 -0.0438 -0.4419
   39CHL1    H9 2850   6.606   4.619   7.309 -1.7632  0.6243  0.7395
   39CHL1   C10 2851   6.681   4.758   7.173  0.8123  0.2846 -0.2177
   39CHL1   C19 2852   6.769   4.887   7.173  0.3554 -0.1613  0.9899
   39CHL1  H19A 2853   6.767   4.943   7.077  1.1216 -0.6077  0.6995
   39CHL1  H19B 2854   6.730   4.965   7.242 -0.8961  0.1719 -0.0583
   39CHL1  H19C 2855   6.876   4.860   7.183  0.8233  0.9883 -0.4075
   39CHL1    C1 2856   6.755   4.653   7.088  0.1542 -0.4215  0.3825
   39CHL1   H1A 2857   6.855   4.628   7.131 -0.4050  0.7060  2.4797
   39CHL1   H1B 2858   6.701   4.558   7.107  0.8096 -0.7267  0.7842
   39CHL1    C2 2859   6.759   4.673   6.938 -0.4911  0.1445  0.1539
   39CHL1   H2A 2860   6.786   4.577   6.890 -2.5150  0.2031 -1.2148
   39CHL1   H2B 2861   6.824   4.757   6.907 -1.5168  1.3963  1.2884
   39CHL1   C20 2862   6.688   4.736   7.887 -0.0856  0.4965  0.0418
   39CHL1   H20 2863   6.731   4.839   7.886  0.0289  0.4616 -1.7690
   39CHL1   C21 2864   6.808   4.643   7.874  0.1857  0.2395 -0.2121
   39CHL1  H21A 2865   6.785   4.537   7.847 -1.5069  0.3225  0.7288
   39CHL1  H21B 2866   6.859   4.635   7.973 -0.3408  0.1619  0.0563
   39CHL1  H21C 2867   6.888   4.680   7.807  0.4163  0.6495  0.2803
   39CHL1   C22 2868   6.623   4.708   8.023 -0.6097 -0.1729  0.1933
   39CHL1  H22A 2869   6.694   4.749   8.097 -1.3386  1.9952 -0.2524
   39CHL1  H22B 2870   6.534   4.773   8.016 -1.3997 -1.4012 -2.0241
   39CHL1   C23 2871   6.570   4.559   8.045 -0.3810 -0.1308 -0.3163
   39CHL1  H23A 2872   6.478   4.543   7.985 -0.7219 -0.8790  0.3842
   39CHL1  H23B 2873   6.642   4.484   8.008 -1.7562 -0.9993 -1.3277
   39CHL1   C24 2874   6.558   4.520   8.196  0.4645 -0.2396  0.5198
   39CHL1  H24A 2875   6.655   4.550   8.242 -1.1375  1.0445  3.3635
   39CHL1  H24B 2876   6.482   4.593   8.232  0.2522  2.0038 -3.7929
   39CHL1   C25 2877   6.531   4.372   8.232  0.2307  0.1614  0.0345
   39CHL1   H25 2878   6.629   4.325   8.211  0.4647  0.7626 -0.2493
   39CHL1   C26 2879   6.491   4.373   8.376  1.1761 -0.5046 -0.1025
   39CHL1  H26A 2880   6.407   4.446   8.378  2.4604  1.3010 -4.1492
   39CHL1  H26B 2881   6.446   4.274   8.401  2.4545 -0.6073  2.0158
   39CHL1  H26C 2882   6.578   4.400   8.439  1.9242 -0.0246 -1.3143
   39CHL1   C27 2883   6.416   4.320   8.149 -0.1252  0.5466 -0.2961
   39CHL1  H27A 2884   6.328   4.380   8.179 -0.0827  1.0292 -1.0977
   39CHL1  H27B 2885   6.423   4.328   8.038  2.6803  1.6361 -0.1321
   39CHL1  H27C 2886   6.396   4.216   8.180  1.1194  1.1155  2.8083
   40CHL1    C3 2887   1.446   2.698   7.134 -0.3626  0.5849  0.1339
   40CHL1    H3 2888   1.471   2.589   7.129 -1.9456  0.2587 -1.9938
   40CHL1    O3 2889   1.408   2.734   7.001 -0.8015  0.3993 -0.7307
   40CHL1   H3' 2890   1.390   2.828   7.013  0.5975  0.4741  1.2050
   40CHL1    C4 2891   1.327   2.714   7.230  0.2795 -0.1067  0.0923
   40CHL1   H4A 2892   1.304   2.820   7.206  4.0904  0.9100  0.3228
   40CHL1   H4B 2893   1.250   2.639   7.202  1.7481 -1.4316 -0.5698
   40CHL1    C5 2894   1.365   2.703   7.376  0.2950  0.1445  0.1672
   40CHL1    C6 2895   1.293   2.620   7.448 -0.8067  0.0503  0.0301
   40CHL1    H6 2896   1.206   2.577   7.397 -1.8326  2.4186 -0.3635
   40CHL1    C7 2897   1.300   2.612   7.596 -0.7047  0.2381 -0.5277
   40CHL1   H7A 2898   1.200   2.621   7.644 -0.6095 -2.6283  0.4369
   40CHL1   H7B 2899   1.333   2.513   7.634  2.3920  1.4864  0.3708
   40CHL1    C8 2900   1.397   2.725   7.656 -0.3126  0.0793 -0.2478
   40CHL1    H8 2901   1.340   2.820   7.655 -0.0137  0.2977 -2.6484
   40CHL1   C14 2902   1.443   2.681   7.791  0.5856  0.5733  0.4107
   40CHL1   H14 2903   1.503   2.589   7.771 -0.4739 -0.1753  0.5918
   40CHL1   C15 2904   1.335   2.631   7.891 -0.3218  0.2543 -0.1501
   40CHL1  H15A 2905   1.253   2.706   7.887 -0.5226  0.1311  1.1390
   40CHL1  H15B 2906   1.297   2.532   7.859 -0.7706  0.6987 -1.0255
   40CHL1   C16 2907   1.411   2.626   8.026 -0.2198 -0.5459 -0.1777
   40CHL1  H16A 2908   1.352   2.677   8.105 -0.9586 -0.7111 -0.6190
   40CHL1  H16B 2909   1.421   2.521   8.061 -1.2057  0.2769  2.8869
   40CHL1   C17 2910   1.550   2.691   8.000  0.1955  0.1483  0.4661
   40CHL1   H17 2911   1.616   2.606   7.972  1.2607  0.8017  0.9001
   40CHL1   C13 2912   1.534   2.777   7.870  0.6331  0.9069  0.1834
   40CHL1   C18 2913   1.453   2.898   7.895 -0.1449 -0.4132 -0.2263
   40CHL1  H18A 2914   1.355   2.879   7.945 -0.3126 -1.0081 -0.7738
   40CHL1  H18B 2915   1.512   2.964   7.963 -1.0547 -0.2025  0.3854
   40CHL1  H18C 2916   1.442   2.963   7.806  0.8647 -1.7230 -1.3501
   40CHL1   C12 2917   1.663   2.802   7.783  0.6083  0.0721 -0.0329
   40CHL1  H12A 2918   1.724   2.886   7.822 -0.0903  1.3327 -1.5659
   40CHL1  H12B 2919   1.722   2.707   7.790  0.3643 -0.0137  0.9918
   40CHL1   C11 2920   1.628   2.834   7.636  0.3062 -0.2240  0.0637
   40CHL1  H11A 2921   1.594   2.939   7.642 -2.4761 -0.9041 -1.8220
   40CHL1  H11B 2922   1.716   2.833   7.569 -0.4936 -0.3392 -1.0240
   40CHL1    C9 2923   1.522   2.744   7.571 -0.3587 -0.0335 -0.3665
   40CHL1    H9 2924   1.562   2.640   7.565 -1.2078 -0.4046  0.1402
   40CHL1   C10 2925   1.485   2.783   7.424 -0.2774  0.5612 -0.1871
   40CHL1   C19 2926   1.439   2.933   7.432  0.2318 -0.4089 -0.6784
   40CHL1  H19A 2927   1.350   2.947   7.497 -0.0923 -2.8140 -0.5048
   40CHL1  H19B 2928   1.514   3.003   7.475 -2.1499  1.2472  1.0191
   40CHL1  H19C 2929   1.401   2.972   7.336 -0.6263  3.0378  0.9082
   40CHL1    C1 2930   1.600   2.759   7.326 -0.0502  0.0725 -0.4549
   40CHL1   H1A 2931   1.680   2.832   7.347  0.8011 -0.3346 -2.0741
   40CHL1   H1B 2932   1.640   2.657   7.347 -0.8038  0.1752  1.7482
   40CHL1    C2 2933   1.567   2.776   7.176 -0.1848  0.2257  0.0469
   40CHL1   H2A 2934   1.650   2.760   7.104 -1.6235 -1.1951 -1.3801
   40CHL1   H2B 2935   1.536   2.881   7.155  0.3361  0.0064 -2.0093
   40CHL1   C20 2936   1.617   2.753   8.120  1.1011  0.2326 -0.4734
   40CHL1   H20 2937   1.565   2.849   8.144  0.2479 -0.0884 -0.9803
   40CHL1   C21 2938   1.761   2.777   8.094 -0.0540  0.3097 -0.0657
   40CHL1  H21A 2939   1.814   2.812   8.186 -0.6100 -0.1371  0.4396
   40CHL1  H21B 2940   1.772   2.859   8.021 -0.6549  1.7854  1.4420
   40CHL1  H21C 2941   1.806   2.677   8.075  0.7718  0.5688  0.4881
   40CHL1   C22 2942   1.612   2.671   8.258  0.7175  0.4426  0.1145
   40CHL1  H22A 2943   1.506   2.638   8.272  1.1599 -1.1551 -0.0831
   40CHL1  H22B 2944   1.678   2.582   8.253 -0.3498 -0.3959  0.4420
   40CHL1   C23 2945   1.649   2.739   8.389 -0.1773 -0.4333  0.1443
   40CHL1  H23A 2946   1.747   2.792   8.385  0.3597 -1.4467 -0.2704
   40CHL1  H23B 2947   1.587   2.832   8.395  0.7733  0.5266 -3.0640
   40CHL1   C24 2948   1.638   2.642   8.509  0.0247 -0.2861  0.2707
   40CHL1  H24A 2949   1.530   2.620   8.520  0.4458 -1.0703  4.5307
   40CHL1  H24B 2950   1.691   2.548   8.481 -1.0697 -0.8787  0.1123
   40CHL1   C25 2951   1.681   2.694   8.648 -0.0842  0.0404 -0.2605
   40CHL1   H25 2952   1.660   2.801   8.665  1.2635  0.2274  0.3666
   40CHL1   C26 2953   1.611   2.614   8.760 -0.4439 -0.1618  0.4180
   40CHL1  H26A 2954   1.505   2.596   8.729  0.4719 -3.5781 -1.2337
   40CHL1  H26B 2955   1.658   2.513   8.761  0.1569  0.1145  0.3576
   40CHL1  H26C 2956   1.619   2.659   8.861  0.4472 -0.8032  0.6369
   40CHL1   C27 2957   1.831   2.673   8.658  0.4265 -0.2040 -0.6372
   40CHL1  H27A 2958   1.876   2.730   8.742 -2.1423  0.2013  0.5434
   40CHL1  H27B 2959   1.860   2.566   8.671 -3.5833 -1.1342  2.8940
   40CHL1  H27C 2960   1.880   2.714   8.567 -0.3739  2.1877 -0.0552
   41CHL1    C3 2961   2.245   4.331   7.076  0.3448  0.0124 -0.2624
   41CHL1    H3 2962   2.261   4.222   7.088  2.8233  0.3959  0.4407
   41CHL1    O3 2963   2.213   4.370   6.943 -0.2166  0.5663 -0.4090
   41CHL1   H3' 2964   2.219   4.464   6.927  0.2402  0.5639 -0.2540
   41CHL1    C4 2965   2.111   4.355   7.164 -0.0720  0.0612 -0.0804
   41CHL1   H4A 2966   2.072   4.456   7.139  0.1963 -0.1865 -1.5985
   41CHL1   H4B 2967   2.036   4.285   7.120  1.5719 -1.0850 -1.1348
   41CHL1    C5 2968   2.135   4.318   7.309  0.2321  0.5737  0.1423
   41CHL1    C6 2969   2.057   4.224   7.367 -0.1696  0.2240  1.0100
   41CHL1    H6 2970   1.972   4.187   7.308  1.0633 -2.1063  0.5607
   41CHL1    C7 2971   2.068   4.175   7.510 -0.0621 -0.3977 -0.6179
   41CHL1   H7A 2972   1.966   4.172   7.553  0.1977  0.6688  0.1165
   41CHL1   H7B 2973   2.103   4.070   7.515 -0.0659 -0.3387  0.8043
   41CHL1    C8 2974   2.163   4.274   7.593  0.4542  0.4315 -0.1073
   41CHL1    H8 2975   2.092   4.357   7.613 -1.0961 -0.8581  0.0170
   41CHL1   C14 2976   2.208   4.209   7.724 -0.1954  0.0262  0.1185
   41CHL1   H14 2977   2.284   4.131   7.709 -2.4126 -2.6167  1.6533
   41CHL1   C15 2978   2.105   4.136   7.809 -0.1268 -0.1719 -0.0674
   41CHL1  H15A 2979   2.017   4.204   7.815  0.3368  0.3516  1.1919
   41CHL1  H15B 2980   2.078   4.034   7.776  0.1413  0.6139 -3.0196
   41CHL1   C16 2981   2.165   4.140   7.957  0.1213  0.4367  0.3016
   41CHL1  H16A 2982   2.095   4.197   8.022 -0.3710  0.9699 -0.6716
   41CHL1  H16B 2983   2.195   4.040   7.995 -0.5060 -0.1517 -0.7235
   41CHL1   C17 2984   2.299   4.218   7.941  0.7182 -0.1492  0.0458
   41CHL1   H17 2985   2.377   4.145   7.912  0.6255 -0.8903  1.5841
   41CHL1   C13 2986   2.275   4.310   7.818 -0.6142 -0.3870 -0.1063
   41CHL1   C18 2987   2.187   4.435   7.847  0.2194  0.0686 -0.9256
   41CHL1  H18A 2988   2.229   4.518   7.908  1.1061 -0.6921 -0.4916
   41CHL1  H18B 2989   2.140   4.481   7.757 -0.7000  0.0779 -0.4508
   41CHL1  H18C 2990   2.093   4.391   7.888 -1.9952  3.1112 -2.2988
   41CHL1   C12 2991   2.406   4.350   7.737  0.4010 -0.2940 -0.4862
   41CHL1  H12A 2992   2.445   4.434   7.799 -0.9270  0.1988 -0.2902
   41CHL1  H12B 2993   2.475   4.263   7.738  0.1708 -0.4991  2.0984
   41CHL1   C11 2994   2.376   4.408   7.600 -0.4698  0.4267  0.1055
   41CHL1  H11A 2995   2.335   4.511   7.611  2.2530  1.5598  0.4362
   41CHL1  H11B 2996   2.475   4.423   7.552 -0.1499 -1.4546  0.1246
   41CHL1    C9 2997   2.288   4.320   7.511  1.2491 -0.5057  0.8876
   41CHL1    H9 2998   2.342   4.224   7.497  2.0237 -0.1417  1.2652
   41CHL1   C10 2999   2.254   4.376   7.369  0.5380 -0.4629 -0.4815
   41CHL1   C19 3000   2.220   4.528   7.378  0.2100  0.1936 -0.1802
   41CHL1  H19A 3001   2.132   4.543   7.443  1.0540  1.4530  0.7149
   41CHL1  H19B 3002   2.303   4.592   7.415  0.4537  0.3289 -0.9377
   41CHL1  H19C 3003   2.195   4.577   7.282  0.1539  1.5871  0.5251
   41CHL1    C1 3004   2.378   4.377   7.277 -0.4447 -0.1239  0.4697
   41CHL1   H1A 3005   2.463   4.436   7.317 -0.6318 -1.2770  2.6729
   41CHL1   H1B 3006   2.415   4.273   7.272  0.3834  0.1593  0.6849
   41CHL1    C2 3007   2.358   4.408   7.128 -0.4838  0.6625 -0.6535
   41CHL1   H2A 3008   2.457   4.378   7.087  1.5408  2.0687  2.6912
   41CHL1   H2B 3009   2.343   4.517   7.112 -1.3724  0.8445  1.1905
   41CHL1   C20 3010   2.354   4.277   8.065  0.2820  0.9413  0.4981
   41CHL1   H20 3011   2.310   4.379   8.063 -1.8353  0.0822 -1.8357
   41CHL1   C21 3012   2.508   4.275   8.055  0.3075  0.0641  0.2037
   41CHL1  H21A 3013   2.550   4.283   7.952 -1.7261  1.5446 -0.5918
   41CHL1  H21B 3014   2.545   4.181   8.101  2.4679  0.3986 -0.7107
   41CHL1  H21C 3015   2.564   4.358   8.104  1.3153 -0.6497  0.2947
   41CHL1   C22 3016   2.312   4.214   8.202  0.1558  0.2149 -0.7873
   41CHL1  H22A 3017   2.203   4.234   8.213  0.1827 -0.8333  2.4159
   41CHL1  H22B 3018   2.328   4.104   8.200 -1.1650  0.0192 -1.6310
   41CHL1   C23 3019   2.392   4.271   8.325  0.7567  0.2537  0.1690
   41CHL1  H23A 3020   2.498   4.238   8.330  0.4446 -1.1686 -1.6131
   41CHL1  H23B 3021   2.383   4.382   8.335 -4.2161 -0.0688  2.2717
   41CHL1   C24 3022   2.328   4.214   8.456  0.5176 -0.2577  0.3117
   41CHL1  H24A 3023   2.224   4.251   8.457  0.7632  0.5013 -0.5136
   41CHL1  H24B 3024   2.329   4.103   8.445  0.9399 -0.4275  1.7842
   41CHL1   C25 3025   2.409   4.246   8.578 -0.3558  0.1108  0.2510
   41CHL1   H25 3026   2.514   4.227   8.546 -0.1761 -1.7069  1.7194
   41CHL1   C26 3027   2.402   4.383   8.637 -0.0174 -0.1181 -0.1726
   41CHL1  H26A 3028   2.294   4.406   8.651  0.2239  0.4950  0.8075
   41CHL1  H26B 3029   2.451   4.389   8.737 -0.6600 -0.7756  0.1939
   41CHL1  H26C 3030   2.435   4.465   8.570 -2.0529  0.2724 -0.7657
   41CHL1   C27 3031   2.376   4.139   8.682 -0.0473  0.1248  1.0280
   41CHL1  H27A 3032   2.266   4.126   8.691 -0.0659 -3.5291 -1.9422
   41CHL1  H27B 3033   2.411   4.039   8.648 -1.1048 -0.2193  0.9286
   41CHL1  H27C 3034   2.404   4.167   8.786 -0.9682  0.2938  1.2343
   42CHL1    C3 3035   3.211   0.718   6.962 -0.7031  1.0443 -0.2538
   42CHL1    H3 3036   3.116   0.768   6.990 -1.8665 -2.1319  1.9089
   42CHL1    O3 3037   3.221   0.691   6.828  0.1941 -0.0522  0.5445
   42CHL1   H3' 3038   3.287   0.621   6.819  1.2458  1.1207 -2.2704
   42CHL1    C4 3039   3.338   0.787   7.005 -0.2523  0.1355 -0.3103
   42CHL1   H4A 3040   3.421   0.731   6.956 -0.9633  1.8019 -3.7650
   42CHL1   H4B 3041   3.328   0.884   6.952 -1.9256 -0.4136 -1.0672
   42CHL1    C5 3042   3.352   0.806   7.153  0.4201 -0.3001  0.6630
   42CHL1    C6 3043   3.367   0.928   7.209  0.0665 -0.3755  0.1969
   42CHL1    H6 3044   3.372   1.024   7.156 -0.6457 -0.0827  0.6444
   42CHL1    C7 3045   3.395   0.944   7.358 -0.5364 -0.0683  0.6520
   42CHL1   H7A 3046   3.475   1.020   7.370  0.3305 -0.8989  0.3040
   42CHL1   H7B 3047   3.308   0.994   7.407 -0.3307  2.0187 -0.9463
   42CHL1    C8 3048   3.431   0.817   7.435 -0.3264  0.5451 -0.4883
   42CHL1    H8 3049   3.536   0.789   7.412 -0.3965 -1.1676  1.0421
   42CHL1   C14 3050   3.418   0.837   7.581  0.0234 -0.1433  0.0634
   42CHL1   H14 3051   3.308   0.835   7.597 -0.0129 -2.8263  0.0330
   42CHL1   C15 3052   3.471   0.975   7.658  0.7486 -0.2940  0.8469
   42CHL1  H15A 3053   3.568   1.003   7.613  0.1916 -1.4328 -1.1551
   42CHL1  H15B 3054   3.391   1.051   7.640  0.8741  0.1881  2.1859
   42CHL1   C16 3055   3.496   0.930   7.803  0.2266 -0.3377  0.5065
   42CHL1  H16A 3056   3.606   0.926   7.816  0.7291  2.1289 -1.9235
   42CHL1  H16B 3057   3.449   1.002   7.874 -1.6127 -0.4976 -0.4909
   42CHL1   C17 3058   3.437   0.785   7.802  0.2675  0.6514  0.5012
   42CHL1   H17 3059   3.326   0.788   7.805  0.1807  2.4987 -1.5803
   42CHL1   C13 3060   3.467   0.723   7.663 -0.6111  0.1545  0.1066
   42CHL1   C18 3061   3.614   0.693   7.645 -1.3605  0.0544 -0.3351
   42CHL1  H18A 3062   3.687   0.774   7.667  1.2645 -1.7551 -1.7998
   42CHL1  H18B 3063   3.642   0.615   7.718  1.6553  0.5273 -0.8605
   42CHL1  H18C 3064   3.630   0.650   7.544 -1.3480  1.0221 -0.7594
   42CHL1   C12 3065   3.380   0.603   7.620 -0.5494  0.1831 -0.3343
   42CHL1  H12A 3066   3.411   0.519   7.685  1.4439 -1.9431 -3.7412
   42CHL1  H12B 3067   3.275   0.617   7.653 -0.0965 -1.6766  2.1300
   42CHL1   C11 3068   3.384   0.566   7.474 -0.5801  0.2739  0.2437
   42CHL1  H11A 3069   3.487   0.531   7.453 -0.8518  0.4617 -1.6082
   42CHL1  H11B 3070   3.305   0.493   7.447 -0.0505  0.0503 -0.7258
   42CHL1    C9 3071   3.351   0.688   7.390 -0.0578  0.3710  0.3597
   42CHL1    H9 3072   3.249   0.724   7.417 -0.3380  0.3991 -0.6873
   42CHL1   C10 3073   3.355   0.676   7.233  0.3247  0.3741  0.3088
   42CHL1   C19 3074   3.486   0.598   7.204 -0.4470 -0.2702 -0.5255
   42CHL1  H19A 3075   3.495   0.500   7.254 -0.7238 -0.7979 -1.4802
   42CHL1  H19B 3076   3.502   0.590   7.094 -0.8317  0.9153 -0.6814
   42CHL1  H19C 3077   3.570   0.664   7.236 -1.4707  0.9005 -0.1937
   42CHL1    C1 3078   3.231   0.590   7.187  0.2684  0.1239  0.7562
   42CHL1   H1A 3079   3.238   0.494   7.243 -1.6063  0.3444  1.4558
   42CHL1   H1B 3080   3.138   0.639   7.222 -0.0379  2.5884 -2.9314
   42CHL1    C2 3081   3.218   0.580   7.029 -0.2228  0.2516 -0.7564
   42CHL1   H2A 3082   3.126   0.520   7.011 -0.8460  0.4266  1.5441
   42CHL1   H2B 3083   3.308   0.527   6.993 -1.1833 -1.4280 -0.7812
   42CHL1   C20 3084   3.474   0.701   7.918 -0.6509  0.4569  0.9997
   42CHL1   H20 3085   3.558   0.631   7.896 -1.4249 -0.2045  0.0824
   42CHL1   C21 3086   3.348   0.609   7.951 -0.2255 -0.0753 -0.3343
   42CHL1  H21A 3087   3.267   0.679   7.982  1.5379  1.0819  1.9304
   42CHL1  H21B 3088   3.363   0.536   8.033  0.9183  0.7603  0.2220
   42CHL1  H21C 3089   3.311   0.550   7.864 -0.4807 -1.8250  0.9272
   42CHL1   C22 3090   3.516   0.781   8.046  0.0662 -0.6323  0.4630
   42CHL1  H22A 3091   3.614   0.830   8.033  2.0147 -3.1143  3.8174
   42CHL1  H22B 3092   3.429   0.849   8.059 -0.4265 -1.3409  1.0329
   42CHL1   C23 3093   3.534   0.697   8.172 -0.4621  0.4915 -0.9278
   42CHL1  H23A 3094   3.438   0.647   8.199 -0.5311  0.4041 -1.3331
   42CHL1  H23B 3095   3.602   0.614   8.141 -1.7808 -1.1227  0.3112
   42CHL1   C24 3096   3.595   0.783   8.287 -0.6999  0.0972 -0.0396
   42CHL1  H24A 3097   3.698   0.802   8.248 -0.8276 -0.4537 -0.6818
   42CHL1  H24B 3098   3.530   0.872   8.297 -0.5457  0.1296  0.7115
   42CHL1   C25 3099   3.597   0.722   8.418 -0.6308 -0.7138 -0.2483
   42CHL1   H25 3100   3.489   0.703   8.439 -0.5703  0.5369  1.3247
   42CHL1   C26 3101   3.687   0.598   8.434  0.2340  0.1291 -0.2315
   42CHL1  H26A 3102   3.698   0.571   8.541  0.7732 -1.5814 -0.6796
   42CHL1  H26B 3103   3.642   0.514   8.376  0.6573 -0.3887  0.1875
   42CHL1  H26C 3104   3.788   0.620   8.393  0.1377  0.3243 -0.3671
   42CHL1   C27 3105   3.631   0.839   8.523  0.2610  0.1501  0.2674
   42CHL1  H27A 3106   3.741   0.854   8.521  0.8224 -3.1592 -0.1778
   42CHL1  H27B 3107   3.599   0.814   8.626  0.1024 -0.7475  0.0123
   42CHL1  H27C 3108   3.579   0.934   8.498 -2.4206 -1.0127  1.0485
   43CHL1    C3 3109   3.086   4.638   6.827  0.4532 -0.8284 -0.7160
   43CHL1    H3 3110   2.987   4.639   6.877  2.0067 -2.0233  2.6696
   43CHL1    O3 3111   3.070   4.657   6.687  0.6396  0.1870  0.2776
   43CHL1   H3' 3112   3.153   4.698   6.661 -0.1150  0.4795 -1.8965
   43CHL1    C4 3113   3.184   4.741   6.892 -0.4325 -0.2963  0.4324
   43CHL1   H4A 3114   3.282   4.717   6.846 -0.1849 -0.3358  0.9760
   43CHL1   H4B 3115   3.153   4.846   6.868 -1.2390 -0.5806  0.1853
   43CHL1    C5 3116   3.207   4.727   7.037 -0.2688 -0.4101 -0.1365
   43CHL1    C6 3117   3.176   4.832   7.120 -0.3117 -0.8687 -0.1778
   43CHL1    H6 3118   3.155   4.929   7.074  1.2315  0.7023  2.1929
   43CHL1    C7 3119   3.193   4.820   7.269 -0.7137  0.1242 -0.5187
   43CHL1   H7A 3120   3.252   4.908   7.303  0.3567 -0.1946 -1.4888
   43CHL1   H7B 3121   3.096   4.820   7.323 -1.2715 -0.1115 -1.4978
   43CHL1    C8 3122   3.273   4.689   7.320  0.8854  0.2926 -0.1219
   43CHL1    H8 3123   3.382   4.697   7.299  0.7398  0.5349 -0.7933
   43CHL1   C14 3124   3.240   4.670   7.469 -0.8342 -0.2886  0.0563
   43CHL1   H14 3125   3.130   4.661   7.478 -1.2137  1.0478 -2.4916
   43CHL1   C15 3126   3.261   4.785   7.562 -0.3386  0.1779 -0.3835
   43CHL1  H15A 3127   3.357   4.835   7.538  0.6021 -0.4538  1.8403
   43CHL1  H15B 3128   3.171   4.849   7.557 -0.9942 -0.7840 -1.7562
   43CHL1   C16 3129   3.266   4.726   7.699  0.4333  0.5329 -0.1786
   43CHL1  H16A 3130   3.365   4.757   7.740  1.6058 -2.0901 -0.8067
   43CHL1  H16B 3131   3.182   4.764   7.760 -1.0567 -2.2246 -0.3439
   43CHL1   C17 3132   3.260   4.573   7.679 -0.2578  1.2177  0.5218
   43CHL1   H17 3133   3.153   4.542   7.676 -0.0208  0.3486  0.7698
   43CHL1   C13 3134   3.307   4.546   7.534  0.8696  0.4550  0.0537
   43CHL1   C18 3135   3.459   4.544   7.524 -0.3608 -0.2444 -0.4176
   43CHL1  H18A 3136   3.504   4.622   7.590 -2.0981  0.7558 -0.3500
   43CHL1  H18B 3137   3.509   4.448   7.550  0.9010  0.2657 -0.8507
   43CHL1  H18C 3138   3.490   4.576   7.422 -2.5755  3.2201 -0.1642
   43CHL1   C12 3139   3.252   4.420   7.459 -0.1011  0.3991  0.4185
   43CHL1  H12A 3140   3.306   4.337   7.510  3.6508  3.0059  1.0988
   43CHL1  H12B 3141   3.144   4.415   7.484  0.4380 -1.5501  2.7458
   43CHL1   C11 3142   3.286   4.433   7.307  0.6893 -0.7056  0.0071
   43CHL1  H11A 3143   3.391   4.421   7.275  1.0267 -1.4698  1.3176
   43CHL1  H11B 3144   3.235   4.343   7.267 -0.1004 -0.6448  0.8369
   43CHL1    C9 3145   3.224   4.562   7.242 -0.3931  0.1234  0.2318
   43CHL1    H9 3146   3.115   4.552   7.257 -0.1405 -0.3386  2.1190
   43CHL1   C10 3147   3.243   4.582   7.085 -0.2760  0.2850  0.0423
   43CHL1   C19 3148   3.388   4.552   7.054  0.4621 -0.0230  0.2044
   43CHL1  H19A 3149   3.457   4.589   7.133  0.6135 -1.7517  0.9322
   43CHL1  H19B 3150   3.406   4.442   7.056  0.8649 -0.0576 -2.0669
   43CHL1  H19C 3151   3.409   4.589   6.951  1.8905 -3.2788 -0.8206
   43CHL1    C1 3152   3.146   4.481   7.011 -0.1112 -0.0508  0.3174
   43CHL1   H1A 3153   3.180   4.378   7.037 -1.7639 -0.7408 -0.1183
   43CHL1   H1B 3154   3.043   4.483   7.051  0.3032  3.8768  1.6413
   43CHL1    C2 3155   3.142   4.501   6.858  0.4008  0.7604  0.0389
   43CHL1   H2A 3156   3.086   4.418   6.810 -0.4483  1.0869  0.4331
   43CHL1   H2B 3157   3.243   4.483   6.818  0.5217  2.2361 -0.3914
   43CHL1   C20 3158   3.326   4.486   7.794  0.1657 -0.4165  0.1425
   43CHL1   H20 3159   3.437   4.496   7.787  0.1594  0.7902  1.4280
   43CHL1   C21 3160   3.293   4.337   7.783  0.5877 -0.1134 -0.7775
   43CHL1  H21A 3161   3.182   4.325   7.777  0.2017 -0.4265  3.5460
   43CHL1  H21B 3162   3.333   4.284   7.872  1.7778 -0.0704 -1.2770
   43CHL1  H21C 3163   3.337   4.285   7.695  1.3211 -1.1708  0.1915
   43CHL1   C22 3164   3.303   4.543   7.933  0.3383  0.2906 -0.1097
   43CHL1  H22A 3165   3.227   4.624   7.939 -1.0330 -0.9448 -0.1552
   43CHL1  H22B 3166   3.243   4.471   7.992 -3.6992  2.8315 -0.6921
   43CHL1   C23 3167   3.427   4.578   8.013  0.1601 -0.4112  0.1189
   43CHL1  H23A 3168   3.483   4.484   8.028 -0.0658 -1.0531 -2.6509
   43CHL1  H23B 3169   3.491   4.654   7.964  0.7271  1.2302  3.1694
   43CHL1   C24 3170   3.387   4.647   8.145 -0.9225  0.1197 -1.0585
   43CHL1  H24A 3171   3.328   4.739   8.123  2.7479  2.8845 -0.2633
   43CHL1  H24B 3172   3.326   4.582   8.211  0.0108  1.2024  0.9692
   43CHL1   C25 3173   3.508   4.694   8.237 -0.3135 -0.0171  0.1766
   43CHL1   H25 3174   3.570   4.770   8.186 -0.5174  0.8106  1.1324
   43CHL1   C26 3175   3.449   4.756   8.363  0.4955 -0.0898  1.1393
   43CHL1  H26A 3176   3.533   4.784   8.430 -0.2031  3.6911  0.6928
   43CHL1  H26B 3177   3.421   4.859   8.332  0.4998 -0.8389 -1.5945
   43CHL1  H26C 3178   3.361   4.706   8.411  0.8106 -0.7285  1.0581
   43CHL1   C27 3179   3.601   4.577   8.282  0.1851  0.7474  0.5039
   43CHL1  H27A 3180   3.682   4.618   8.346  0.0175 -0.1421  1.2979
   43CHL1  H27B 3181   3.545   4.508   8.349 -2.6558  1.7884 -0.6324
   43CHL1  H27C 3182   3.641   4.525   8.193  0.5569 -0.0039  1.1000
   44CHL1    C3 3183   2.763   3.408   6.828  0.0851  0.5425 -1.0328
   44CHL1    H3 3184   2.842   3.330   6.843 -0.4443  0.3164  0.8545
   44CHL1    O3 3185   2.745   3.409   6.687  0.2336 -0.1673 -0.0336
   44CHL1   H3' 3186   2.695   3.330   6.664 -3.4388  1.9167 -0.0457
   44CHL1    C4 3187   2.635   3.362   6.904  0.6799  0.3082  0.1615
   44CHL1   H4A 3188   2.567   3.449   6.899 -1.4137 -1.1289  1.6034
   44CHL1   H4B 3189   2.583   3.283   6.844 -0.5602  1.9911 -1.0860
   44CHL1    C5 3190   2.664   3.343   7.054 -0.8077  0.1983 -0.5653
   44CHL1    C6 3191   2.620   3.233   7.124  0.2052  0.0113 -0.2050
   44CHL1    H6 3192   2.560   3.160   7.067  0.0346  1.6321 -2.2271
   44CHL1    C7 3193   2.645   3.214   7.272 -0.3981  1.0268  0.1247
   44CHL1   H7A 3194   2.558   3.171   7.326  1.0162 -0.4390  1.3278
   44CHL1   H7B 3195   2.731   3.143   7.275 -0.0982  1.4127  0.7867
   44CHL1    C8 3196   2.670   3.339   7.343 -1.3884 -0.5976 -0.5949
   44CHL1    H8 3197   2.587   3.413   7.349 -0.7745  0.0710 -0.3097
   44CHL1   C14 3198   2.724   3.305   7.482  0.7796 -0.4824  0.5476
   44CHL1   H14 3199   2.820   3.249   7.472  2.2587  1.7563  1.3406
   44CHL1   C15 3200   2.640   3.216   7.581 -0.4889 -0.2180 -0.4626
   44CHL1  H15A 3201   2.532   3.239   7.571 -0.9519 -2.0008  0.0988
   44CHL1  H15B 3202   2.649   3.109   7.551 -1.5626 -0.5256  0.2728
   44CHL1   C16 3203   2.703   3.239   7.722 -0.2434  0.2891  0.9677
   44CHL1  H16A 3204   2.618   3.264   7.788 -2.0580 -1.3717 -0.6183
   44CHL1  H16B 3205   2.759   3.151   7.761 -3.4526 -2.5042 -0.2258
   44CHL1   C17 3206   2.801   3.359   7.708 -0.3017 -0.3751 -0.2200
   44CHL1   H17 3207   2.895   3.305   7.682 -0.4093 -0.4416 -0.4778
   44CHL1   C13 3208   2.761   3.426   7.571 -0.0221  0.4304 -0.3474
   44CHL1   C18 3209   2.648   3.530   7.597 -0.4847  0.0387 -0.1938
   44CHL1  H18A 3210   2.611   3.569   7.499  1.5784 -0.1420 -1.1028
   44CHL1  H18B 3211   2.568   3.482   7.657  0.0923 -0.4072  0.2201
   44CHL1  H18C 3212   2.698   3.609   7.657  0.8161 -2.0790  1.6366
   44CHL1   C12 3213   2.875   3.498   7.499  0.3142  0.2877  0.0904
   44CHL1  H12A 3214   2.905   3.590   7.553 -0.6172  1.5483 -1.4449
   44CHL1  H12B 3215   2.967   3.436   7.497  0.5802  0.6439  1.0465
   44CHL1   C11 3216   2.844   3.535   7.355 -0.4213  0.7293  0.3806
   44CHL1  H11A 3217   2.794   3.634   7.360  1.9791  2.1292 -1.3361
   44CHL1  H11B 3218   2.942   3.560   7.309 -0.8467  1.0205 -0.3860
   44CHL1    C9 3219   2.788   3.411   7.272  0.4151 -0.6176 -0.3681
   44CHL1    H9 3220   2.876   3.345   7.256  1.0664 -0.3456  1.8097
   44CHL1   C10 3221   2.753   3.452   7.124 -0.2361 -0.3537 -0.1495
   44CHL1   C19 3222   2.656   3.575   7.136  0.3993  0.4115  0.5482
   44CHL1  H19A 3223   2.721   3.665   7.130  1.6343 -0.4483  0.5543
   44CHL1  H19B 3224   2.578   3.580   7.057 -1.4378 -1.0647  2.1721
   44CHL1  H19C 3225   2.606   3.571   7.235 -0.3034 -0.0984  0.1844
   44CHL1    C1 3226   2.873   3.501   7.033 -0.2807 -0.2975  0.1973
   44CHL1   H1A 3227   2.911   3.595   7.079 -2.3671  0.3988  0.6531
   44CHL1   H1B 3228   2.956   3.428   7.035 -0.4553 -0.5466 -0.9441
   44CHL1    C2 3229   2.829   3.535   6.884  0.1636 -0.4335 -0.6522
   44CHL1   H2A 3230   2.919   3.550   6.821  3.6005  0.6465  3.9294
   44CHL1   H2B 3231   2.756   3.618   6.877  1.7946  1.2461  0.9441
   44CHL1   C20 3232   2.819   3.431   7.838  0.3194 -0.2875 -0.2657
   44CHL1   H20 3233   2.720   3.472   7.865  0.2067  0.7840 -2.1483
   44CHL1   C21 3234   2.914   3.549   7.813 -0.1896 -0.5676 -0.1828
   44CHL1  H21A 3235   2.866   3.635   7.762  1.3211  1.4977  1.6572
   44CHL1  H21B 3236   3.014   3.524   7.771 -0.5071  0.1021 -1.3902
   44CHL1  H21C 3237   2.943   3.594   7.910  4.3451 -2.0336 -0.6021
   44CHL1   C22 3238   2.878   3.337   7.949 -0.3592 -0.0648 -0.6114
   44CHL1  H22A 3239   2.807   3.252   7.959  0.1007 -0.2592  1.3479
   44CHL1  H22B 3240   2.979   3.304   7.917  0.3625 -0.4595  1.8530
   44CHL1   C23 3241   2.878   3.394   8.091 -0.2198  0.1521 -0.6177
   44CHL1  H23A 3242   2.916   3.498   8.090 -1.1749  0.5063 -0.8685
   44CHL1  H23B 3243   2.788   3.381   8.155  1.3716  0.7816  1.8753
   44CHL1   C24 3244   2.985   3.314   8.171  0.0027 -0.3468 -0.6691
   44CHL1  H24A 3245   2.953   3.208   8.158 -4.5413  0.8282 -0.9104
   44CHL1  H24B 3246   3.091   3.326   8.141  0.2129  1.3284  0.5776
   44CHL1   C25 3247   2.989   3.344   8.321 -0.1901 -0.5630  0.3034
   44CHL1   H25 3248   2.897   3.312   8.376  0.2926  0.8057  2.0082
   44CHL1   C26 3249   3.111   3.280   8.383  0.0233 -0.1937  0.5154
   44CHL1  H26A 3250   3.203   3.326   8.340  1.3704 -0.7858  2.6024
   44CHL1  H26B 3251   3.106   3.282   8.494 -0.8566 -0.5729  0.4904
   44CHL1  H26C 3252   3.116   3.173   8.353  1.8056 -1.4490  4.5535
   44CHL1   C27 3253   2.989   3.494   8.356 -0.6028 -0.0471  0.1774
   44CHL1  H27A 3254   2.891   3.525   8.315  1.4001  2.8017 -2.9928
   44CHL1  H27B 3255   2.994   3.506   8.466  0.7985 -1.0837  0.2582
   44CHL1  H27C 3256   3.078   3.546   8.315  0.1498 -1.8007 -0.5153
   45CHL1    C3 3257   3.091   6.330   6.787  0.1072  0.1918  0.1394
   45CHL1    H3 3258   3.035   6.423   6.810 -1.8308 -0.2250 -2.4400
   45CHL1    O3 3259   3.088   6.306   6.648  0.5028 -0.0163 -0.3092
   45CHL1   H3' 3260   3.101   6.390   6.603 -1.7630  0.2844 -0.5158
   45CHL1    C4 3261   3.239   6.344   6.838  0.1677 -0.7396  0.4267
   45CHL1   H4A 3262   3.303   6.262   6.799  1.5255 -0.4087  1.8580
   45CHL1   H4B 3263   3.274   6.432   6.780  3.5177 -0.9899  1.8164
   45CHL1    C5 3264   3.251   6.361   6.987 -0.1281 -0.1364 -0.2837
   45CHL1    C6 3265   3.321   6.465   7.039  0.5486 -0.1471  0.2426
   45CHL1    H6 3266   3.371   6.538   6.974 -0.4165  0.0064 -0.3450
   45CHL1    C7 3267   3.345   6.478   7.185  0.0591 -0.2705 -0.9837
   45CHL1   H7A 3268   3.444   6.513   7.223 -0.1643 -1.8062  1.2513
   45CHL1   H7B 3269   3.275   6.559   7.215  0.5977  0.8549 -2.6624
   45CHL1    C8 3270   3.308   6.355   7.271 -0.0768 -0.3245 -0.5915
   45CHL1    H8 3271   3.386   6.276   7.261  1.3063  1.1692 -2.1056
   45CHL1   C14 3272   3.295   6.396   7.420 -0.3470  0.0733 -0.6260
   45CHL1   H14 3273   3.213   6.471   7.420  1.1000  1.7214 -0.6040
   45CHL1   C15 3274   3.413   6.472   7.472  0.4883 -0.2870 -0.3472
   45CHL1  H15A 3275   3.504   6.408   7.468  1.0823  0.3324  1.7913
   45CHL1  H15B 3276   3.430   6.572   7.429  0.7144 -0.6786 -1.1855
   45CHL1   C16 3277   3.388   6.467   7.626  0.0486  0.1956 -0.0045
   45CHL1  H16A 3278   3.469   6.421   7.686 -0.0521  0.2617  0.1830
   45CHL1  H16B 3279   3.363   6.566   7.671 -2.1793 -0.1515 -0.3738
   45CHL1   C17 3280   3.268   6.366   7.652 -0.1459 -0.1752  0.5184
   45CHL1   H17 3281   3.184   6.439   7.653  0.4905  0.6515 -1.2875
   45CHL1   C13 3282   3.259   6.287   7.515  0.0233  0.7291 -0.1025
   45CHL1   C18 3283   3.368   6.175   7.518 -0.1151  0.6971  0.1002
   45CHL1  H18A 3284   3.382   6.124   7.421 -1.2203 -0.9520  0.7515
   45CHL1  H18B 3285   3.465   6.211   7.558  1.1530 -0.8705 -1.4669
   45CHL1  H18C 3286   3.323   6.089   7.573 -2.4416  1.5132 -0.3829
   45CHL1   C12 3287   3.124   6.233   7.470 -0.3489 -0.0524 -0.4941
   45CHL1  H12A 3288   3.100   6.146   7.535  0.0640  0.6818  0.6674
   45CHL1  H12B 3289   3.039   6.303   7.484 -2.5058 -2.6520  0.3458
   45CHL1   C11 3290   3.123   6.189   7.324 -0.4454  0.2498 -0.2899
   45CHL1  H11A 3291   3.196   6.106   7.316 -1.9429 -1.3208  1.5653
   45CHL1  H11B 3292   3.024   6.158   7.287 -0.9396  1.2085  0.1855
   45CHL1    C9 3293   3.170   6.297   7.222 -0.1302 -0.1778 -0.2155
   45CHL1    H9 3294   3.100   6.380   7.243  1.2884  0.1940  4.1403
   45CHL1   C10 3295   3.168   6.260   7.075 -0.0463  0.3147  0.7599
   45CHL1   C19 3296   3.242   6.119   7.055 -0.7869  0.0923  0.1386
   45CHL1  H19A 3297   3.270   6.101   6.949 -1.3567 -0.6725  0.1155
   45CHL1  H19B 3298   3.333   6.125   7.118 -0.4591 -1.0883 -0.2018
   45CHL1  H19C 3299   3.167   6.049   7.096  0.0665 -0.0965  1.4572
   45CHL1    C1 3300   3.023   6.240   7.012 -0.6942 -0.7461  0.1368
   45CHL1   H1A 3301   2.973   6.167   7.080  1.7147  0.0494  2.9605
   45CHL1   H1B 3302   2.986   6.338   7.048  1.5998  0.1427  0.2330
   45CHL1    C2 3303   3.017   6.217   6.861 -0.2529 -0.5338 -0.3767
   45CHL1   H2A 3304   2.910   6.238   6.839 -0.0382 -0.4803 -1.4075
   45CHL1   H2B 3305   3.058   6.119   6.827 -3.5932 -1.9590 -0.7234
   45CHL1   C20 3306   3.279   6.301   7.786 -0.4261 -0.4621 -0.4617
   45CHL1   H20 3307   3.371   6.239   7.796  1.2119  2.0661  1.1757
   45CHL1   C21 3308   3.158   6.219   7.814  0.2282  0.7941  0.0656
   45CHL1  H21A 3309   3.067   6.282   7.821  0.0576  0.7019 -1.0512
   45CHL1  H21B 3310   3.160   6.189   7.921  1.2089  1.1323  0.1519
   45CHL1  H21C 3311   3.150   6.129   7.749 -1.6936  1.5010 -0.7486
   45CHL1   C22 3312   3.294   6.404   7.906 -0.0808  0.1514 -0.0128
   45CHL1  H22A 3313   3.358   6.492   7.885 -0.8711  1.2256  1.8378
   45CHL1  H22B 3314   3.195   6.446   7.932 -1.5533 -2.8051 -0.4235
   45CHL1   C23 3315   3.354   6.341   8.031  0.1668 -0.5962  0.5480
   45CHL1  H23A 3316   3.293   6.253   8.058  0.7207 -1.2872 -0.3933
   45CHL1  H23B 3317   3.461   6.318   8.012 -0.0859 -0.7361 -0.7842
   45CHL1   C24 3318   3.350   6.437   8.151  0.6002 -0.1184 -0.1716
   45CHL1  H24A 3319   3.406   6.528   8.123  1.4293  0.3751  2.7319
   45CHL1  H24B 3320   3.247   6.474   8.170  0.7652  1.2966 -1.8494
   45CHL1   C25 3321   3.439   6.392   8.273 -0.3966 -0.3043 -0.0005
   45CHL1   H25 3322   3.539   6.367   8.232  1.0883  1.6803  2.1539
   45CHL1   C26 3323   3.465   6.510   8.375  0.7966  0.1756  0.1103
   45CHL1  H26A 3324   3.547   6.488   8.447 -1.9495  0.6862  3.6825
   45CHL1  H26B 3325   3.477   6.601   8.312 -0.6461  0.6225  0.4536
   45CHL1  H26C 3326   3.371   6.530   8.431  0.5593 -0.1881 -0.1541
   45CHL1   C27 3327   3.382   6.266   8.343  0.3837 -0.6406 -0.0987
   45CHL1  H27A 3328   3.460   6.233   8.415 -0.3441  1.7129  1.9169
   45CHL1  H27B 3329   3.279   6.270   8.383  0.3715  0.7604 -0.2133
   45CHL1  H27C 3330   3.374   6.185   8.267  0.4650  0.2802 -1.1153
   46CHL1    C3 3331   4.456   2.466   7.125  0.5156 -0.0846 -0.6069
   46CHL1    H3 3332   4.417   2.560   7.168 -0.2585 -0.0029 -1.4516
   46CHL1    O3 3333   4.436   2.471   6.985 -0.0948  0.1999 -0.2805
   46CHL1   H3' 3334   4.420   2.379   6.960 -2.2749 -0.0116  1.6029
   46CHL1    C4 3335   4.606   2.459   7.159 -0.4320 -0.2711  0.1723
   46CHL1   H4A 3336   4.652   2.368   7.116  0.5677  1.0996 -1.8204
   46CHL1   H4B 3337   4.648   2.551   7.114 -0.7537 -0.2697 -0.1286
   46CHL1    C5 3338   4.637   2.450   7.311 -0.5377 -0.6133  0.5245
   46CHL1    C6 3339   4.721   2.532   7.378  0.8825 -0.4694 -0.6528
   46CHL1    H6 3340   4.780   2.609   7.327 -0.6505  0.1384 -1.5786
   46CHL1    C7 3341   4.753   2.515   7.519 -0.8874 -0.4968  0.9766
   46CHL1   H7A 3342   4.864   2.512   7.523 -0.7567  0.3621 -0.9051
   46CHL1   H7B 3343   4.734   2.609   7.576 -0.1385 -0.2594  0.8471
   46CHL1    C8 3344   4.691   2.388   7.585  0.0884 -0.3691  0.1060
   46CHL1    H8 3345   4.756   2.302   7.558 -2.1901 -2.3795  0.6593
   46CHL1   C14 3346   4.692   2.414   7.737 -0.0711 -0.4651 -0.4299
   46CHL1   H14 3347   4.606   2.482   7.752 -1.1082 -1.4134 -1.8552
   46CHL1   C15 3348   4.819   2.469   7.806  0.2011  0.1127 -0.5095
   46CHL1  H15A 3349   4.902   2.399   7.787 -1.2523 -2.0077  0.5349
   46CHL1  H15B 3350   4.836   2.577   7.787 -2.5525  0.8577  0.7191
   46CHL1   C16 3351   4.785   2.441   7.954  0.1743  0.5143  0.1610
   46CHL1  H16A 3352   4.863   2.374   7.995  0.1255 -0.5939 -1.4679
   46CHL1  H16B 3353   4.780   2.540   8.005 -2.4930  1.3344 -1.5109
   46CHL1   C17 3354   4.646   2.363   7.950  0.3584 -0.0513 -0.1098
   46CHL1   H17 3355   4.564   2.437   7.961 -0.1954 -0.7107  0.2945
   46CHL1   C13 3356   4.628   2.297   7.816  0.0250 -0.5407  0.6854
   46CHL1   C18 3357   4.726   2.175   7.792  0.0754 -0.3806 -0.2431
   46CHL1  H18A 3358   4.675   2.093   7.848 -2.5675  2.4568  1.8488
   46CHL1  H18B 3359   4.740   2.154   7.684 -0.7615  3.2697 -1.1958
   46CHL1  H18C 3360   4.823   2.197   7.841  0.5025 -1.0984 -0.7517
   46CHL1   C12 3361   4.483   2.284   7.775 -0.0950 -0.0935 -0.1296
   46CHL1  H12A 3362   4.444   2.191   7.822  1.6170 -0.5223  0.5047
   46CHL1  H12B 3363   4.417   2.363   7.816 -0.7615 -0.5569 -0.2849
   46CHL1   C11 3364   4.468   2.262   7.621  0.1687 -0.0813  0.4427
   46CHL1  H11A 3365   4.494   2.156   7.600 -1.1473 -0.2973 -0.2191
   46CHL1  H11B 3366   4.366   2.278   7.581  0.2135  0.4000  0.5148
   46CHL1    C9 3367   4.553   2.362   7.535 -0.2666  0.0944 -0.2274
   46CHL1    H9 3368   4.503   2.457   7.563  0.2592  0.7127 -1.3649
   46CHL1   C10 3369   4.553   2.341   7.386  0.8718 -0.3700  0.4154
   46CHL1   C19 3370   4.626   2.208   7.345 -0.4827  0.0752  0.0549
   46CHL1  H19A 3371   4.601   2.133   7.424  0.7131 -0.2066  0.1855
   46CHL1  H19B 3372   4.568   2.156   7.267 -1.0960 -0.3579  0.7856
   46CHL1  H19C 3373   4.735   2.224   7.329 -0.4012 -0.5010  0.0158
   46CHL1    C1 3374   4.406   2.348   7.337  0.0335 -0.6176 -0.4056
   46CHL1   H1A 3375   4.349   2.261   7.375 -0.6133  0.3821  1.0123
   46CHL1   H1B 3376   4.362   2.438   7.385  2.0666  1.2246 -1.7804
   46CHL1    C2 3377   4.379   2.348   7.181  0.1863 -0.3862  0.4681
   46CHL1   H2A 3378   4.270   2.357   7.164  0.5993 -0.0159 -2.5060
   46CHL1   H2B 3379   4.420   2.257   7.132 -1.1625 -1.3112  1.0239
   46CHL1   C20 3380   4.635   2.280   8.078 -0.5934  0.4189 -0.3406
   46CHL1   H20 3381   4.725   2.215   8.087 -0.7736  0.3023  0.7082
   46CHL1   C21 3382   4.513   2.183   8.096 -0.1341 -0.0236 -0.0999
   46CHL1  H21A 3383   4.494   2.138   8.196  1.2252  0.3341  0.3319
   46CHL1  H21B 3384   4.520   2.089   8.038  3.2500 -1.2512  2.0092
   46CHL1  H21C 3385   4.424   2.239   8.061  0.9252  2.3419  0.7618
   46CHL1   C22 3386   4.631   2.375   8.204 -0.2124  0.4783  0.0298
   46CHL1  H22A 3387   4.701   2.460   8.185  2.0205 -1.4128 -0.7742
   46CHL1  H22B 3388   4.531   2.419   8.223 -0.0032  0.6053  0.8789
   46CHL1   C23 3389   4.682   2.303   8.334 -0.2834  0.3353 -0.6387
   46CHL1  H23A 3390   4.643   2.200   8.348  2.9725 -0.6287  2.7829
   46CHL1  H23B 3391   4.791   2.297   8.319 -0.1661  0.3555  0.1612
   46CHL1   C24 3392   4.668   2.390   8.463 -0.1500  0.3386 -0.0995
   46CHL1  H24A 3393   4.715   2.486   8.434 -1.8372  0.4311 -2.8418
   46CHL1  H24B 3394   4.564   2.413   8.493 -0.1663  0.4134 -0.2152
   46CHL1   C25 3395   4.725   2.335   8.598  0.2196 -0.1249  1.1879
   46CHL1   H25 3396   4.658   2.260   8.645  1.4083 -0.4601  2.3939
   46CHL1   C26 3397   4.851   2.259   8.580 -0.2934 -0.4850 -0.2130
   46CHL1  H26A 3398   4.890   2.213   8.673 -0.2037 -0.4020 -0.2096
   46CHL1  H26B 3399   4.845   2.179   8.503 -3.0785  0.2387 -0.8764
   46CHL1  H26C 3400   4.929   2.333   8.550  0.7159 -1.4773 -0.1007
   46CHL1   C27 3401   4.738   2.447   8.705 -0.1231 -0.3519 -0.1221
   46CHL1  H27A 3402   4.647   2.509   8.717 -1.0456 -1.8184  0.7262
   46CHL1  H27B 3403   4.761   2.401   8.804 -0.4173  0.0460  0.1377
   46CHL1  H27C 3404   4.827   2.512   8.686 -0.6852  0.1593 -1.0548
   47CHL1    C3 3405   3.130   3.079   6.625  0.0066 -0.1415  0.0616
   47CHL1    H3 3406   3.240   3.085   6.635  0.2022 -1.9988 -0.6147
   47CHL1    O3 3407   3.087   3.086   6.490 -0.1022  0.0071  0.1033
   47CHL1   H3' 3408   2.997   3.056   6.500  0.0520 -1.2457 -1.7692
   47CHL1    C4 3409   3.087   2.942   6.691  0.2971 -0.7609 -0.0459
   47CHL1   H4A 3410   2.978   2.927   6.674  0.1960  0.4677 -0.6517
   47CHL1   H4B 3411   3.136   2.864   6.630  0.4536  0.8512 -2.0962
   47CHL1    C5 3412   3.117   2.935   6.842 -0.0785 -0.6243  0.4353
   47CHL1    C6 3413   3.196   2.843   6.895  0.1388  0.7819 -0.2626
   47CHL1    H6 3414   3.235   2.767   6.826 -0.9140  2.3849 -2.7205
   47CHL1    C7 3415   3.230   2.826   7.040  0.1048  0.2002 -0.5504
   47CHL1   H7A 3416   3.223   2.721   7.075  1.6924  0.5307  0.8672
   47CHL1   H7B 3417   3.332   2.866   7.061 -0.7017  2.3429 -0.4364
   47CHL1    C8 3418   3.135   2.909   7.131 -0.0387  0.2124  0.0127
   47CHL1    H8 3419   3.036   2.860   7.142 -0.0695  0.4543  0.8248
   47CHL1   C14 3420   3.197   2.921   7.267  0.3995  0.2453 -1.0023
   47CHL1   H14 3421   3.291   2.979   7.259  0.3837  0.3339 -0.5972
   47CHL1   C15 3422   3.214   2.784   7.340 -0.0140 -0.1027  0.9351
   47CHL1  H15A 3423   3.120   2.723   7.342 -0.6546  0.8142 -0.4046
   47CHL1  H15B 3424   3.292   2.720   7.293 -0.7760  0.4239 -1.1223
   47CHL1   C16 3425   3.240   2.821   7.493 -0.3006  1.1059  0.1489
   47CHL1  H16A 3426   3.172   2.767   7.563  1.2043  3.1300  3.4052
   47CHL1  H16B 3427   3.345   2.799   7.518 -0.6054  0.5512  0.9886
   47CHL1   C17 3428   3.205   2.971   7.504 -0.0515 -0.8505  0.9961
   47CHL1   H17 3429   3.295   3.031   7.477 -1.8906  2.3976  1.5426
   47CHL1   C13 3430   3.116   3.000   7.371 -0.9770 -0.2840 -0.5228
   47CHL1   C18 3431   2.977   2.937   7.401 -0.4356  0.2873  0.2129
   47CHL1  H18A 3432   2.983   2.844   7.461 -0.7435 -0.4818 -0.9226
   47CHL1  H18B 3433   2.920   3.012   7.460  0.9349  0.8364  0.9027
   47CHL1  H18C 3434   2.922   2.915   7.307 -1.3690 -3.8630  1.5170
   47CHL1   C12 3435   3.110   3.140   7.314  0.6965 -0.2330 -0.0882
   47CHL1  H12A 3436   3.047   3.216   7.365 -1.4389 -1.3651 -0.9330
   47CHL1  H12B 3437   3.209   3.191   7.310 -0.2284  1.5842 -1.8202
   47CHL1   C11 3438   3.061   3.146   7.168 -0.0369  0.4238  0.0120
   47CHL1  H11A 3439   2.964   3.095   7.179 -0.0887  0.5270  0.0358
   47CHL1  H11B 3440   3.037   3.245   7.123  2.8971  0.0731 -2.7029
   47CHL1    C9 3441   3.123   3.043   7.067  0.7216 -1.0166  0.1158
   47CHL1    H9 3442   3.227   3.082   7.058  0.2544 -0.0031 -1.0948
   47CHL1   C10 3443   3.062   3.053   6.925 -0.4534 -0.8865  0.2772
   47CHL1   C19 3444   2.909   3.040   6.925 -0.6244 -1.0247  0.4155
   47CHL1  H19A 3445   2.856   3.049   6.827 -1.0195 -0.2980  0.6834
   47CHL1  H19B 3446   2.876   2.947   6.977 -0.6884 -0.0963  2.1124
   47CHL1  H19C 3447   2.874   3.127   6.985  1.8916 -0.2863  0.9473
   47CHL1    C1 3448   3.110   3.191   6.853  0.3005  0.3477 -0.1711
   47CHL1   H1A 3449   3.040   3.266   6.895  0.5753  1.3809 -1.4686
   47CHL1   H1B 3450   3.214   3.214   6.884  0.8239 -3.3445  1.3614
   47CHL1    C2 3451   3.083   3.200   6.707 -0.2077  0.4185  0.1596
   47CHL1   H2A 3452   3.123   3.290   6.657  0.1687  1.1232  1.6779
   47CHL1   H2B 3453   2.973   3.206   6.690 -0.3357  1.0516  1.0971
   47CHL1   C20 3454   3.151   3.022   7.641 -0.0883  0.1018  0.5806
   47CHL1   H20 3455   3.050   2.978   7.650  0.1806 -1.1501 -1.7893
   47CHL1   C21 3456   3.141   3.175   7.647  0.1656 -0.7506 -0.1047
   47CHL1  H21A 3457   3.242   3.220   7.631 -0.8250  0.8022 -2.7479
   47CHL1  H21B 3458   3.118   3.229   7.741 -0.7316  1.0302 -1.2952
   47CHL1  H21C 3459   3.070   3.218   7.573  0.3167 -1.9401 -0.9626
   47CHL1   C22 3460   3.238   2.970   7.755  0.4845 -0.3580  0.1226
   47CHL1  H22A 3461   3.297   2.878   7.737  1.0769  0.1461 -0.5770
   47CHL1  H22B 3462   3.306   3.055   7.776 -0.6246  1.1197 -1.9016
   47CHL1   C23 3463   3.158   2.943   7.884  0.0152  0.5301  0.1608
   47CHL1  H23A 3464   3.096   3.032   7.906 -0.1609  1.1317 -2.5105
   47CHL1  H23B 3465   3.104   2.849   7.862  1.0218 -0.0620  0.1628
   47CHL1   C24 3466   3.251   2.909   8.007  0.7270 -0.3694  0.2439
   47CHL1  H24A 3467   3.294   3.002   8.050  0.7987 -0.4074  0.2550
   47CHL1  H24B 3468   3.175   2.875   8.081  0.1084 -0.3136 -0.3608
   47CHL1   C25 3469   3.360   2.795   7.988  0.1758  0.4428  0.0841
   47CHL1   H25 3470   3.431   2.829   7.909 -1.8982 -0.8222 -2.4790
   47CHL1   C26 3471   3.432   2.783   8.125 -0.0535 -0.4856 -0.4930
   47CHL1  H26A 3472   3.442   2.680   8.166  0.8585  0.5743  2.1438
   47CHL1  H26B 3473   3.534   2.826   8.118  0.3090 -1.3849 -0.9330
   47CHL1  H26C 3474   3.372   2.843   8.197  0.7919  1.7087 -1.5401
   47CHL1   C27 3475   3.302   2.664   7.939  0.7282  0.0452 -0.9957
   47CHL1  H27A 3476   3.242   2.617   8.019  2.7305  1.0407  1.2411
   47CHL1  H27B 3477   3.235   2.674   7.852  0.9618 -0.2655 -1.2110
   47CHL1  H27C 3478   3.383   2.595   7.908  2.0999  1.5075 -0.8194
   48CHL1    C3 3479   6.547   6.287   6.324 -0.1972  0.3989 -0.4841
   48CHL1    H3 3480   6.656   6.266   6.322  0.2304  2.4818 -1.2035
   48CHL1    O3 3481   6.502   6.273   6.192  0.6819  0.2447 -0.5925
   48CHL1   H3' 3482   6.414   6.311   6.194 -0.7151 -2.3248  4.1671
   48CHL1    C4 3483   6.470   6.193   6.423 -0.1498 -0.0574  0.1094
   48CHL1   H4A 3484   6.361   6.209   6.406 -0.7376  0.7193  3.8099
   48CHL1   H4B 3485   6.476   6.086   6.393  1.6490  0.1702 -0.4335
   48CHL1    C5 3486   6.500   6.213   6.573  0.3413  0.2307  0.7917
   48CHL1    C6 3487   6.527   6.101   6.644 -0.2951 -0.1171  0.1388
   48CHL1    H6 3488   6.520   6.007   6.589 -1.6447 -0.4421  0.8295
   48CHL1    C7 3489   6.564   6.108   6.789 -0.3301  0.5690 -0.4099
   48CHL1   H7A 3490   6.518   6.028   6.852  1.0304  1.0166  1.2222
   48CHL1   H7B 3491   6.673   6.090   6.787 -0.8278 -3.2237 -2.1665
   48CHL1    C8 3492   6.536   6.243   6.854 -0.0323 -0.0962  0.2065
   48CHL1    H8 3493   6.429   6.248   6.883  0.9208 -0.2324  4.4561
   48CHL1   C14 3494   6.599   6.254   6.988 -0.5535  0.2815 -0.2990
   48CHL1   H14 3495   6.709   6.241   6.972 -0.8776 -1.6433 -1.3395
   48CHL1   C15 3496   6.565   6.144   7.088 -0.5999 -0.1213  0.6057
   48CHL1  H15A 3497   6.457   6.120   7.074 -0.8543  0.3848  1.6120
   48CHL1  H15B 3498   6.627   6.055   7.061  4.8425  3.4459 -0.2265
   48CHL1   C16 3499   6.608   6.200   7.220 -0.0103  0.1501 -1.1237
   48CHL1  H16A 3500   6.529   6.195   7.297  0.4489 -0.9183 -0.6968
   48CHL1  H16B 3501   6.695   6.145   7.262 -1.7708 -2.3852 -0.5228
   48CHL1   C17 3502   6.643   6.350   7.196 -0.6700 -0.2163 -0.5294
   48CHL1   H17 3503   6.749   6.363   7.169 -0.9619  1.8004 -0.8268
   48CHL1   C13 3504   6.578   6.384   7.062 -0.1445  0.0288  0.0575
   48CHL1   C18 3505   6.427   6.400   7.096 -0.7764 -0.1470  0.1497
   48CHL1  H18A 3506   6.399   6.327   7.175  0.8941  0.2691  1.1816
   48CHL1  H18B 3507   6.397   6.501   7.129 -2.4014 -0.2346 -0.9635
   48CHL1  H18C 3508   6.362   6.386   7.007 -0.0980  0.2353 -0.4268
   48CHL1   C12 3509   6.636   6.500   6.972 -0.2393 -0.4892  0.5440
   48CHL1  H12A 3510   6.624   6.600   7.018  1.3294 -0.5560  1.1610
   48CHL1  H12B 3511   6.743   6.480   6.949 -0.4465 -0.3621 -0.6340
   48CHL1   C11 3512   6.553   6.496   6.842 -0.0709 -0.4392  0.0645
   48CHL1  H11A 3513   6.449   6.506   6.881 -1.3219  0.0321 -3.1121
   48CHL1  H11B 3514   6.578   6.584   6.779 -1.9523  0.4164  0.4244
   48CHL1    C9 3515   6.570   6.365   6.764 -0.1628  0.2202 -0.6905
   48CHL1    H9 3516   6.680   6.361   6.746 -0.0728  1.8549 -0.6423
   48CHL1   C10 3517   6.501   6.358   6.627  0.3309 -0.4520  0.2681
   48CHL1   C19 3518   6.353   6.408   6.622  0.4104  0.8856  0.0391
   48CHL1  H19A 3519   6.342   6.516   6.641 -2.2971  0.8578 -0.9111
   48CHL1  H19B 3520   6.309   6.374   6.526  1.3533 -2.5278  0.6645
   48CHL1  H19C 3521   6.290   6.358   6.699 -1.0336 -3.1516 -3.3793
   48CHL1    C1 3522   6.579   6.455   6.524  0.7477  0.1853 -0.0351
   48CHL1   H1A 3523   6.575   6.563   6.549  0.8886  0.4801 -1.2548
   48CHL1   H1B 3524   6.686   6.427   6.516  0.6740  0.2329 -1.4474
   48CHL1    C2 3525   6.522   6.431   6.378  0.2286  0.1841 -0.0359
   48CHL1   H2A 3526   6.591   6.496   6.321 -0.3540 -0.9553 -2.1356
   48CHL1   H2B 3527   6.417   6.468   6.376  0.7973  1.8372 -0.5338
   48CHL1   C20 3528   6.616   6.438   7.328  0.2040  0.1889  0.3129
   48CHL1   H20 3529   6.510   6.433   7.363 -0.1295 -1.7285 -0.8044
   48CHL1   C21 3530   6.654   6.587   7.297 -0.3564  0.5444  0.0061
   48CHL1  H21A 3531   6.688   6.645   7.385  2.3429  0.1092 -0.6426
   48CHL1  H21B 3532   6.570   6.639   7.247  0.4202  0.3580 -1.5684
   48CHL1  H21C 3533   6.736   6.589   7.222 -1.4368 -0.8055 -1.2759
   48CHL1   C22 3534   6.699   6.392   7.451 -0.2188  0.1875 -0.3064
   48CHL1  H22A 3535   6.699   6.281   7.455 -3.4717  0.0430 -1.1279
   48CHL1  H22B 3536   6.806   6.420   7.441 -0.2493 -0.2450 -2.4206
   48CHL1   C23 3537   6.648   6.429   7.591 -0.1727 -0.6502  0.3873
   48CHL1  H23A 3538   6.639   6.539   7.600 -1.2336 -0.6379 -0.5611
   48CHL1  H23B 3539   6.546   6.386   7.602  0.3709 -2.1813 -0.3742
   48CHL1   C24 3540   6.727   6.381   7.712 -0.0876 -0.1559 -0.6689
   48CHL1  H24A 3541   6.671   6.362   7.807  2.4013 -0.2552  0.8699
   48CHL1  H24B 3542   6.761   6.281   7.678 -2.0278 -0.7438 -0.9923
   48CHL1   C25 3543   6.833   6.477   7.753  0.1106 -0.4889  0.4479
   48CHL1   H25 3544   6.879   6.514   7.659  0.7656  1.0709  1.3428
   48CHL1   C26 3545   6.797   6.594   7.832 -0.5185 -0.2604  0.9385
   48CHL1  H26A 3546   6.880   6.663   7.856 -0.3743  0.2145 -0.7983
   48CHL1  H26B 3547   6.733   6.663   7.772  1.2099 -0.4425 -1.2702
   48CHL1  H26C 3548   6.729   6.576   7.918 -2.9799 -0.6974 -0.9753
   48CHL1   C27 3549   6.944   6.405   7.840 -0.1368  0.6676 -0.3264
   48CHL1  H27A 3550   7.036   6.466   7.834  2.7284 -2.8411  2.8090
   48CHL1  H27B 3551   6.906   6.390   7.943 -0.5460 -1.3628 -0.7217
   48CHL1  H27C 3552   6.968   6.307   7.792 -0.1773  1.9527 -3.1527
   49CHL1    C3 3553   5.542   5.971   6.725 -0.3045 -0.4601  0.7115
   49CHL1    H3 3554   5.450   6.028   6.751 -0.2697 -0.1384  0.1286
   49CHL1    O3 3555   5.554   5.968   6.582  0.6401 -0.6315  0.4505
   49CHL1   H3' 3556   5.481   5.918   6.544  0.1193 -0.5012  1.2624
   49CHL1    C4 3557   5.662   6.051   6.786 -0.3209 -0.1753  0.7159
   49CHL1   H4A 3558   5.749   6.009   6.731 -0.4810  3.3697 -2.6260
   49CHL1   H4B 3559   5.656   6.153   6.744  1.7581  0.1666  1.1166
   49CHL1    C5 3560   5.670   6.044   6.938  0.3445  0.2682  0.4443
   49CHL1    C6 3561   5.675   6.151   7.022  0.7338  0.2606  0.1922
   49CHL1    H6 3562   5.681   6.254   6.982  1.6809  1.3338  2.8580
   49CHL1    C7 3563   5.680   6.150   7.168  0.2935  0.1764  0.2228
   49CHL1   H7A 3564   5.758   6.217   7.209  1.9680 -2.0375  0.8823
   49CHL1   H7B 3565   5.581   6.186   7.201 -1.4919 -3.9412 -0.0431
   49CHL1    C8 3566   5.707   6.007   7.230 -0.1158  0.5777  0.8967
   49CHL1    H8 3567   5.815   5.986   7.216  0.2069  1.8595  1.3320
   49CHL1   C14 3568   5.677   5.997   7.371  0.2450 -0.5601  0.0491
   49CHL1   H14 3569   5.568   6.004   7.387 -0.1301 -0.6850 -2.0997
   49CHL1   C15 3570   5.745   6.106   7.464 -0.7814 -0.6592  0.2118
   49CHL1  H15A 3571   5.853   6.108   7.439 -1.0561  0.9788 -1.0029
   49CHL1  H15B 3572   5.696   6.205   7.448 -3.3616 -1.6253  1.4545
   49CHL1   C16 3573   5.722   6.048   7.605 -0.0744 -0.1887  0.2783
   49CHL1  H16A 3574   5.823   6.038   7.651  0.6432 -0.2849 -1.2470
   49CHL1  H16B 3575   5.655   6.114   7.663 -0.6461 -0.1495 -0.4125
   49CHL1   C17 3576   5.678   5.900   7.583 -0.3572 -0.9202 -0.1309
   49CHL1   H17 3577   5.567   5.902   7.593 -0.3978  2.8101 -0.1310
   49CHL1   C13 3578   5.713   5.863   7.436  1.1765  0.4407  0.2480
   49CHL1   C18 3579   5.864   5.828   7.418 -0.3259  0.5760 -0.0947
   49CHL1  H18A 3580   5.922   5.911   7.464 -0.1011  0.9283 -0.9896
   49CHL1  H18B 3581   5.888   5.729   7.461  0.4835  0.2344 -1.2991
   49CHL1  H18C 3582   5.898   5.816   7.313  0.7748 -1.6843  0.4739
   49CHL1   C12 3583   5.620   5.758   7.371  0.3704  0.4297  0.9578
   49CHL1  H12A 3584   5.656   5.656   7.396  0.3875  0.1437 -0.1712
   49CHL1  H12B 3585   5.512   5.777   7.392 -0.7663 -1.9170 -1.9680
   49CHL1   C11 3586   5.624   5.760   7.213  0.0655  0.1595 -0.0608
   49CHL1  H11A 3587   5.719   5.713   7.181 -0.7545 -1.4126 -0.2605
   49CHL1  H11B 3588   5.542   5.695   7.176 -0.1933  0.6442 -0.3513
   49CHL1    C9 3589   5.623   5.902   7.153 -0.2066 -0.1827 -0.3602
   49CHL1    H9 3590   5.516   5.928   7.170 -0.7110 -2.8504  1.0443
   49CHL1   C10 3591   5.648   5.901   6.996  0.1389  0.0211 -0.7103
   49CHL1   C19 3592   5.785   5.832   6.978 -0.3200 -0.3111  0.6652
   49CHL1  H19A 3593   5.764   5.724   6.997 -0.1491 -0.6707 -1.0164
   49CHL1  H19B 3594   5.812   5.829   6.871 -3.4062 -0.2395 -0.2269
   49CHL1  H19C 3595   5.866   5.871   7.043 -1.1964  0.4782  1.3129
   49CHL1    C1 3596   5.527   5.819   6.929 -0.2248 -0.2949  0.2754
   49CHL1   H1A 3597   5.504   5.717   6.967 -1.4284  0.6230  2.2079
   49CHL1   H1B 3598   5.437   5.878   6.956 -0.4094 -0.7544  0.6827
   49CHL1    C2 3599   5.536   5.825   6.777  0.2653 -0.2420 -0.9983
   49CHL1   H2A 3600   5.446   5.774   6.738  0.4759 -0.3724 -1.3175
   49CHL1   H2B 3601   5.627   5.769   6.747  1.6410  0.8335  0.9364
   49CHL1   C20 3602   5.737   5.811   7.690 -0.6192 -1.0832 -0.4533
   49CHL1   H20 3603   5.848   5.811   7.691 -0.5739  0.8178 -1.0385
   49CHL1   C21 3604   5.702   5.661   7.673  0.0689 -0.1466 -0.2426
   49CHL1  H21A 3605   5.591   5.651   7.680  0.0723  0.5620  1.2198
   49CHL1  H21B 3606   5.751   5.597   7.749 -1.1150  0.3037  0.9514
   49CHL1  H21C 3607   5.735   5.631   7.571 -1.4151 -2.2563 -0.1595
   49CHL1   C22 3608   5.695   5.858   7.838  0.2563  0.0022  0.3133
   49CHL1  H22A 3609   5.772   5.936   7.854  0.7390 -0.4484  0.2111
   49CHL1  H22B 3610   5.597   5.910   7.840 -0.3884 -0.9365 -2.6466
   49CHL1   C23 3611   5.692   5.745   7.948  0.4558  0.7055  0.4949
   49CHL1  H23A 3612   5.605   5.677   7.932  0.2937  1.2429 -1.0063
   49CHL1  H23B 3613   5.790   5.692   7.942  0.5071  0.8823 -0.4164
   49CHL1   C24 3614   5.674   5.803   8.089  0.2170  0.0343 -0.2280
   49CHL1  H24A 3615   5.743   5.891   8.095  1.0352 -0.0975 -4.4278
   49CHL1  H24B 3616   5.573   5.847   8.097 -0.9348 -2.1849 -1.6572
   49CHL1   C25 3617   5.715   5.710   8.203  0.2418  0.5529  0.6098
   49CHL1   H25 3618   5.824   5.697   8.218  0.3378 -1.3526 -1.2908
   49CHL1   C26 3619   5.659   5.771   8.332  0.0498 -1.4757 -0.3731
   49CHL1  H26A 3620   5.704   5.869   8.358 -2.9366 -0.4412  1.4955
   49CHL1  H26B 3621   5.551   5.795   8.326 -0.0149 -1.2713  1.2099
   49CHL1  H26C 3622   5.665   5.705   8.422 -0.5638 -2.2001 -0.8473
   49CHL1   C27 3623   5.666   5.564   8.193 -0.0376 -0.1798 -0.0133
   49CHL1  H27A 3624   5.560   5.557   8.161  0.1341 -2.5714 -0.2347
   49CHL1  H27B 3625   5.723   5.500   8.123  0.1606 -0.7576  0.6555
   49CHL1  H27C 3626   5.683   5.514   8.291 -1.0632 -0.3915  0.0675
   50CHL1    C3 3627   5.990   1.710   6.813 -0.4460  0.9051  0.1332
   50CHL1    H3 3628   6.077   1.774   6.789  0.3194  0.0553  0.5811
   50CHL1    O3 3629   5.925   1.694   6.688  0.7818 -0.4562 -0.0301
   50CHL1   H3' 3630   5.907   1.599   6.687 -1.2743 -0.1078  0.5683
   50CHL1    C4 3631   6.038   1.574   6.863 -0.0116  0.0096 -0.2061
   50CHL1   H4A 3632   5.956   1.500   6.849 -0.1903  0.3748 -1.1496
   50CHL1   H4B 3633   6.120   1.529   6.804 -1.2657 -1.7985 -0.6672
   50CHL1    C5 3634   6.067   1.556   7.011  1.2213  0.3067  0.5596
   50CHL1    C6 3635   6.180   1.487   7.056  0.0852 -0.0336 -0.2509
   50CHL1    H6 3636   6.251   1.439   6.987  0.2441 -1.1757  0.6813
   50CHL1    C7 3637   6.217   1.473   7.198 -0.4456  0.7075  0.6071
   50CHL1   H7A 3638   6.235   1.366   7.220  1.2895  0.0827 -3.0803
   50CHL1   H7B 3639   6.304   1.536   7.225 -0.1411  1.7758 -2.4370
   50CHL1    C8 3640   6.097   1.520   7.292  0.0160  0.4183  0.7622
   50CHL1    H8 3641   6.015   1.445   7.295  1.1220 -0.7923  2.5324
   50CHL1   C14 3642   6.145   1.543   7.435  0.2423  0.2855  0.7297
   50CHL1   H14 3643   6.208   1.632   7.415 -2.4088  1.7987 -1.6253
   50CHL1   C15 3644   6.226   1.432   7.509  0.6806  0.0117 -0.0321
   50CHL1  H15A 3645   6.175   1.335   7.491  0.3651 -0.1305  1.5029
   50CHL1  H15B 3646   6.330   1.440   7.470 -0.2121  0.1178 -2.5917
   50CHL1   C16 3647   6.211   1.475   7.666  0.0335  0.5330 -0.0066
   50CHL1  H16A 3648   6.166   1.386   7.714  0.8239  0.5960  0.8647
   50CHL1  H16B 3649   6.316   1.480   7.701  0.1766  0.8533 -0.4713
   50CHL1   C17 3650   6.122   1.594   7.688 -0.2874 -0.1277 -0.3853
   50CHL1   H17 3651   6.190   1.682   7.691 -0.7557  0.2149  1.8586
   50CHL1   C13 3652   6.034   1.587   7.545 -0.0872 -1.1017  0.0502
   50CHL1   C18 3653   5.915   1.485   7.560  0.5181  0.6530  0.3746
   50CHL1  H18A 3654   5.839   1.537   7.622  0.7836  0.6575  0.6950
   50CHL1  H18B 3655   5.876   1.472   7.457  0.8855 -0.8425  0.4122
   50CHL1  H18C 3656   5.952   1.386   7.594  0.7330  0.1818 -1.1416
   50CHL1   C12 3657   5.979   1.722   7.502  0.2114  0.5421  0.3215
   50CHL1  H12A 3658   5.898   1.771   7.559 -2.6027 -1.4568 -1.6688
   50CHL1  H12B 3659   6.061   1.797   7.509  1.2514 -0.5732  0.3392
   50CHL1   C11 3660   5.930   1.721   7.350  0.1031  0.5683  0.3607
   50CHL1  H11A 3661   5.835   1.664   7.359  1.4316 -1.6799  1.0265
   50CHL1  H11B 3662   5.912   1.827   7.322 -1.3419  0.7814  1.9205
   50CHL1    C9 3663   6.039   1.650   7.248  0.0277  0.1870 -0.1268
   50CHL1    H9 3664   6.124   1.722   7.250  2.7996 -2.8717  1.1069
   50CHL1   C10 3665   5.978   1.632   7.107 -0.9981  0.0573 -0.2966
   50CHL1   C19 3666   5.844   1.557   7.120  1.0811 -0.5029  0.0745
   50CHL1  H19A 3667   5.849   1.457   7.170 -1.0467 -0.0920  1.2339
   50CHL1  H19B 3668   5.762   1.618   7.163  1.7687  0.4912 -0.0090
   50CHL1  H19C 3669   5.805   1.543   7.017  1.1206 -0.2421  0.0258
   50CHL1    C1 3670   5.955   1.777   7.055 -0.1102  0.3183  0.1989
   50CHL1   H1A 3671   5.878   1.819   7.123 -1.5995 -0.4350 -0.9541
   50CHL1   H1B 3672   6.047   1.838   7.066  0.0696 -0.0943  1.0771
   50CHL1    C2 3673   5.899   1.780   6.911 -0.3629 -0.0148 -0.5017
   50CHL1   H2A 3674   5.882   1.886   6.880  2.5223  0.4649 -0.7511
   50CHL1   H2B 3675   5.804   1.723   6.902  1.0207 -2.6701  0.6205
   50CHL1   C20 3676   6.056   1.588   7.823 -0.1293  0.2775  0.8878
   50CHL1   H20 3677   5.994   1.497   7.814 -0.8413  0.8608 -0.3541
   50CHL1   C21 3678   5.961   1.705   7.853  0.2580 -0.1077  0.1295
   50CHL1  H21A 3679   5.895   1.720   7.765  0.0554  0.5041  0.3796
   50CHL1  H21B 3680   6.021   1.795   7.879 -0.3529 -0.1655  1.8442
   50CHL1  H21C 3681   5.898   1.672   7.938 -1.6489  0.8852 -0.8536
   50CHL1   C22 3682   6.144   1.565   7.942  0.0252  0.3336 -0.7181
   50CHL1  H22A 3683   6.203   1.473   7.924  1.6671  1.1051  0.3709
   50CHL1  H22B 3684   6.217   1.648   7.960 -0.8829  0.8399  0.8506
   50CHL1   C23 3685   6.068   1.521   8.074 -0.0129 -0.1542 -0.5803
   50CHL1  H23A 3686   6.020   1.612   8.117  1.4010 -0.1595  1.1406
   50CHL1  H23B 3687   5.993   1.441   8.055 -2.5011  1.8580  0.2043
   50CHL1   C24 3688   6.166   1.487   8.192 -0.8799  0.5543  0.6331
   50CHL1  H24A 3689   6.238   1.412   8.154  0.8451  2.3784  0.1574
   50CHL1  H24B 3690   6.231   1.571   8.226 -0.0089  0.3093 -0.4056
   50CHL1   C25 3691   6.080   1.439   8.309 -0.9228  0.0366 -0.6651
   50CHL1   H25 3692   6.005   1.372   8.260  0.1554 -0.9456 -1.0314
   50CHL1   C26 3693   6.159   1.342   8.404 -0.4018 -0.0593 -0.4182
   50CHL1  H26A 3694   6.222   1.274   8.343  0.6994  0.2023  0.3899
   50CHL1  H26B 3695   6.223   1.407   8.468 -1.5796 -0.5926  1.3684
   50CHL1  H26C 3696   6.092   1.283   8.470 -1.2848  2.0182  0.6366
   50CHL1   C27 3697   6.022   1.558   8.382  0.4626 -0.2364 -0.3155
   50CHL1  H27A 3698   5.958   1.625   8.320 -1.2404 -0.7213  0.8615
   50CHL1  H27B 3699   5.954   1.525   8.463  1.0343 -0.8686 -0.0894
   50CHL1  H27C 3700   6.102   1.622   8.426 -1.2897  1.1487  0.9990
   51CHL1    C3 3701   5.511   0.567   7.048 -0.6039  0.5937 -0.6509
   51CHL1    H3 3702   5.437   0.485   7.062 -1.6857  1.5480 -0.5881
   51CHL1    O3 3703   5.509   0.608   6.911  0.0930 -0.3769 -0.1129
   51CHL1   H3' 3704   5.552   0.537   6.864 -0.4535 -0.4166 -0.5613
   51CHL1    C4 3705   5.463   0.686   7.129  0.2038 -0.3199 -0.7045
   51CHL1   H4A 3706   5.518   0.778   7.099  2.6355 -1.2242  0.6866
   51CHL1   H4B 3707   5.361   0.708   7.091 -0.3914  0.5246  1.2722
   51CHL1    C5 3708   5.489   0.672   7.281  0.1187  0.1682  0.1065
   51CHL1    C6 3709   5.388   0.675   7.364  0.8371  0.5975  0.1637
   51CHL1    H6 3710   5.289   0.705   7.326  0.3977 -1.0915 -0.1066
   51CHL1    C7 3711   5.397   0.662   7.515 -0.3032 -0.3115 -0.2630
   51CHL1   H7A 3712   5.333   0.737   7.567 -0.2373 -0.8949  0.6787
   51CHL1   H7B 3713   5.356   0.566   7.551 -2.2216  0.3989 -0.4318
   51CHL1    C8 3714   5.545   0.672   7.571  0.8416 -0.5933  0.2967
   51CHL1    H8 3715   5.570   0.781   7.571 -0.2474 -0.3090 -1.1959
   51CHL1   C14 3716   5.554   0.620   7.710  1.0787  0.3102 -0.8127
   51CHL1   H14 3717   5.520   0.515   7.708  1.5115  0.0915  1.0394
   51CHL1   C15 3718   5.471   0.687   7.821  0.1640 -0.0980 -0.5136
   51CHL1  H15A 3719   5.469   0.794   7.793  2.1945  0.2685  0.5501
   51CHL1  H15B 3720   5.367   0.650   7.819 -0.7030  2.1076  0.6170
   51CHL1   C16 3721   5.543   0.653   7.955  0.0947 -0.2953  0.4366
   51CHL1  H16A 3722   5.554   0.755   7.998  1.8107 -0.4906  0.5460
   51CHL1  H16B 3723   5.468   0.601   8.019 -0.4395  2.4130  2.1768
   51CHL1   C17 3724   5.669   0.573   7.909 -0.2044  0.6381 -0.3641
   51CHL1   H17 3725   5.630   0.470   7.894 -1.0997  1.0590 -1.0138
   51CHL1   C13 3726   5.696   0.617   7.767 -0.2661 -0.7349  0.8485
   51CHL1   C18 3727   5.749   0.759   7.756 -0.7069 -0.2571 -0.2485
   51CHL1  H18A 3728   5.819   0.770   7.842  0.3231 -1.0360 -0.9745
   51CHL1  H18B 3729   5.809   0.798   7.671 -0.8714  2.3314  0.7218
   51CHL1  H18C 3730   5.670   0.835   7.776 -1.8105 -1.2207 -0.7733
   51CHL1   C12 3731   5.777   0.514   7.682 -0.8892 -0.5592 -0.0830
   51CHL1  H12A 3732   5.880   0.513   7.724 -0.3176 -1.1237 -1.4504
   51CHL1  H12B 3733   5.744   0.408   7.692 -1.0928 -0.5792 -0.8957
   51CHL1   C11 3734   5.778   0.550   7.538 -0.1529 -0.3062  0.2429
   51CHL1  H11A 3735   5.848   0.633   7.514  1.2704 -1.4383  0.2777
   51CHL1  H11B 3736   5.813   0.465   7.476  0.7876  1.3499 -1.6036
   51CHL1    C9 3737   5.635   0.584   7.477  0.0074  0.1570 -0.5423
   51CHL1    H9 3738   5.588   0.483   7.482  0.4987 -0.0171  0.7768
   51CHL1   C10 3739   5.629   0.639   7.326 -1.3148  0.3937 -0.7677
   51CHL1   C19 3740   5.714   0.775   7.306  0.4444  0.2865 -0.1378
   51CHL1  H19A 3741   5.707   0.844   7.393  1.3492 -1.1860  1.1583
   51CHL1  H19B 3742   5.820   0.742   7.306 -0.2790 -2.2804  1.3904
   51CHL1  H19C 3743   5.697   0.832   7.212 -2.5678 -0.6117 -0.2301
   51CHL1    C1 3744   5.695   0.519   7.239  0.0403  0.2725  0.2796
   51CHL1   H1A 3745   5.806   0.519   7.248 -0.0893 -0.1175  2.4051
   51CHL1   H1B 3746   5.656   0.426   7.284  1.0327  0.6215  1.9419
   51CHL1    C2 3747   5.662   0.541   7.085 -0.1399  0.3099  0.1876
   51CHL1   H2A 3748   5.696   0.453   7.027 -0.1530 -0.4032  1.2329
   51CHL1   H2B 3749   5.726   0.631   7.073  0.1768  0.3047  1.6179
   51CHL1   C20 3750   5.783   0.583   8.009 -0.3233  0.0828 -0.0316
   51CHL1   H20 3751   5.879   0.571   7.953 -0.5454  0.4004 -0.4952
   51CHL1   C21 3752   5.777   0.462   8.113  0.4219  0.0025 -0.3600
   51CHL1  H21A 3753   5.690   0.479   8.179 -1.2687 -0.7092 -2.2930
   51CHL1  H21B 3754   5.872   0.455   8.171 -0.7250  1.8300  1.8990
   51CHL1  H21C 3755   5.760   0.369   8.054 -0.8867 -0.4002  0.6223
   51CHL1   C22 3756   5.805   0.706   8.095  0.2956 -0.7894  0.0325
   51CHL1  H22A 3757   5.788   0.800   8.037 -0.3289 -0.7229  0.3126
   51CHL1  H22B 3758   5.726   0.716   8.172  0.2995  0.8261 -0.1316
   51CHL1   C23 3759   5.948   0.714   8.142 -0.8001  0.3544 -0.9716
   51CHL1  H23A 3760   5.967   0.633   8.216 -2.7453  1.0975  0.4419
   51CHL1  H23B 3761   6.022   0.698   8.061  2.2877  0.7357  1.6006
   51CHL1   C24 3762   5.984   0.838   8.228  0.0180  0.1439  0.4688
   51CHL1  H24A 3763   5.974   0.936   8.176  3.6884  1.1888  1.4253
   51CHL1  H24B 3764   5.914   0.830   8.313 -1.8295 -0.4582 -1.0337
   51CHL1   C25 3765   6.127   0.839   8.282  0.5868  0.3442 -0.2051
   51CHL1   H25 3766   6.205   0.829   8.203 -0.5215 -2.6520 -1.0425
   51CHL1   C26 3767   6.171   0.959   8.367  0.6210 -1.1216  0.0042
   51CHL1  H26A 3768   6.154   1.050   8.307  1.1382 -0.9365  0.1362
   51CHL1  H26B 3769   6.113   0.969   8.461  1.8793  1.1929  0.5936
   51CHL1  H26C 3770   6.278   0.948   8.396  0.8227  1.7983  0.6350
   51CHL1   C27 3771   6.158   0.721   8.382 -0.7710 -0.0700  0.1971
   51CHL1  H27A 3772   6.090   0.726   8.469 -0.2253  1.6757  0.5491
   51CHL1  H27B 3773   6.144   0.622   8.333 -0.4378 -0.6381  1.2345
   51CHL1  H27C 3774   6.260   0.740   8.421 -0.7713  1.4397 -0.4598
   52CHL1    C3 3775   1.737   0.805   6.956 -1.1501  0.4022 -0.2222
   52CHL1    H3 3776   1.745   0.695   6.948  0.1374  0.5629 -1.6790
   52CHL1    O3 3777   1.774   0.874   6.836  0.1407  0.6751 -0.5503
   52CHL1   H3' 3778   1.866   0.901   6.843 -0.4954  3.1108 -0.7275
   52CHL1    C4 3779   1.593   0.838   6.990  0.3631  0.0425 -0.3190
   52CHL1   H4A 3780   1.567   0.946   6.988 -1.3736 -0.3491 -0.2410
   52CHL1   H4B 3781   1.530   0.808   6.904  1.4291  0.9500 -1.4443
   52CHL1    C5 3782   1.554   0.770   7.122  0.5266  0.3681 -0.3616
   52CHL1    C6 3783   1.456   0.675   7.144  0.0601  0.4035  0.3903
   52CHL1    H6 3784   1.391   0.647   7.060 -0.0211  1.1612  0.1950
   52CHL1    C7 3785   1.415   0.623   7.281 -0.6421  0.0955  0.0898
   52CHL1   H7A 3786   1.307   0.610   7.301 -0.4045  1.9173  3.0279
   52CHL1   H7B 3787   1.468   0.525   7.282 -2.1555 -0.7547  1.2017
   52CHL1    C8 3788   1.471   0.713   7.398  0.2339 -0.4252  0.1265
   52CHL1    H8 3789   1.412   0.808   7.399 -0.9986 -1.1494 -0.5447
   52CHL1   C14 3790   1.448   0.638   7.532  0.3654 -0.4875 -0.1406
   52CHL1   H14 3791   1.504   0.543   7.538 -1.1743 -1.4355 -0.1729
   52CHL1   C15 3792   1.297   0.603   7.570  0.1944  0.1719 -0.2828
   52CHL1  H15A 3793   1.228   0.690   7.561  2.0521  1.6799 -0.5647
   52CHL1  H15B 3794   1.253   0.514   7.520 -0.6178  0.6167 -0.3830
   52CHL1   C16 3795   1.309   0.566   7.724 -0.7810  0.2349 -0.3850
   52CHL1  H16A 3796   1.226   0.624   7.769 -0.0320  0.0744  1.2626
   52CHL1  H16B 3797   1.306   0.456   7.737  0.8586  0.0664 -1.1146
   52CHL1   C17 3798   1.451   0.617   7.767 -0.0020  0.0235  0.7401
   52CHL1   H17 3799   1.515   0.526   7.761  0.7244  0.5995 -2.1366
   52CHL1   C13 3800   1.499   0.717   7.648  0.4322 -0.0969  0.2774
   52CHL1   C18 3801   1.420   0.853   7.671  0.0354 -0.2719 -0.3384
   52CHL1  H18A 3802   1.406   0.910   7.577  0.6783  0.8476  0.2124
   52CHL1  H18B 3803   1.330   0.835   7.733  1.4973 -2.3465  1.3560
   52CHL1  H18C 3804   1.484   0.915   7.737 -1.5821 -0.0473  1.0840
   52CHL1   C12 3805   1.646   0.745   7.632  0.2492  0.6124  0.1619
   52CHL1  H12A 3806   1.688   0.819   7.704  0.0287  0.9009 -0.0032
   52CHL1  H12B 3807   1.705   0.650   7.636  1.2091  1.1610 -0.4891
   52CHL1   C11 3808   1.676   0.812   7.498  0.2693 -0.5641  0.4523
   52CHL1  H11A 3809   1.637   0.916   7.505  0.8485 -0.2131 -1.1243
   52CHL1  H11B 3810   1.787   0.818   7.490  0.2740 -0.5090  0.5537
   52CHL1    C9 3811   1.617   0.741   7.371 -0.0988 -0.0903 -0.2878
   52CHL1    H9 3812   1.663   0.640   7.361 -0.8733 -0.4640 -0.1433
   52CHL1   C10 3813   1.647   0.822   7.244  0.7799 -0.2043  0.3153
   52CHL1   C19 3814   1.611   0.966   7.258 -0.3904  0.2630  0.4737
   52CHL1  H19A 3815   1.516   0.975   7.315 -1.8704 -0.1976 -1.7961
   52CHL1  H19B 3816   1.697   1.014   7.309  1.3989 -0.3576 -1.8156
   52CHL1  H19C 3817   1.592   1.023   7.164 -0.6478 -3.0835 -1.6935
   52CHL1    C1 3818   1.796   0.810   7.203  0.0809 -0.3208 -0.0647
   52CHL1   H1A 3819   1.847   0.866   7.284  0.4823 -1.0480  0.1911
   52CHL1   H1B 3820   1.800   0.699   7.206 -2.5966 -0.4547  1.5665
   52CHL1    C2 3821   1.827   0.863   7.062 -0.7250 -0.1952  0.8091
   52CHL1   H2A 3822   1.928   0.820   7.050 -1.4151 -1.6350 -0.2943
   52CHL1   H2B 3823   1.831   0.972   7.043 -0.2858 -0.5237 -1.2561
   52CHL1   C20 3824   1.455   0.673   7.912 -0.0638  0.4226  0.3966
   52CHL1   H20 3825   1.385   0.760   7.917  0.8266  1.1800  0.0260
   52CHL1   C21 3826   1.593   0.726   7.957 -0.0205  0.5494 -0.3841
   52CHL1  H21A 3827   1.597   0.753   8.064  1.9021 -1.6085  0.1894
   52CHL1  H21B 3828   1.620   0.814   7.894  2.0955  0.7812  0.7541
   52CHL1  H21C 3829   1.665   0.641   7.947  0.4654  0.8366  0.5804
   52CHL1   C22 3830   1.405   0.575   8.020  0.2278  0.3338  0.2385
   52CHL1  H22A 3831   1.392   0.478   7.967 -1.5652  1.8578 -2.3346
   52CHL1  H22B 3832   1.481   0.559   8.099  1.2028  0.2266 -0.6872
   52CHL1   C23 3833   1.278   0.616   8.104 -0.3521 -0.4864  0.4563
   52CHL1  H23A 3834   1.284   0.724   8.128  0.9714 -0.8048  1.6998
   52CHL1  H23B 3835   1.190   0.615   8.036 -0.0142  0.5808 -0.0045
   52CHL1   C24 3836   1.247   0.532   8.232  0.1229  0.2456 -0.0405
   52CHL1  H24A 3837   1.147   0.562   8.269  0.4883  0.3587  0.8860
   52CHL1  H24B 3838   1.247   0.425   8.201 -0.7572  0.0246  0.6909
   52CHL1   C25 3839   1.351   0.547   8.343  0.0229 -0.2132 -0.6881
   52CHL1   H25 3840   1.446   0.502   8.308  0.4937  0.4634 -0.2970
   52CHL1   C26 3841   1.374   0.691   8.387  0.0401  0.1344  0.2913
   52CHL1  H26A 3842   1.445   0.699   8.473 -1.0738  0.6869  1.1959
   52CHL1  H26B 3843   1.416   0.748   8.301  0.7870 -1.6516 -0.5695
   52CHL1  H26C 3844   1.279   0.739   8.418 -0.4642 -0.3640 -0.4640
   52CHL1   C27 3845   1.297   0.460   8.457  0.1779 -0.1181  0.0958
   52CHL1  H27A 3846   1.187   0.467   8.466  0.2912 -0.1999  1.9668
   52CHL1  H27B 3847   1.318   0.354   8.433 -0.3083 -0.2313  0.1720
   52CHL1  H27C 3848   1.328   0.492   8.559 -2.7943  0.7681  0.8132
   53CHL1    C3 3849   4.592   3.417   7.097  0.1353  0.1251  0.4982
   53CHL1    H3 3850   4.493   3.373   7.123 -1.2979  2.1289 -1.2077
   53CHL1    O3 3851   4.603   3.410   6.954  0.0138 -0.2167  0.1884
   53CHL1   H3' 3852   4.696   3.432   6.942  0.8841 -2.2977  2.2503
   53CHL1    C4 3853   4.596   3.568   7.148  0.9621  0.3130 -0.3411
   53CHL1   H4A 3854   4.688   3.612   7.105 -0.2306  0.2686 -3.2335
   53CHL1   H4B 3855   4.512   3.619   7.095  0.2473  1.3145  1.6819
   53CHL1    C5 3856   4.588   3.577   7.299 -0.3608 -0.7244  0.1427
   53CHL1    C6 3857   4.496   3.654   7.359  0.2626 -0.4381  0.0729
   53CHL1    H6 3858   4.426   3.718   7.304 -0.7121 -0.5366  1.1553
   53CHL1    C7 3859   4.483   3.666   7.514 -0.0242 -0.4558  0.6314
   53CHL1   H7A 3860   4.474   3.774   7.538  2.3629 -0.4049  1.5235
   53CHL1   H7B 3861   4.387   3.616   7.541  0.2502 -1.1908  0.2763
   53CHL1    C8 3862   4.607   3.619   7.591 -0.3224  0.3067 -0.0414
   53CHL1    H8 3863   4.690   3.691   7.578 -0.5936  0.4619 -0.9737
   53CHL1   C14 3864   4.570   3.598   7.734 -0.0603 -0.5812 -0.1946
   53CHL1   H14 3865   4.501   3.511   7.739  0.5051 -1.0815 -0.8257
   53CHL1   C15 3866   4.519   3.717   7.821  0.6588  0.6165 -0.6060
   53CHL1  H15A 3867   4.584   3.806   7.802  0.0358  1.1758 -0.1841
   53CHL1  H15B 3868   4.415   3.744   7.791 -0.0123 -0.9961  0.1986
   53CHL1   C16 3869   4.540   3.690   7.969 -0.1469  0.8511  0.9844
   53CHL1  H16A 3870   4.588   3.779   8.015  0.8019  1.3888 -0.9538
   53CHL1  H16B 3871   4.444   3.680   8.024  0.6333 -0.4274  2.1766
   53CHL1   C17 3872   4.622   3.554   7.961  0.1394 -0.1817  0.5930
   53CHL1   H17 3873   4.536   3.484   7.957 -1.2107  1.4475 -0.1885
   53CHL1   C13 3874   4.685   3.540   7.821  0.2404  0.6351 -0.4295
   53CHL1   C18 3875   4.815   3.625   7.817 -0.5270  0.6341  0.4079
   53CHL1  H18A 3876   4.843   3.660   7.715 -1.1997  0.2590  0.0912
   53CHL1  H18B 3877   4.795   3.718   7.874  0.4585  0.4838  1.0246
   53CHL1  H18C 3878   4.896   3.571   7.871  0.4530  0.1207 -1.4699
   53CHL1   C12 3879   4.716   3.399   7.770 -0.3658  0.3872 -0.0305
   53CHL1  H12A 3880   4.794   3.353   7.834 -0.6659 -0.3043 -0.1533
   53CHL1  H12B 3881   4.629   3.331   7.783 -0.3826  0.5072  0.4962
   53CHL1   C11 3882   4.758   3.406   7.620 -0.7140 -0.4521  0.2027
   53CHL1  H11A 3883   4.854   3.462   7.611  0.1792 -2.1019 -1.1134
   53CHL1  H11B 3884   4.776   3.306   7.576  1.8447 -0.0345  0.1670
   53CHL1    C9 3885   4.655   3.483   7.534  0.2886 -0.5670 -0.3838
   53CHL1    H9 3886   4.557   3.429   7.533  0.7462 -1.4170 -0.1768
   53CHL1   C10 3887   4.696   3.495   7.379  0.4733 -0.2881  1.0310
   53CHL1   C19 3888   4.838   3.562   7.363  0.4175 -0.0775  0.3012
   53CHL1  H19A 3889   4.838   3.658   7.419 -0.4009 -0.6903  1.3769
   53CHL1  H19B 3890   4.916   3.494   7.402  1.2607 -0.0308 -1.2053
   53CHL1  H19C 3891   4.854   3.589   7.256 -0.8052  0.9199  0.3531
   53CHL1    C1 3892   4.702   3.357   7.301 -0.6556 -0.2656 -0.6514
   53CHL1   H1A 3893   4.782   3.299   7.351 -0.4785  2.0561  2.0014
   53CHL1   H1B 3894   4.608   3.302   7.324  0.3719 -1.0642  1.9240
   53CHL1    C2 3895   4.722   3.347   7.147 -0.0826 -0.2538  0.4112
   53CHL1   H2A 3896   4.724   3.244   7.105  3.6986 -0.0533 -0.1901
   53CHL1   H2B 3897   4.816   3.397   7.115 -0.5761  0.6877  0.3881
   53CHL1   C20 3898   4.699   3.501   8.088  0.0295  0.1447  0.2156
   53CHL1   H20 3899   4.805   3.512   8.057 -0.7990  1.3977 -2.4562
   53CHL1   C21 3900   4.647   3.364   8.129  0.0376  0.1561  0.5582
   53CHL1  H21A 3901   4.564   3.384   8.200 -0.4836 -0.4580  0.1325
   53CHL1  H21B 3902   4.722   3.302   8.182  1.1023 -0.2755 -1.3647
   53CHL1  H21C 3903   4.613   3.300   8.044 -0.5222  1.1383  0.0244
   53CHL1   C22 3904   4.682   3.596   8.211  0.5675 -0.3989 -0.7127
   53CHL1  H22A 3905   4.688   3.697   8.165 -2.3405  0.3090  0.2365
   53CHL1  H22B 3906   4.589   3.588   8.271 -0.4086 -1.0060 -2.2633
   53CHL1   C23 3907   4.797   3.578   8.311 -0.2582  0.1148 -0.0799
   53CHL1  H23A 3908   4.777   3.493   8.379 -0.0962  0.2318  0.1138
   53CHL1  H23B 3909   4.896   3.561   8.263  1.2001  0.8860  2.4923
   53CHL1   C24 3910   4.831   3.708   8.396  0.8731 -0.9786  0.3977
   53CHL1  H24A 3911   4.891   3.782   8.339 -0.3270 -1.5815 -1.7527
   53CHL1  H24B 3912   4.734   3.756   8.418  0.1126 -1.2705 -2.0160
   53CHL1   C25 3913   4.905   3.675   8.525 -0.2801 -0.3837 -0.5323
   53CHL1   H25 3914   4.964   3.583   8.505 -2.1424 -1.4722 -1.3000
   53CHL1   C26 3915   5.001   3.793   8.567  0.9769 -0.0571 -0.1895
   53CHL1  H26A 3916   5.034   3.779   8.673 -0.7375  1.9153  0.6698
   53CHL1  H26B 3917   5.084   3.802   8.494  0.1150  0.7799 -1.0748
   53CHL1  H26C 3918   4.943   3.888   8.573 -0.0493 -0.5942 -1.2016
   53CHL1   C27 3919   4.820   3.642   8.648  0.1146 -0.1000 -0.0724
   53CHL1  H27A 3920   4.881   3.624   8.739  0.2598 -1.5712 -0.4298
   53CHL1  H27B 3921   4.750   3.723   8.677  0.0255  0.1322 -0.9211
   53CHL1  H27C 3922   4.760   3.550   8.628  0.5334 -0.1932 -0.9709
   54CHL1    C3 3923   4.533   4.850   7.248  0.2671 -0.4656  0.0540
   54CHL1    H3 3924   4.623   4.822   7.307  2.1385  0.5778 -2.1532
   54CHL1    O3 3925   4.548   4.793   7.125 -0.1645  0.1209 -0.2458
   54CHL1   H3' 3926   4.463   4.786   7.081 -0.6947  0.0620  0.7844
   54CHL1    C4 3927   4.402   4.792   7.314  0.0391  0.3653 -0.2087
   54CHL1   H4A 3928   4.318   4.796   7.242 -1.3929 -0.0503  1.3817
   54CHL1   H4B 3929   4.434   4.687   7.328  0.7621  0.3175 -1.9973
   54CHL1    C5 3930   4.367   4.859   7.444  0.2941  0.0303 -0.0422
   54CHL1    C6 3931   4.341   4.788   7.555  0.2099  0.5971  0.3020
   54CHL1    H6 3932   4.348   4.679   7.557 -0.8973  0.5189  1.4051
   54CHL1    C7 3933   4.298   4.849   7.677 -0.2050  0.5299 -0.0555
   54CHL1   H7A 3934   4.217   4.797   7.734 -0.1248  1.4400  0.9206
   54CHL1   H7B 3935   4.387   4.845   7.744 -0.8151 -1.2751  0.7125
   54CHL1    C8 3936   4.262   5.003   7.662  0.3690 -0.3396  0.1468
   54CHL1    H8 3937   4.166   5.014   7.607 -0.1018 -0.5371  0.9140
   54CHL1   C14 3938   4.248   5.063   7.799  0.1873 -0.4342  0.2125
   54CHL1   H14 3939   4.343   5.040   7.852  0.9967  1.4559 -0.3350
   54CHL1   C15 3940   4.132   5.013   7.891 -0.1361  0.0222  0.4605
   54CHL1  H15A 3941   4.036   5.020   7.836  0.5394 -1.1461 -0.9500
   54CHL1  H15B 3942   4.151   4.910   7.929 -4.4746 -1.0100  0.2890
   54CHL1   C16 3943   4.133   5.111   8.009  0.9588 -0.3021  0.1247
   54CHL1  H16A 3944   4.029   5.143   8.030  0.3393 -2.3177  0.3728
   54CHL1  H16B 3945   4.176   5.064   8.100  0.8512  1.1059  0.9284
   54CHL1   C17 3946   4.224   5.235   7.966  0.0238 -0.1134 -0.2141
   54CHL1   H17 3947   4.323   5.220   8.013 -1.1814 -0.5347  2.3264
   54CHL1   C13 3948   4.232   5.219   7.809  0.1949  0.8201 -0.0087
   54CHL1   C18 3949   4.107   5.264   7.743  0.2029 -0.8778 -0.0977
   54CHL1  H18A 3950   4.014   5.245   7.801 -0.1668  0.7155 -0.1349
   54CHL1  H18B 3951   4.113   5.373   7.722  1.1527 -0.6027  1.4560
   54CHL1  H18C 3952   4.084   5.209   7.649  0.1563 -2.2145  0.6752
   54CHL1   C12 3953   4.360   5.276   7.742 -0.0279 -0.4059 -0.0049
   54CHL1  H12A 3954   4.351   5.386   7.734 -0.4860 -0.2905  1.7909
   54CHL1  H12B 3955   4.446   5.248   7.806  0.3770  4.2285  1.8093
   54CHL1   C11 3956   4.384   5.231   7.600  0.3250 -0.3710 -0.3240
   54CHL1  H11A 3957   4.297   5.263   7.538 -0.0370 -0.6686  0.0278
   54CHL1  H11B 3958   4.476   5.270   7.550  1.5647 -2.7767 -0.0827
   54CHL1    C9 3959   4.375   5.069   7.585  0.0099 -0.6297  0.2428
   54CHL1    H9 3960   4.463   5.030   7.640 -0.6224 -3.5800 -0.6552
   54CHL1   C10 3961   4.377   5.012   7.435 -0.1525 -0.0990 -0.2063
   54CHL1   C19 3962   4.264   5.073   7.355 -0.2306 -0.3183  0.6886
   54CHL1  H19A 3963   4.270   5.183   7.345  0.8933 -0.3375  0.9868
   54CHL1  H19B 3964   4.268   5.033   7.251 -0.2405 -1.4343  1.1044
   54CHL1  H19C 3965   4.158   5.057   7.382 -0.3334 -0.4680  0.2172
   54CHL1    C1 3966   4.512   5.059   7.369 -0.2526  0.6823  0.2878
   54CHL1   H1A 3967   4.504   5.170   7.359 -0.7279  0.4870 -2.4181
   54CHL1   H1B 3968   4.597   5.016   7.425 -0.4186 -0.7575 -0.5294
   54CHL1    C2 3969   4.533   5.003   7.228  0.2502  0.0368  0.3794
   54CHL1   H2A 3970   4.631   5.034   7.186  0.2519 -1.8896 -1.1818
   54CHL1   H2B 3971   4.459   5.036   7.152  0.1959  0.5660  0.6596
   54CHL1   C20 3972   4.169   5.365   8.016 -0.4120 -0.5093 -0.3862
   54CHL1   H20 3973   4.062   5.371   7.986 -0.8826 -0.5156  1.2287
   54CHL1   C21 3974   4.249   5.487   7.976  0.0570  0.3211  0.3391
   54CHL1  H21A 3975   4.231   5.496   7.867  2.5494 -2.5215 -0.4377
   54CHL1  H21B 3976   4.357   5.472   7.995  0.1853 -0.0565 -0.6251
   54CHL1  H21C 3977   4.230   5.582   8.029  1.2449  0.5851  0.3176
   54CHL1   C22 3978   4.163   5.377   8.166 -0.4794  0.4115 -0.3823
   54CHL1  H22A 3979   4.112   5.473   8.189  0.2764  0.6868  0.1715
   54CHL1  H22B 3980   4.097   5.292   8.193 -0.9892  1.0621  0.4903
   54CHL1   C23 3981   4.294   5.351   8.242  0.2867  0.2121 -0.5323
   54CHL1  H23A 3982   4.337   5.252   8.217  2.7031  0.5630  1.8918
   54CHL1  H23B 3983   4.367   5.429   8.212  2.0279 -0.1730  2.3842
   54CHL1   C24 3984   4.260   5.370   8.393  0.1369 -0.2641 -0.3294
   54CHL1  H24A 3985   4.247   5.480   8.402  1.8575 -0.1924  2.7730
   54CHL1  H24B 3986   4.175   5.306   8.425 -0.7122  1.1161  0.2853
   54CHL1   C25 3987   4.375   5.346   8.496  0.3357 -0.3960 -0.3391
   54CHL1   H25 3988   4.425   5.255   8.456  0.8141 -0.3554  0.1446
   54CHL1   C26 3989   4.486   5.455   8.496 -0.4676 -0.7509  0.3385
   54CHL1  H26A 3990   4.578   5.427   8.550  0.4181  1.4878  0.1041
   54CHL1  H26B 3991   4.517   5.494   8.396 -2.2376  2.3381  0.8440
   54CHL1  H26C 3992   4.443   5.546   8.543  0.8467  0.3417 -0.4883
   54CHL1   C27 3993   4.320   5.320   8.637 -0.2947  0.4655  0.3010
   54CHL1  H27A 3994   4.398   5.303   8.714 -0.5712  3.1785  1.2824
   54CHL1  H27B 3995   4.253   5.407   8.656 -0.6613  0.3174 -0.2738
   54CHL1  H27C 3996   4.263   5.224   8.629  1.3175 -0.4789 -0.2476
   55CHL1    C3 3997   4.246   0.712   7.263 -0.0834 -0.3548  0.1224
   55CHL1    H3 3998   4.343   0.697   7.314  0.3970 -1.5327 -1.0945
   55CHL1    O3 3999   4.252   0.702   7.121 -0.1719  0.0199  0.1125
   55CHL1   H3' 4000   4.190   0.773   7.102  2.3860  2.5655  0.6534
   55CHL1    C4 4001   4.138   0.615   7.319 -0.4201 -0.4516  0.1744
   55CHL1   H4A 4002   4.044   0.645   7.268  0.5330  1.5392 -0.4905
   55CHL1   H4B 4003   4.167   0.511   7.293  0.9485  0.1356 -0.7327
   55CHL1    C5 4004   4.130   0.625   7.467  0.6742 -0.1514  0.2465
   55CHL1    C6 4005   4.158   0.532   7.557  0.3756  0.3905  0.7879
   55CHL1    H6 4006   4.191   0.433   7.522  0.5877  1.3049 -1.8630
   55CHL1    C7 4007   4.155   0.545   7.703  0.8558 -0.4530  0.0811
   55CHL1   H7A 4008   4.091   0.471   7.755  2.4331 -1.2928  0.9038
   55CHL1   H7B 4009   4.256   0.530   7.747 -0.1681  0.5706  3.0201
   55CHL1    C8 4010   4.097   0.675   7.755 -0.0436  0.2417  0.3663
   55CHL1    H8 4011   3.986   0.675   7.744 -0.0609 -3.3688 -0.4184
   55CHL1   C14 4012   4.130   0.691   7.902 -1.0359 -0.2701 -0.3413
   55CHL1   H14 4013   4.239   0.710   7.890 -0.7795 -2.1303 -1.5971
   55CHL1   C15 4014   4.115   0.574   7.994  0.9691  0.6448  0.0139
   55CHL1  H15A 4015   4.018   0.520   7.980  1.6848 -0.9583  0.9351
   55CHL1  H15B 4016   4.196   0.497   7.993  1.3079  0.9555 -2.3373
   55CHL1   C16 4017   4.103   0.644   8.127  0.1294  0.5649 -0.4314
   55CHL1  H16A 4018   4.009   0.606   8.171  0.5928  1.3235  1.2767
   55CHL1  H16B 4019   4.183   0.610   8.196  0.1740  2.2732  0.4051
   55CHL1   C17 4020   4.096   0.800   8.116 -0.5818 -0.7181  0.5846
   55CHL1   H17 4021   4.202   0.834   8.115 -0.8441  0.2474 -2.2522
   55CHL1   C13 4022   4.065   0.821   7.963 -0.0289  0.4878  0.5978
   55CHL1   C18 4023   3.910   0.808   7.948  0.2455  0.0316  0.2413
   55CHL1  H18A 4024   3.877   0.817   7.842 -1.5333  0.4125  0.7875
   55CHL1  H18B 4025   3.868   0.717   7.996  0.1420 -1.0378 -1.7824
   55CHL1  H18C 4026   3.872   0.901   7.996  1.9472  1.6116 -1.3273
   55CHL1   C12 4027   4.116   0.945   7.887  0.2247 -0.2901 -0.2064
   55CHL1  H12A 4028   4.044   1.024   7.916 -1.8382 -0.7990 -3.5034
   55CHL1  H12B 4029   4.221   0.963   7.920 -0.3742  0.9024  1.1531
   55CHL1   C11 4030   4.109   0.931   7.730  0.2903 -0.6588  0.4725
   55CHL1  H11A 4031   4.005   0.960   7.704  1.1024  1.8499 -0.2548
   55CHL1  H11B 4032   4.178   1.008   7.688 -1.2871  0.4884 -0.1252
   55CHL1    C9 4033   4.150   0.791   7.674  1.0157 -0.1090  0.3352
   55CHL1    H9 4034   4.259   0.772   7.687  0.4766 -4.3888 -0.0261
   55CHL1   C10 4035   4.110   0.770   7.523 -0.6436 -0.2748  0.3133
   55CHL1   C19 4036   3.956   0.793   7.506 -0.5883  0.2012  0.2159
   55CHL1  H19A 4037   3.937   0.899   7.529  0.5186  0.6710 -0.9213
   55CHL1  H19B 4038   3.911   0.788   7.404  0.3849 -1.4474 -0.1880
   55CHL1  H19C 4039   3.903   0.714   7.564 -0.1909 -0.9267 -0.8993
   55CHL1    C1 4040   4.192   0.877   7.441  0.6893 -0.0227 -0.0847
   55CHL1   H1A 4041   4.144   0.977   7.445  2.1330  0.7843 -1.5525
   55CHL1   H1B 4042   4.297   0.883   7.476  0.4517 -1.3233  0.9208
   55CHL1    C2 4043   4.207   0.862   7.291  0.0124  0.6135  0.2833
   55CHL1   H2A 4044   4.292   0.924   7.255  0.6262 -0.5493 -0.3070
   55CHL1   H2B 4045   4.110   0.884   7.242  0.2302  1.1776  0.0943
   55CHL1   C20 4046   4.019   0.871   8.226 -0.4746 -0.1874 -0.5989
   55CHL1   H20 4047   3.910   0.855   8.213 -1.0276  2.5961 -0.0880
   55CHL1   C21 4048   4.051   1.017   8.226 -0.0122  0.2460 -0.5716
   55CHL1  H21A 4049   4.161   1.034   8.229  0.0428 -0.1142  1.4734
   55CHL1  H21B 4050   4.018   1.072   8.317  0.2432  0.1904 -0.4430
   55CHL1  H21C 4051   4.008   1.066   8.137 -2.0076  0.9237  0.6913
   55CHL1   C22 4052   4.042   0.812   8.373  0.1718  0.3903 -0.9228
   55CHL1  H22A 4053   3.973   0.856   8.448  0.5207  1.4698 -1.2064
   55CHL1  H22B 4054   4.022   0.703   8.380  1.8547  0.1561  1.1024
   55CHL1   C23 4055   4.190   0.834   8.425 -0.3139 -0.5816  0.2303
   55CHL1  H23A 4056   4.261   0.802   8.346 -0.1819 -0.5824  0.3492
   55CHL1  H23B 4057   4.200   0.944   8.432  0.6252 -0.7694  3.7894
   55CHL1   C24 4058   4.215   0.774   8.563 -0.1930  0.2443 -0.8628
   55CHL1  H24A 4059   4.153   0.819   8.644  1.3084 -1.3036  1.2562
   55CHL1  H24B 4060   4.177   0.670   8.562 -0.3928  0.2841 -3.1700
   55CHL1   C25 4061   4.359   0.769   8.622 -0.5388 -0.1441 -0.2186
   55CHL1   H25 4062   4.417   0.861   8.601  0.3344 -0.5904  0.1841
   55CHL1   C26 4063   4.360   0.753   8.778 -0.6111  0.5458  0.3140
   55CHL1  H26A 4064   4.315   0.652   8.795 -2.0432  1.0981 -0.0836
   55CHL1  H26B 4065   4.467   0.749   8.808  0.0060  0.4739 -1.7084
   55CHL1  H26C 4066   4.302   0.840   8.815 -0.6108  1.3106 -1.3693
   55CHL1   C27 4067   4.437   0.649   8.565  0.0511  0.0109  0.2215
   55CHL1  H27A 4068   4.544   0.655   8.594 -0.0118 -2.0037  1.0210
   55CHL1  H27B 4069   4.399   0.549   8.596  1.0848 -0.7259 -0.8284
   55CHL1  H27C 4070   4.446   0.656   8.454  4.2522 -1.9950  0.2480
   56CHL1    C3 4071   4.671   3.906   6.982 -0.1317 -0.0606 -0.6884
   56CHL1    H3 4072   4.605   3.829   7.028  3.0264 -1.2715  2.2887
   56CHL1    O3 4073   4.672   3.909   6.836  0.5313 -0.0183 -0.1152
   56CHL1   H3' 4074   4.761   3.887   6.809  0.3592 -3.1719  1.4186
   56CHL1    C4 4075   4.623   4.043   7.033 -0.5826  0.0630  0.4982
   56CHL1   H4A 4076   4.687   4.124   6.991 -0.4726  0.5321  1.5410
   56CHL1   H4B 4077   4.522   4.056   6.989 -0.3250  1.3863  0.2392
   56CHL1    C5 4078   4.629   4.048   7.186  0.3986  0.1796  0.7470
   56CHL1    C6 4079   4.514   4.065   7.259  0.1195  0.3136 -0.0496
   56CHL1    H6 4080   4.414   4.080   7.216  0.9178  0.0324 -2.1210
   56CHL1    C7 4081   4.518   4.065   7.405 -0.3786 -0.1821 -0.1611
   56CHL1   H7A 4082   4.453   4.149   7.440  0.9836  1.4085 -1.2886
   56CHL1   H7B 4083   4.472   3.968   7.433  0.5780 -1.4933 -2.8421
   56CHL1    C8 4084   4.657   4.090   7.463 -0.1517  0.4967 -0.2598
   56CHL1    H8 4085   4.674   4.197   7.436  0.4518  0.7296  0.9628
   56CHL1   C14 4086   4.661   4.067   7.616 -0.0455  0.2213  0.0972
   56CHL1   H14 4087   4.645   3.957   7.627 -2.4787  0.2844 -1.8468
   56CHL1   C15 4088   4.551   4.136   7.705 -1.0911  0.7204  0.3171
   56CHL1  H15A 4089   4.533   4.244   7.684 -1.5818  1.1832  2.7330
   56CHL1  H15B 4090   4.450   4.091   7.698  0.0941 -2.0967  0.2535
   56CHL1   C16 4091   4.613   4.126   7.847  0.5522  0.5866  0.3646
   56CHL1  H16A 4092   4.615   4.231   7.884  0.3880  0.4065  0.8934
   56CHL1  H16B 4093   4.545   4.061   7.905  3.6329 -2.1626  1.2099
   56CHL1   C17 4094   4.758   4.073   7.839 -0.0668 -0.0191  0.1240
   56CHL1   H17 4095   4.746   3.965   7.863  0.3856 -0.2352 -0.5805
   56CHL1   C13 4096   4.796   4.079   7.688  0.5994  0.2078 -0.3187
   56CHL1   C18 4097   4.846   4.225   7.657 -0.1952  0.1363 -0.1496
   56CHL1  H18A 4098   4.951   4.235   7.691 -0.7228 -0.4448  1.7975
   56CHL1  H18B 4099   4.841   4.236   7.546  1.3629 -0.3255 -0.2866
   56CHL1  H18C 4100   4.780   4.304   7.699 -0.3864  0.6932 -1.4421
   56CHL1   C12 4101   4.889   3.974   7.624 -0.4567  0.1848 -0.6665
   56CHL1  H12A 4102   4.992   3.995   7.660 -0.8897  0.9968  0.1330
   56CHL1  H12B 4103   4.854   3.872   7.648 -1.5722  0.4491 -1.1253
   56CHL1   C11 4104   4.901   4.000   7.474 -0.3025  1.5967 -0.0219
   56CHL1  H11A 4105   4.960   4.092   7.455  2.4731 -0.2735 -1.0390
   56CHL1  H11B 4106   4.963   3.916   7.437 -2.3255  0.3126 -0.6354
   56CHL1    C9 4107   4.763   3.995   7.399  0.7453 -0.3157 -0.7976
   56CHL1    H9 4108   4.720   3.894   7.417 -0.2953  0.4459  1.3464
   56CHL1   C10 4109   4.764   4.008   7.248  0.0497 -0.3433 -0.3547
   56CHL1   C19 4110   4.872   4.118   7.217  0.8440 -0.0681 -0.2918
   56CHL1  H19A 4111   4.865   4.209   7.281 -2.7846  0.4410 -1.2280
   56CHL1  H19B 4112   4.966   4.060   7.232 -0.5641 -2.3335  0.1888
   56CHL1  H19C 4113   4.855   4.152   7.112 -2.0096 -0.4744 -0.0196
   56CHL1    C1 4114   4.816   3.880   7.193  0.1640  0.4677  0.4030
   56CHL1   H1A 4115   4.919   3.853   7.226 -0.5913 -1.4949  1.2913
   56CHL1   H1B 4116   4.751   3.797   7.227  0.7734 -0.9588 -1.7125
   56CHL1    C2 4117   4.814   3.857   7.040  0.9138  0.2033 -0.7290
   56CHL1   H2A 4118   4.832   3.753   7.006  0.0642  0.5054 -2.2013
   56CHL1   H2B 4119   4.893   3.921   6.993 -0.3140  1.4308 -1.1913
   56CHL1   C20 4120   4.860   4.124   7.942  0.1567  0.0446  0.7713
   56CHL1   H20 4121   4.908   4.220   7.913  1.0680  0.2703  2.8664
   56CHL1   C21 4122   4.963   4.010   7.951  0.2944  0.5580 -0.1053
   56CHL1  H21A 4123   5.032   4.048   8.030 -1.4259  3.7534  0.0002
   56CHL1  H21B 4124   5.026   3.979   7.865 -0.9874 -0.8250 -0.5905
   56CHL1  H21C 4125   4.915   3.917   7.988  0.6666 -0.1050 -1.2428
   56CHL1   C22 4126   4.793   4.144   8.079  0.0455  0.4381  0.0980
   56CHL1  H22A 4127   4.731   4.235   8.069  2.1725  1.8600 -1.1054
   56CHL1  H22B 4128   4.728   4.055   8.092  0.1029  0.4804  0.7320
   56CHL1   C23 4129   4.876   4.156   8.209 -0.7318 -0.3154 -0.4088
   56CHL1  H23A 4130   4.810   4.159   8.299  0.7540  1.4176  0.6929
   56CHL1  H23B 4131   4.934   4.063   8.225 -0.9694 -0.2016  1.3776
   56CHL1   C24 4132   4.969   4.273   8.222  0.2637  0.1901 -0.2807
   56CHL1  H24A 4133   5.052   4.259   8.150  0.1214 -0.5482 -0.3020
   56CHL1  H24B 4134   4.910   4.359   8.183 -0.4095 -0.3720 -0.5156
   56CHL1   C25 4135   5.026   4.299   8.360 -0.3802 -0.4371 -0.3485
   56CHL1   H25 4136   4.949   4.325   8.436 -2.1269 -1.2487 -1.7600
   56CHL1   C26 4137   5.112   4.182   8.415  0.0087  0.3005  0.7742
   56CHL1  H26A 4138   5.044   4.095   8.424 -1.9969  1.3416 -2.6508
   56CHL1  H26B 4139   5.162   4.208   8.511  1.0886 -1.0047  0.5932
   56CHL1  H26C 4140   5.197   4.160   8.347  1.6402  0.9496  2.4993
   56CHL1   C27 4141   5.111   4.427   8.361 -0.1669  0.3319  0.0551
   56CHL1  H27A 4142   5.046   4.511   8.328 -1.3738  0.7562  3.1168
   56CHL1  H27B 4143   5.144   4.441   8.467  0.2116 -2.3006  0.3456
   56CHL1  H27C 4144   5.201   4.405   8.300  0.3914 -3.4302  1.9514
   57SAPC     N 4145   4.824   1.562  11.174 -0.3523 -0.3658  0.3786
   57SAPC   C12 4146   4.816   1.495  11.038  0.1870  0.2902  0.4307
   57SAPC  H12A 4147   4.714   1.512  11.007  0.0746  0.5641  0.9352
   57SAPC  H12B 4148   4.832   1.388  11.047  0.8792  0.5016  2.0198
   57SAPC   C13 4149   4.959   1.543  11.233  0.1582  0.1787 -0.6367
   57SAPC  H13A 4150   5.035   1.569  11.161  1.1664 -0.6928  0.0843
   57SAPC  H13B 4151   4.983   1.589  11.328  2.0765  0.0152 -0.9992
   57SAPC  H13C 4152   4.980   1.438  11.246  1.3003  0.5364  0.5670
   57SAPC   C14 4153   4.801   1.712  11.169  0.2548  0.6760 -0.2776
   57SAPC  H14A 4154   4.708   1.731  11.119  0.6147  1.6369 -0.5967
   57SAPC  H14B 4155   4.799   1.762  11.265 -1.3345 -0.0762  0.1169
   57SAPC  H14C 4156   4.883   1.754  11.112  1.0768 -1.1008 -0.4833
   57SAPC   C15 4157   4.723   1.499  11.267 -0.3788  0.1891  0.6714
   57SAPC  H15A 4158   4.624   1.507  11.224 -0.6246  1.4137  1.4063
   57SAPC  H15B 4159   4.733   1.392  11.265 -0.1092  0.2195  0.2706
   57SAPC  H15C 4160   4.732   1.541  11.366  1.8071  0.2232  0.5196
   57SAPC   C11 4161   4.894   1.542  10.912 -0.5001 -0.0364 -0.2548
   57SAPC  H11A 4162   4.844   1.638  10.890 -0.6091 -0.5821 -2.6480
   57SAPC  H11B 4163   4.900   1.475  10.824 -0.4253 -0.2797 -0.0694
   57SAPC     P 4164   5.141   1.629  10.861 -0.4054  0.2389 -0.3109
   57SAPC   O13 4165   5.092   1.760  10.820  0.1198  0.1353  0.1766
   57SAPC   O14 4166   5.262   1.631  10.945  0.1510 -0.0317  0.5340
   57SAPC   O12 4167   5.031   1.567  10.954 -0.3209  0.2979 -0.2150
   57SAPC   O11 4168   5.176   1.535  10.737 -0.3145 -0.1069 -0.7792
   57SAPC    C1 4169   5.198   1.583  10.601  0.7356 -0.2284 -0.6411
   57SAPC    HA 4170   5.167   1.503  10.531  0.1911 -1.0333  0.4894
   57SAPC    HB 4171   5.141   1.678  10.592 -0.2567 -0.6991  0.3390
   57SAPC    C2 4172   5.349   1.605  10.567  0.0454  0.3110 -0.1386
   57SAPC    HS 4173   5.385   1.673  10.648  1.2475  0.2864 -0.6442
   57SAPC   O21 4174   5.342   1.670  10.441  0.5914  0.1074  0.6064
   57SAPC   C21 4175   5.454   1.723  10.379 -0.3889  0.1964 -0.8481
   57SAPC   O22 4176   5.564   1.726  10.440  0.5823  0.0290  0.0588
   57SAPC   C22 4177   5.430   1.747  10.233  0.2281 -0.1085 -0.0661
   57SAPC   H2R 4178   5.426   1.855  10.209 -2.6227  0.1788  1.2773
   57SAPC   H2S 4179   5.522   1.710  10.183  0.7911 -0.8692  1.4468
   57SAPC    C3 4180   5.427   1.474  10.562 -0.5062  0.5066 -0.2640
   57SAPC    HX 4181   5.417   1.430  10.664 -0.5832 -1.8613 -1.2256
   57SAPC    HY 4182   5.534   1.494  10.538 -0.5160  2.4136  1.0421
   57SAPC   O31 4183   5.372   1.368  10.476  0.3181 -0.1053 -0.2507
   57SAPC   C31 4184   5.408   1.369  10.352 -0.0869  0.5290  1.0532
   57SAPC   O32 4185   5.481   1.446  10.300 -0.1584 -0.2461  0.5122
   57SAPC   C32 4186   5.335   1.253  10.280 -0.1648  1.0286  0.1843
   57SAPC   H2X 4187   5.256   1.302  10.220 -0.8235 -1.8530 -1.4805
   57SAPC   H2Y 4188   5.300   1.182  10.358  0.6955 -0.3878 -0.6646
   57SAPC   C23 4189   5.292   1.705  10.183 -0.1015 -0.4101 -0.6232
   57SAPC   H3R 4190   5.213   1.758  10.240  1.2074  0.2241  0.6550
   57SAPC   H3S 4191   5.285   1.594  10.188 -2.2786 -0.3585 -1.4427
   57SAPC   C24 4192   5.280   1.744  10.033 -0.8117 -0.4151 -0.6328
   57SAPC   H4R 4193   5.377   1.710   9.990  1.9550  1.6056  3.3103
   57SAPC   H4S 4194   5.288   1.853  10.015  1.9093 -0.6443 -1.3671
   57SAPC   C25 4195   5.156   1.684   9.971  0.0894  0.2611  0.4364
   57SAPC   H5R 4196   5.091   1.639  10.047 -0.0594 -1.3681 -0.6113
   57SAPC   C26 4197   5.116   1.697   9.843  0.3260  0.1360 -0.4777
   57SAPC   H6R 4198   5.021   1.653   9.809  0.8990 -1.0074 -0.6591
   57SAPC   C27 4199   5.192   1.770   9.738 -0.5372  0.8803  0.1511
   57SAPC   H7R 4200   5.244   1.695   9.675 -0.6710  0.5851  0.3897
   57SAPC   H7S 4201   5.272   1.830   9.786 -1.0979  0.8856  1.0965
   57SAPC   C28 4202   5.103   1.860   9.649 -0.0929 -0.3994 -0.5339
   57SAPC   H8R 4203   5.068   1.957   9.688 -3.3185 -1.1891 -1.2021
   57SAPC   C29 4204   5.036   1.823   9.541  0.6326  0.3586  0.0460
   57SAPC   H9R 4205   4.982   1.905   9.491 -0.9170  0.3251  1.5887
   57SAPC  C210 4206   5.022   1.685   9.478 -0.2043  0.2915 -0.1822
   57SAPC  H10R 4207   5.118   1.629   9.488 -1.4505 -2.2022 -1.2939
   57SAPC  H10S 4208   5.014   1.693   9.367 -2.3581 -2.8665 -0.3907
   57SAPC  C211 4209   4.908   1.601   9.528  0.3214  0.0539 -0.2399
   57SAPC  H11R 4210   4.873   1.626   9.629 -2.1547  1.8725 -1.4438
   57SAPC  C212 4211   4.853   1.495   9.457  0.1420  0.4022 -0.9297
   57SAPC  H12R 4212   4.775   1.434   9.504 -1.3234  2.3891 -0.6729
   57SAPC  C213 4213   4.898   1.450   9.315  0.4866  0.0953 -0.2241
   57SAPC  H13R 4214   4.882   1.343   9.290 -0.4386  0.7081 -2.5113
   57SAPC  H13S 4215   5.006   1.472   9.301  0.4794  0.8380  0.7357
   57SAPC  C214 4216   4.830   1.530   9.207 -0.1487 -0.1982 -0.5427
   57SAPC  H14R 4217   4.791   1.626   9.245 -1.6765 -0.3807 -1.5522
   57SAPC  C215 4218   4.812   1.500   9.076 -0.6647 -0.2715 -0.6355
   57SAPC  H15R 4219   4.762   1.567   9.005 -2.4602  1.9106  2.4498
   57SAPC  C216 4220   4.857   1.368   9.014 -0.2579  0.1418 -0.8461
   57SAPC  H16R 4221   4.794   1.338   8.928  0.3649 -2.1284 -0.5809
   57SAPC  H16S 4222   4.864   1.286   9.089  3.5326 -0.2753 -1.4706
   57SAPC  C217 4223   5.003   1.381   8.975 -0.3461  0.5309 -0.0815
   57SAPC  H17R 4224   5.059   1.437   9.052 -0.3405  2.1749 -1.2459
   57SAPC  H17S 4225   5.014   1.437   8.880  0.1797 -0.4817 -0.6375
   57SAPC  C218 4226   5.074   1.245   8.951  0.3835 -0.4569  0.9554
   57SAPC  H18R 4227   5.008   1.179   8.891  1.4024  0.0679 -0.8074
   57SAPC  H18S 4228   5.097   1.207   9.053  0.7127 -0.1351  1.0010
   57SAPC  C219 4229   5.208   1.247   8.872  0.0236 -0.1317 -0.2422
   57SAPC  H19R 4230   5.282   1.304   8.932 -1.0304  1.2571 -0.2076
   57SAPC  H19S 4231   5.198   1.299   8.775  1.4365 -0.8462 -0.7912
   57SAPC  C220 4232   5.257   1.102   8.838 -0.4136 -0.0739 -0.2253
   57SAPC  H20R 4233   5.343   1.107   8.768  0.7369  4.1216  1.1765
   57SAPC  H20S 4234   5.175   1.045   8.789 -0.4469  0.5000 -0.8560
   57SAPC  H20T 4235   5.281   1.058   8.937  1.7946  1.3990 -0.0232
   57SAPC   C33 4236   5.419   1.175  10.167  0.6918  0.2081  0.6101
   57SAPC   H3X 4237   5.512   1.128  10.205  1.5846 -0.4861 -2.1353
   57SAPC   H3Y 4238   5.456   1.242  10.087  1.1898 -0.9165 -0.1273
   57SAPC   C34 4239   5.331   1.070  10.094 -0.2605  0.6732  0.2341
   57SAPC   H4X 4240   5.240   1.125  10.062  0.2627  0.0553 -2.6494
   57SAPC   H4Y 4241   5.294   0.984  10.153 -1.3653  1.0186  0.0710
   57SAPC   C35 4242   5.397   1.010   9.971  0.1886  0.0187 -1.0970
   57SAPC   H5X 4243   5.490   0.957  10.003 -0.4814 -1.2653 -1.2310
   57SAPC   H5Y 4244   5.423   1.093   9.901  2.5373 -0.6928 -1.1570
   57SAPC   C36 4245   5.299   0.904   9.911  0.7543 -0.2688  0.8019
   57SAPC   H6X 4246   5.213   0.965   9.875  1.4137 -0.1006 -0.5728
   57SAPC   H6Y 4247   5.259   0.838   9.991 -1.0273  0.2270  0.3750
   57SAPC   C37 4248   5.357   0.829   9.792 -0.4971  0.1281 -0.0549
   57SAPC   H7X 4249   5.432   0.761   9.837 -0.8747  0.4530  1.0998
   57SAPC   H7Y 4250   5.398   0.897   9.714  2.0364 -0.3382  0.7752
   57SAPC   C38 4251   5.253   0.732   9.736 -0.0555  0.0405  0.8077
   57SAPC   H8X 4252   5.185   0.707   9.820  0.5389  2.9639  2.2887
   57SAPC   H8Y 4253   5.294   0.638   9.693  1.3968  0.3990  1.3536
   57SAPC   C39 4254   5.168   0.798   9.627 -0.4424 -0.4828  0.2738
   57SAPC   H9X 4255   5.237   0.810   9.542 -0.5489  0.8541  0.3522
   57SAPC   H9Y 4256   5.138   0.898   9.665  2.3304  0.3249  0.5553
   57SAPC  C310 4257   5.042   0.724   9.580  0.0701  0.4410 -0.5222
   57SAPC  H10X 4258   5.073   0.620   9.557 -1.2787 -0.0305 -0.2550
   57SAPC  H10Y 4259   5.019   0.768   9.480 -1.4880 -1.9977 -1.3234
   57SAPC  C311 4260   4.920   0.722   9.672  0.2455 -0.2622  0.1108
   57SAPC  H11X 4261   4.954   0.691   9.773  0.3410  1.3434  0.6085
   57SAPC  H11Y 4262   4.846   0.649   9.631  0.1436  0.0726 -0.3154
   57SAPC  C312 4263   4.841   0.850   9.692 -0.9552 -0.4595 -0.8893
   57SAPC  H12X 4264   4.822   0.893   9.591 -1.4099  2.4572  0.3520
   57SAPC  H12Y 4265   4.897   0.925   9.751 -0.9735 -0.1715 -1.2319
   57SAPC  C313 4266   4.716   0.824   9.777  0.1680 -0.0803  0.0293
   57SAPC  H13X 4267   4.658   0.742   9.729  0.2924  0.8384 -1.7343
   57SAPC  H13Y 4268   4.651   0.913   9.768 -0.5295 -0.3144  2.1498
   57SAPC  C314 4269   4.722   0.799   9.933 -0.6002 -0.1306  0.4506
   57SAPC  H14X 4270   4.767   0.877   9.997  1.8184  0.4145 -1.7462
   57SAPC  H14Y 4271   4.784   0.709   9.954  1.3841  1.2477  0.7319
   57SAPC  C315 4272   4.579   0.773   9.973 -0.1640  0.4150 -0.4344
   57SAPC  H15X 4273   4.584   0.719  10.070  0.5763 -2.3119 -1.8970
   57SAPC  H15Y 4274   4.533   0.705   9.898  0.6710  1.7776 -2.2684
   57SAPC  C316 4275   4.491   0.890   9.986  0.0776 -0.2241  0.0763
   57SAPC  H16X 4276   4.477   0.936   9.885 -1.1301 -0.6268  0.0369
   57SAPC  H16Y 4277   4.536   0.965  10.055 -2.5460  0.5930  1.0260
   57SAPC  C317 4278   4.353   0.857  10.048  0.2023  0.6262 -0.1886
   57SAPC  H17X 4279   4.369   0.830  10.155 -0.0763  1.6017  0.1045
   57SAPC  H17Y 4280   4.302   0.768  10.004  0.7234  1.1761 -1.9588
   57SAPC  C318 4281   4.249   0.967  10.052  0.2661  0.0043  0.3757
   57SAPC  H18X 4282   4.148   0.932  10.081 -0.5846 -0.0052 -2.3148
   57SAPC  H18Y 4283   4.241   1.012   9.951  0.8477 -1.3815 -0.3235
   57SAPC  H18Z 4284   4.277   1.049  10.122 -2.5955  0.4416  1.1608
   58SAPC     N 4285   0.472   5.874  10.985  0.0993 -0.6915 -0.0685
   58SAPC   C12 4286   0.483   5.854  10.838 -0.1901  0.1627  0.1650
   58SAPC  H12A 4287   0.452   5.751  10.828 -0.4095  0.4245 -3.1553
   58SAPC  H12B 4288   0.581   5.883  10.802 -0.7056  1.5762 -0.1830
   58SAPC   C13 4289   0.566   5.769  11.047 -0.7528 -0.3448 -0.2306
   58SAPC  H13A 4290   0.666   5.800  11.020  0.3472 -1.6733  2.0452
   58SAPC  H13B 4291   0.553   5.766  11.154  0.7732  2.0904  0.1135
   58SAPC  H13C 4292   0.556   5.667  11.012 -1.9943 -1.0885  2.0563
   58SAPC   C14 4293   0.519   6.008  11.031 -0.3198 -0.4977 -0.1641
   58SAPC  H14A 4294   0.620   6.033  11.002 -0.3790  1.4840  1.1026
   58SAPC  H14B 4295   0.449   6.087  11.008  1.3657  0.5953 -1.8381
   58SAPC  H14C 4296   0.539   6.011  11.138 -1.0272 -1.3226  0.0009
   58SAPC   C15 4297   0.338   5.848  11.037 -0.1058  0.0934 -0.8631
   58SAPC  H15A 4298   0.331   5.857  11.145 -1.8503 -0.8760 -0.8558
   58SAPC  H15B 4299   0.272   5.922  10.995  2.4829  2.6345 -0.7682
   58SAPC  H15C 4300   0.309   5.750  11.002 -0.0956  0.3979 -1.7571
   58SAPC   C11 4301   0.377   5.936  10.754 -0.8888 -0.3256  0.3687
   58SAPC  H11A 4302   0.419   5.928  10.651  1.7846  0.8144  1.2766
   58SAPC  H11B 4303   0.390   6.041  10.787 -1.1181  0.6788 -2.4327
   58SAPC     P 4304   0.204   5.744  10.710  0.1435 -0.6583  0.0638
   58SAPC   O13 4305   0.307   5.646  10.754  0.0031 -1.0981 -0.8195
   58SAPC   O14 4306   0.066   5.714  10.750 -0.1179 -0.5058 -0.2174
   58SAPC   O12 4307   0.240   5.887  10.763  0.2997 -0.0166 -0.1714
   58SAPC   O11 4308   0.211   5.758  10.554 -0.5962 -0.0006 -0.1878
   58SAPC    C1 4309   0.176   5.864  10.470  0.1182  0.1150  0.4836
   58SAPC    HA 4310   0.137   5.958  10.512  1.8028  1.0978 -0.0391
   58SAPC    HB 4311   0.265   5.880  10.404  0.9122  1.0726  1.7443
   58SAPC    C2 4312   0.063   5.809  10.376  0.2550 -0.0286  0.1182
   58SAPC    HS 4313  -0.024   5.803  10.446 -1.1345  0.8975 -1.4389
   58SAPC   O21 4314   0.091   5.681  10.323 -0.3165  0.1183  0.3652
   58SAPC   C21 4315  -0.011   5.596  10.311 -0.4271  0.0052  0.7052
   58SAPC   O22 4316  -0.124   5.614  10.346  0.0502  0.1699 -0.4115
   58SAPC   C22 4317   0.029   5.480  10.218 -0.3899  0.6336  0.2700
   58SAPC   H2R 4318   0.103   5.521  10.146 -0.0083 -4.4434 -2.7571
   58SAPC   H2S 4319   0.084   5.405  10.280  1.5162  1.7480  0.0063
   58SAPC    C3 4320   0.017   5.914  10.272 -0.2530  0.3153  0.7134
   58SAPC    HX 4321   0.067   6.005  10.311  3.3022 -1.1807  0.0252
   58SAPC    HY 4322  -0.093   5.931  10.279 -0.1555  1.5113 -0.2477
   58SAPC   O31 4323   0.051   5.881  10.134  0.5461 -0.0904 -0.5259
   58SAPC   C31 4324   0.170   5.908  10.093 -0.0617 -0.2786  0.3403
   58SAPC   O32 4325   0.259   5.963  10.159 -0.1653 -0.0344  0.5186
   58SAPC   C32 4326   0.197   5.874   9.948 -0.4119  0.0077 -0.1275
   58SAPC   H2X 4327   0.273   5.794   9.939  0.0353  0.1166  2.0644
   58SAPC   H2Y 4328   0.244   5.961   9.897  1.0579 -0.8612 -0.3158
   58SAPC   C23 4329  -0.086   5.413  10.137 -0.2510 -0.1321  0.1010
   58SAPC   H3R 4330  -0.177   5.400  10.199 -0.6699 -2.4571 -0.9008
   58SAPC   H3S 4331  -0.054   5.310  10.112  2.2207  0.1431  1.7685
   58SAPC   C24 4332  -0.123   5.489  10.011 -0.0025  0.7518  0.3795
   58SAPC   H4R 4333  -0.025   5.498   9.959  0.6633 -1.4722  1.1384
   58SAPC   H4S 4334  -0.162   5.589  10.039 -2.6317 -0.0424 -0.1523
   58SAPC   C25 4335  -0.219   5.406   9.925  0.6034 -0.4769  0.1755
   58SAPC   H5R 4336  -0.278   5.339   9.990  0.2534 -0.1084  0.2394
   58SAPC   C26 4337  -0.228   5.409   9.789  0.9665  0.1018 -0.3111
   58SAPC   H6R 4338  -0.297   5.340   9.739 -1.5153  1.8239  0.5524
   58SAPC   C27 4339  -0.153   5.483   9.687 -0.1216  0.2227  0.6961
   58SAPC   H7R 4340  -0.079   5.554   9.729  2.0144 -2.4147  1.6935
   58SAPC   H7S 4341  -0.214   5.539   9.612  1.6526 -1.2288 -1.9918
   58SAPC   C28 4342  -0.071   5.373   9.624  0.0144  0.1738 -0.1122
   58SAPC   H8R 4343   0.018   5.335   9.677  0.6459 -0.0170 -1.2723
   58SAPC   C29 4344  -0.107   5.319   9.508 -0.8003 -1.0518 -0.0304
   58SAPC   H9R 4345  -0.041   5.244   9.463 -1.1721 -1.4614  0.1100
   58SAPC  C210 4346  -0.222   5.355   9.425  0.7852 -0.1856  0.8511
   58SAPC  H10R 4347  -0.241   5.463   9.405  0.7080 -0.1939  0.8771
   58SAPC  H10S 4348  -0.307   5.320   9.488 -0.7720  1.7327 -0.0715
   58SAPC  C211 4349  -0.242   5.272   9.297  0.7463  0.4400  0.5411
   58SAPC  H11R 4350  -0.324   5.199   9.300  2.0773 -1.3490 -2.4929
   58SAPC  C212 4351  -0.173   5.284   9.177 -0.5957 -0.1345  0.1914
   58SAPC  H12R 4352  -0.202   5.211   9.100 -3.0029  0.1433  0.7495
   58SAPC  C213 4353  -0.069   5.382   9.131  0.2177 -0.4033  0.2625
   58SAPC  H13R 4354   0.020   5.325   9.094 -0.1253 -1.7949  1.4832
   58SAPC  H13S 4355  -0.033   5.432   9.223 -1.3405  1.0156  0.1420
   58SAPC  C214 4356  -0.138   5.470   9.025 -0.2371 -0.0981  0.3436
   58SAPC  H14R 4357  -0.206   5.542   9.072  1.0454  0.5908  1.2103
   58SAPC  C215 4358  -0.131   5.450   8.888 -0.1873  0.0060  0.1486
   58SAPC  H15R 4359  -0.173   5.510   8.806  0.5703 -0.6124 -0.7160
   58SAPC  C216 4360  -0.051   5.330   8.834  0.4733  0.5425  0.5672
   58SAPC  H16R 4361  -0.063   5.236   8.893  1.5435 -0.1853 -0.3283
   58SAPC  H16S 4362   0.053   5.366   8.850  0.5332 -0.2528  2.2195
   58SAPC  C217 4363  -0.066   5.295   8.684  0.7538 -0.0085 -0.7112
   58SAPC  H17R 4364  -0.091   5.386   8.625 -0.9075 -0.7243 -1.1893
   58SAPC  H17S 4365  -0.147   5.220   8.671 -0.0247  0.4440  1.1291
   58SAPC  C218 4366   0.062   5.248   8.626 -0.3541  0.1352  0.2783
   58SAPC  H18R 4367   0.103   5.152   8.664  0.9857  0.4436 -0.3410
   58SAPC  H18S 4368   0.125   5.338   8.643 -0.7088  0.3242  0.6063
   58SAPC  C219 4369   0.060   5.229   8.475  0.3066  0.1823 -0.5273
   58SAPC  H19R 4370  -0.040   5.262   8.440 -0.2269  0.4906  1.2272
   58SAPC  H19S 4371   0.045   5.123   8.443 -1.0220  0.2799 -0.2599
   58SAPC  C220 4372   0.176   5.284   8.402 -0.5563 -0.5664  0.0200
   58SAPC  H20R 4373   0.158   5.289   8.293  1.9250 -0.2909 -0.4373
   58SAPC  H20S 4374   0.278   5.243   8.422  0.3341  1.6659  0.3553
   58SAPC  H20T 4375   0.178   5.394   8.419 -1.6419 -0.6418  0.7772
   58SAPC   C33 4376   0.067   5.831   9.883  0.1508  0.3390 -0.1854
   58SAPC   H3X 4377  -0.014   5.904   9.903 -1.5767 -1.8680  1.3065
   58SAPC   H3Y 4378   0.040   5.725   9.900  0.6183  0.4586  1.5505
   58SAPC   C34 4379   0.077   5.843   9.726 -0.4801  0.6591  0.3847
   58SAPC   H4X 4380   0.099   5.950   9.708  1.7574 -0.0802 -1.8465
   58SAPC   H4Y 4381  -0.020   5.821   9.676 -0.6546 -1.5143  1.5260
   58SAPC   C35 4382   0.189   5.756   9.669  0.8786  0.9696  0.3627
   58SAPC   H5X 4383   0.158   5.653   9.694  1.2503  0.2867 -1.8273
   58SAPC   H5Y 4384   0.288   5.790   9.705  0.6788 -0.8164  2.7684
   58SAPC   C36 4385   0.189   5.766   9.515  0.0790 -0.3084 -0.7853
   58SAPC   H6X 4386   0.093   5.719   9.483  0.2708 -0.8525 -0.5726
   58SAPC   H6Y 4387   0.260   5.689   9.477 -0.9530 -1.4338 -0.5042
   58SAPC   C37 4388   0.229   5.898   9.449 -0.1965  0.4675 -0.1487
   58SAPC   H7X 4389   0.334   5.927   9.472 -0.1908  0.4070 -0.0985
   58SAPC   H7Y 4390   0.156   5.974   9.484 -1.6630 -0.9970  0.1314
   58SAPC   C38 4391   0.202   5.890   9.300  0.1304 -0.9135 -0.1164
   58SAPC   H8X 4392   0.237   5.988   9.262  0.2894  0.7855  3.8870
   58SAPC   H8Y 4393   0.096   5.864   9.279 -0.3405 -1.3140  2.3771
   58SAPC   C39 4394   0.280   5.777   9.229 -0.3777 -0.3396 -0.2043
   58SAPC   H9X 4395   0.223   5.681   9.231 -0.8062 -0.0785  1.0842
   58SAPC   H9Y 4396   0.376   5.760   9.281 -0.9508  0.8983  1.3635
   58SAPC  C310 4397   0.304   5.807   9.078 -0.4461 -0.5001 -0.2621
   58SAPC  H10X 4398   0.383   5.737   9.043 -0.5943  0.0978 -1.8885
   58SAPC  H10Y 4399   0.351   5.907   9.069  0.3219 -0.8159  0.2150
   58SAPC  C311 4400   0.183   5.788   8.982 -0.0194 -0.3000  0.0977
   58SAPC  H11X 4401   0.115   5.872   9.010  0.4436  0.3459 -0.6862
   58SAPC  H11Y 4402   0.133   5.692   9.006  1.4067 -1.2660 -0.6799
   58SAPC  C312 4403   0.212   5.786   8.831  0.5787  0.3947  0.0465
   58SAPC  H12X 4404   0.278   5.698   8.815 -0.4411 -0.3138 -0.3944
   58SAPC  H12Y 4405   0.255   5.879   8.789  1.2098 -0.0353 -0.2717
   58SAPC  C313 4406   0.081   5.758   8.757 -0.1671  0.0290  0.3549
   58SAPC  H13X 4407   0.017   5.844   8.784  1.1889  1.0311  0.4781
   58SAPC  H13Y 4408   0.034   5.664   8.792 -0.4198  0.0325  0.0298
   58SAPC  C314 4409   0.093   5.741   8.599  0.5360  0.0650 -0.9102
   58SAPC  H14X 4410   0.159   5.652   8.592  1.8028  0.8328  0.6098
   58SAPC  H14Y 4411   0.155   5.822   8.555  1.3146 -0.3840 -0.6598
   58SAPC  C315 4412  -0.046   5.721   8.542  0.1370  0.8484  0.1694
   58SAPC  H15X 4413  -0.076   5.821   8.507 -0.5218  0.5163 -0.2301
   58SAPC  H15Y 4414  -0.117   5.693   8.623 -1.8938 -1.0790 -2.1027
   58SAPC  C316 4415  -0.042   5.630   8.426 -0.2895 -0.2903  0.1131
   58SAPC  H16X 4416  -0.015   5.528   8.462 -0.8056 -1.0708 -1.6204
   58SAPC  H16Y 4417   0.037   5.650   8.350  0.4987 -0.5367  0.8469
   58SAPC  C317 4418  -0.175   5.623   8.353 -0.0029  0.7599  0.7083
   58SAPC  H17X 4419  -0.261   5.607   8.421  1.8895  0.1172  3.0593
   58SAPC  H17Y 4420  -0.174   5.532   8.289  0.0390  0.5549  0.9990
   58SAPC  C318 4421  -0.207   5.737   8.258  0.0851 -0.7322  0.5615
   58SAPC  H18X 4422  -0.129   5.740   8.179 -1.1563  0.0150 -0.6905
   58SAPC  H18Y 4423  -0.211   5.828   8.323 -0.6848 -1.8185  2.1083
   58SAPC  H18Z 4424  -0.305   5.718   8.211  0.6610 -0.3290 -0.8452
   59SAPC     N 4425   1.547   0.626  11.020 -0.9612 -0.1278  0.1009
   59SAPC   C12 4426   1.571   0.770  11.069  0.0165 -0.4750 -0.0511
   59SAPC  H12A 4427   1.475   0.805  11.105  0.6393  0.3867  0.7928
   59SAPC  H12B 4428   1.605   0.826  10.984 -0.3577 -0.6423 -0.3150
   59SAPC   C13 4429   1.482   0.550  11.132  0.2696 -0.0108  0.1148
   59SAPC  H13A 4430   1.538   0.565  11.223  3.1379  1.2951 -1.7108
   59SAPC  H13B 4431   1.377   0.560  11.151  0.2473  0.5116 -0.2805
   59SAPC  H13C 4432   1.483   0.450  11.091  1.7443  0.1497 -0.3150
   59SAPC   C14 4433   1.458   0.623  10.898 -0.3549  0.3357 -0.8719
   59SAPC  H14A 4434   1.367   0.679  10.915  0.1078  0.8315  0.0643
   59SAPC  H14B 4435   1.507   0.659  10.809  1.9532 -2.1801 -0.7628
   59SAPC  H14C 4436   1.430   0.522  10.872 -1.4670  0.8836 -1.8925
   59SAPC   C15 4437   1.679   0.564  10.985  0.2093  0.8808  0.4694
   59SAPC  H15A 4438   1.704   0.592  10.883 -0.0861 -0.8863 -0.1176
   59SAPC  H15B 4439   1.755   0.590  11.057 -2.0189 -0.2460  3.4382
   59SAPC  H15C 4440   1.664   0.457  10.990 -3.9992  1.3326  1.6004
   59SAPC   C11 4441   1.675   0.802  11.181 -0.7596 -0.0291 -0.5911
   59SAPC  H11A 4442   1.651   0.748  11.275 -0.1847  0.3259 -0.2386
   59SAPC  H11B 4443   1.660   0.912  11.195  1.0925  0.1416  0.2905
   59SAPC     P 4444   1.905   0.883  11.082 -0.3217 -0.1572  0.4170
   59SAPC   O13 4445   1.843   0.926  10.955  0.1628 -0.3697 -0.5308
   59SAPC   O14 4446   1.912   0.995  11.181 -0.6308  0.0172  0.2509
   59SAPC   O12 4447   1.812   0.771  11.148  0.0720 -0.1608  0.3546
   59SAPC   O11 4448   2.047   0.819  11.051 -0.3289  0.1816  0.2798
   59SAPC    C1 4449   2.058   0.714  10.958  0.3361  0.1191 -0.2216
   59SAPC    HA 4450   2.121   0.633  11.001  1.8826  1.0184 -0.6972
   59SAPC    HB 4451   1.960   0.686  10.915 -0.6444  1.5037  1.0284
   59SAPC    C2 4452   2.137   0.744  10.826  0.8809 -0.3489  0.4339
   59SAPC    HS 4453   2.239   0.780  10.852  1.5574 -0.6245 -1.6020
   59SAPC   O21 4454   2.068   0.844  10.744 -0.2805  0.1415 -0.0317
   59SAPC   C21 4455   2.091   0.975  10.761  1.0051 -0.7605 -0.1665
   59SAPC   O22 4456   2.166   1.020  10.844 -0.5933 -0.8058  0.0536
   59SAPC   C22 4457   2.016   1.058  10.653  0.3859 -0.1902 -0.1179
   59SAPC   H2R 4458   1.905   1.059  10.658  0.2583 -0.3797 -2.0510
   59SAPC   H2S 4459   2.059   1.159  10.669  1.9031 -0.7817 -0.3122
   59SAPC    C3 4460   2.160   0.618  10.738  0.6409 -0.0911 -0.4853
   59SAPC    HX 4461   2.061   0.588  10.696  1.0115 -0.8795 -0.8160
   59SAPC    HY 4462   2.197   0.523  10.782  0.6900 -0.6978 -1.7938
   59SAPC   O31 4463   2.232   0.650  10.616  0.1735  0.2408 -0.2773
   59SAPC   C31 4464   2.371   0.653  10.629  1.0924  0.4849  0.1185
   59SAPC   O32 4465   2.433   0.631  10.728 -0.0395  0.3852  0.1277
   59SAPC   C32 4466   2.436   0.688  10.496  0.1186  0.3086  0.0927
   59SAPC   H2X 4467   2.464   0.590  10.453 -1.2830 -0.6124  1.1740
   59SAPC   H2Y 4468   2.528   0.746  10.519 -0.6953  1.7630 -0.1488
   59SAPC   C23 4469   2.045   1.010  10.511  0.7237 -0.4968  0.3494
   59SAPC   H3R 4470   1.973   0.928  10.490  0.8699 -0.1195 -1.9643
   59SAPC   H3S 4471   2.148   0.969  10.507  0.0162 -2.3727  0.2515
   59SAPC   C24 4472   2.038   1.122  10.407  0.0884 -0.4700 -0.5605
   59SAPC   H4R 4473   2.129   1.185  10.418 -0.8150  1.0678 -1.5892
   59SAPC   H4S 4474   1.949   1.185  10.425 -0.7622 -1.8136  0.0751
   59SAPC   C25 4475   2.028   1.055  10.277  0.5055  0.3776  0.2305
   59SAPC   H5R 4476   1.949   0.979  10.284 -0.1595  1.0701  0.4480
   59SAPC   C26 4477   2.073   1.096  10.160 -0.1963 -0.3354  1.1330
   59SAPC   H6R 4478   2.038   1.044  10.069 -3.7840  4.0648 -0.3935
   59SAPC   C27 4479   2.157   1.218  10.140  0.0758  0.4502 -0.1492
   59SAPC   H7R 4480   2.230   1.201  10.057 -1.5635  1.2399 -1.8099
   59SAPC   H7S 4481   2.222   1.243  10.227  0.4178 -1.3768  0.1493
   59SAPC   C28 4482   2.068   1.338  10.107  0.0502  0.3998  0.4854
   59SAPC   H8R 4483   2.059   1.398  10.199  2.2714 -0.8373  1.5977
   59SAPC   C29 4484   2.007   1.383   9.997  0.2857  0.3839  0.3765
   59SAPC   H9R 4485   1.936   1.467  10.001 -1.3614 -0.9650  0.9348
   59SAPC  C210 4486   2.008   1.326   9.858  0.0405 -0.2752  0.0542
   59SAPC  H10R 4487   2.010   1.215   9.861  0.6547 -0.2585  2.1962
   59SAPC  H10S 4488   2.097   1.347   9.794  0.1854  0.8991  0.6230
   59SAPC  C211 4489   1.880   1.352   9.777  0.2494 -0.3016  0.0593
   59SAPC  H11R 4490   1.793   1.349   9.844  0.2030  0.2152  0.0223
   59SAPC  C212 4491   1.874   1.358   9.642  0.2606  0.9525 -0.0291
   59SAPC  H12R 4492   1.773   1.354   9.598 -0.2838 -0.9017  1.2879
   59SAPC  C213 4493   1.981   1.345   9.534  0.6110 -0.0618 -0.5200
   59SAPC  H13R 4494   2.076   1.309   9.579  0.9124  3.8638  2.5371
   59SAPC  H13S 4495   2.011   1.445   9.495  1.2360  0.5718  1.4449
   59SAPC  C214 4496   1.932   1.266   9.419 -0.4433 -0.0510 -0.1594
   59SAPC  H14R 4497   1.859   1.185   9.431 -0.3101 -0.2915 -0.9156
   59SAPC  C215 4498   1.967   1.287   9.291 -0.4368  0.1871  0.0783
   59SAPC  H15R 4499   1.934   1.222   9.208  0.3399  0.4550 -0.4579
   59SAPC  C216 4500   2.055   1.402   9.244  0.3724  0.0120  0.6944
   59SAPC  H16R 4501   2.149   1.393   9.302 -0.4977 -1.6560  1.9295
   59SAPC  H16S 4502   2.001   1.498   9.260  2.1999  1.2280  0.0138
   59SAPC  C217 4503   2.073   1.414   9.092  0.1972  0.0942 -0.7410
   59SAPC  H17R 4504   2.131   1.506   9.070  1.0146 -0.2392 -0.0316
   59SAPC  H17S 4505   1.973   1.427   9.044  0.2180 -0.5650 -0.9687
   59SAPC  C218 4506   2.147   1.298   9.030  0.1471 -0.1144 -0.0111
   59SAPC  H18R 4507   2.087   1.205   9.040 -0.0682 -0.0091 -0.3117
   59SAPC  H18S 4508   2.236   1.283   9.094 -1.8920  0.6011  3.2393
   59SAPC  C219 4509   2.165   1.321   8.876 -0.1720  0.1655 -0.1798
   59SAPC  H19R 4510   2.264   1.275   8.854 -0.4301  0.2945 -1.7868
   59SAPC  H19S 4511   2.167   1.430   8.856 -0.8651 -0.2085 -2.7430
   59SAPC  C220 4512   2.052   1.256   8.790  0.4383  0.8058 -0.4721
   59SAPC  H20R 4513   2.032   1.156   8.834  4.2104 -0.1440 -0.5789
   59SAPC  H20S 4514   2.088   1.234   8.687  0.0755 -0.2411 -0.3851
   59SAPC  H20T 4515   1.961   1.320   8.790  0.6422  1.0968 -0.4174
   59SAPC   C33 4516   2.338   0.746  10.393  0.1533  0.0089 -0.2092
   59SAPC   H3X 4517   2.284   0.838  10.423  1.4424  0.3014  1.3711
   59SAPC   H3Y 4518   2.270   0.661  10.375  1.8651 -1.6033  0.5148
   59SAPC   C34 4519   2.408   0.777  10.262 -0.2252  0.4899 -0.8667
   59SAPC   H4X 4520   2.453   0.685  10.219 -0.3378 -0.0042  0.0355
   59SAPC   H4Y 4521   2.480   0.861  10.275 -0.3218  0.3444  0.8429
   59SAPC   C35 4522   2.305   0.804  10.157 -0.1838 -0.4436 -0.6691
   59SAPC   H5X 4523   2.260   0.901  10.190 -1.9041 -1.0412 -1.1628
   59SAPC   H5Y 4524   2.234   0.719  10.157 -0.7142 -0.0198  0.1665
   59SAPC   C36 4525   2.367   0.834  10.023  0.2355  0.2868  0.2956
   59SAPC   H6X 4526   2.418   0.737  10.003 -0.2983 -0.0277  0.4130
   59SAPC   H6Y 4527   2.435   0.921  10.031 -0.2581  0.7028  0.0083
   59SAPC   C37 4528   2.253   0.852   9.923  0.3370  0.1914  0.1608
   59SAPC   H7X 4529   2.182   0.937   9.938  0.9449  1.2651 -2.4587
   59SAPC   H7Y 4530   2.185   0.765   9.925  1.9706 -1.2166 -1.6389
   59SAPC   C38 4531   2.300   0.874   9.780 -0.4345 -1.1425  0.0104
   59SAPC   H8X 4532   2.343   0.776   9.750  0.7062 -0.2358 -1.4530
   59SAPC   H8Y 4533   2.379   0.950   9.762 -0.6967 -1.4195 -2.7980
   59SAPC   C39 4534   2.187   0.913   9.681  0.0255 -0.0623  0.5828
   59SAPC   H9X 4535   2.149   1.012   9.716  0.7321 -0.2387  1.9141
   59SAPC   H9Y 4536   2.106   0.837   9.676 -1.2337  1.3160 -2.6116
   59SAPC  C310 4537   2.218   0.919   9.532  0.0699 -0.0488 -0.4107
   59SAPC  H10X 4538   2.223   0.814   9.496 -1.9744 -0.4629  0.3791
   59SAPC  H10Y 4539   2.311   0.979   9.516 -0.0267 -0.1363 -1.4075
   59SAPC  C311 4540   2.107   0.980   9.444  0.1067  0.5146 -0.3260
   59SAPC  H11X 4541   2.142   1.085   9.440  0.2005  0.4936 -0.0314
   59SAPC  H11Y 4542   1.999   0.971   9.469  0.1767  1.0429  0.1659
   59SAPC  C312 4543   2.108   0.923   9.301  0.8010 -0.1242  0.7535
   59SAPC  H12X 4544   2.034   0.986   9.247  0.6766  0.2944  1.4078
   59SAPC  H12Y 4545   2.074   0.818   9.316 -0.7296  0.0494 -1.0673
   59SAPC  C313 4546   2.240   0.938   9.235 -0.0019 -0.2059 -0.9793
   59SAPC  H13X 4547   2.315   0.875   9.287 -2.0693 -0.6828  1.6065
   59SAPC  H13Y 4548   2.268   1.045   9.243 -1.0677 -0.0289  1.1066
   59SAPC  C314 4549   2.237   0.901   9.087 -0.5019 -0.7752  0.1462
   59SAPC  H14X 4550   2.133   0.905   9.047 -1.2916 -1.0136  2.0427
   59SAPC  H14Y 4551   2.266   0.799   9.056 -0.8509 -0.7643 -0.2236
   59SAPC  C315 4552   2.333   0.989   9.004  0.5341  0.6389 -0.0797
   59SAPC  H15X 4553   2.437   0.960   9.031 -0.1940 -2.1031  0.0792
   59SAPC  H15Y 4554   2.317   1.098   9.020  1.3210  0.9745 -1.3577
   59SAPC  C316 4555   2.310   0.979   8.854  0.1025 -0.0261 -0.3896
   59SAPC  H16X 4556   2.357   1.060   8.794  0.3773 -0.0138 -0.1607
   59SAPC  H16Y 4557   2.203   1.001   8.834  0.0587 -0.1320 -0.2737
   59SAPC  C317 4558   2.356   0.840   8.803  0.3656 -0.9801 -0.0810
   59SAPC  H17X 4559   2.306   0.758   8.859  5.1249 -3.0951  1.6511
   59SAPC  H17Y 4560   2.462   0.828   8.833  0.0605 -0.4377  1.2939
   59SAPC  C318 4561   2.331   0.818   8.657  0.7267 -0.5368  0.4081
   59SAPC  H18X 4562   2.228   0.852   8.635  1.0193  0.7657  0.9518
   59SAPC  H18Y 4563   2.358   0.719   8.614 -0.1677  0.7306 -3.5689
   59SAPC  H18Z 4564   2.394   0.889   8.598 -0.4264  1.6853  1.7189
   60SAPC     N 4565   4.724   6.195  10.920  0.0698 -0.6955 -0.7554
   60SAPC   C12 4566   4.804   6.300  10.841 -0.6715  0.2121  0.4229
   60SAPC  H12A 4567   4.884   6.250  10.789 -0.6811 -0.4336  1.0058
   60SAPC  H12B 4568   4.844   6.381  10.900  0.5947 -0.0612 -0.0366
   60SAPC   C13 4569   4.802   6.120  11.024 -0.5798  0.3928 -0.9326
   60SAPC  H13A 4570   4.753   6.036  11.071  1.6840 -0.1486  0.6077
   60SAPC  H13B 4571   4.898   6.092  10.982 -0.2167 -0.8737  0.6546
   60SAPC  H13C 4572   4.833   6.183  11.106 -0.7526 -0.4418 -0.2187
   60SAPC   C14 4573   4.606   6.246  11.000 -0.3349  0.3890 -0.2578
   60SAPC  H14A 4574   4.657   6.301  11.078  0.7535 -2.2382  1.0170
   60SAPC  H14B 4575   4.556   6.309  10.928 -2.8845  0.5128  1.5236
   60SAPC  H14C 4576   4.546   6.164  11.037  0.0953  0.7693  1.3526
   60SAPC   C15 4577   4.670   6.103  10.815  0.2304  0.2789  0.3276
   60SAPC  H15A 4578   4.615   6.017  10.851 -0.9716  0.1178 -1.7075
   60SAPC  H15B 4579   4.599   6.153  10.751  2.7128  0.4692 -2.5143
   60SAPC  H15C 4580   4.752   6.061  10.758  0.3279 -1.2723  1.5384
   60SAPC   C11 4581   4.720   6.369  10.732 -0.2563  0.5553 -0.0259
   60SAPC  H11A 4582   4.706   6.315  10.636 -0.8462  0.6427  0.0124
   60SAPC  H11B 4583   4.790   6.452  10.705  1.3897 -0.0110  2.1858
   60SAPC     P 4584   4.474   6.414  10.675  0.0615 -0.2439  0.3567
   60SAPC   O13 4585   4.416   6.280  10.677 -0.2625  0.0115  0.6576
   60SAPC   O14 4586   4.387   6.526  10.707 -0.1761 -0.1461  0.6340
   60SAPC   O12 4587   4.596   6.422  10.777  0.3283 -0.6742 -0.2732
   60SAPC   O11 4588   4.546   6.446  10.542 -0.4269  0.2075 -0.2118
   60SAPC    C1 4589   4.554   6.578  10.503  0.1379 -0.3164 -0.0459
   60SAPC    HA 4590   4.458   6.634  10.504  0.0710 -0.4331  0.6736
   60SAPC    HB 4591   4.612   6.641  10.574  0.3014 -0.0468 -0.4103
   60SAPC    C2 4592   4.619   6.595  10.364  0.3910 -0.4530  0.0022
   60SAPC    HS 4593   4.641   6.701  10.338 -0.4402 -0.4208 -0.5906
   60SAPC   O21 4594   4.537   6.533  10.264 -0.8748 -0.5561 -0.6176
   60SAPC   C21 4595   4.418   6.601  10.221  0.2215 -0.7335 -0.1557
   60SAPC   O22 4596   4.385   6.710  10.267  0.5220  0.4587 -0.4585
   60SAPC   C22 4597   4.335   6.499  10.139  0.4160  0.5712  0.8783
   60SAPC   H2R 4598   4.407   6.444  10.074 -2.0419 -1.5013 -0.2980
   60SAPC   H2S 4599   4.296   6.430  10.218  0.5812  0.5318  0.9254
   60SAPC    C3 4600   4.754   6.515  10.367 -0.8061  0.4948 -0.4594
   60SAPC    HX 4601   4.743   6.408  10.396 -0.8220  0.4215 -0.7300
   60SAPC    HY 4602   4.815   6.557  10.450  3.1815 -2.8458 -1.3530
   60SAPC   O31 4603   4.824   6.525  10.240 -0.3839  0.3124 -0.3535
   60SAPC   C31 4604   4.956   6.516  10.239  0.2997 -0.4891  0.6266
   60SAPC   O32 4605   5.033   6.506  10.331  0.2979 -0.1446  0.3807
   60SAPC   C32 4606   4.999   6.514  10.095 -0.1821  0.4524  0.6408
   60SAPC   H2X 4607   5.016   6.622  10.073 -2.7765  0.6482 -0.8302
   60SAPC   H2Y 4608   4.917   6.484  10.026  0.3474  2.0654 -0.7736
   60SAPC   C23 4609   4.209   6.556  10.080 -0.5778 -0.0816  0.4361
   60SAPC   H3R 4610   4.154   6.613  10.158 -0.1531 -0.7775  1.2652
   60SAPC   H3S 4611   4.143   6.468  10.062 -0.3830 -0.0242 -0.5962
   60SAPC   C24 4612   4.221   6.623   9.943 -0.7711 -0.1268  0.1952
   60SAPC   H4R 4613   4.274   6.720   9.940 -0.8831  0.0896  2.7850
   60SAPC   H4S 4614   4.115   6.647   9.922 -1.5174 -2.3434  1.0965
   60SAPC   C25 4615   4.276   6.524   9.836  0.4121  0.5111 -0.2618
   60SAPC   H5R 4616   4.217   6.432   9.826  0.2041  0.7913 -1.8813
   60SAPC   C26 4617   4.390   6.518   9.771  0.3995 -0.1290 -0.2063
   60SAPC   H6R 4618   4.417   6.432   9.708 -0.5542 -0.4864 -0.1382
   60SAPC   C27 4619   4.501   6.621   9.770  0.0051  0.0475  0.0149
   60SAPC   H7R 4620   4.438   6.713   9.768 -0.9081 -0.3020  4.1811
   60SAPC   H7S 4621   4.567   6.615   9.681  0.3713 -2.2401  0.3880
   60SAPC   C28 4622   4.593   6.630   9.885 -0.1757 -0.2051 -0.4102
   60SAPC   H8R 4623   4.545   6.619   9.982 -0.7233  0.7232 -0.5644
   60SAPC   C29 4624   4.723   6.663   9.881 -0.0406  0.3639 -0.8253
   60SAPC   H9R 4625   4.780   6.671   9.974 -1.8401  0.8339  0.2998
   60SAPC  C210 4626   4.814   6.682   9.759  0.0336  0.5372  0.2056
   60SAPC  H10R 4627   4.912   6.723   9.791  1.0113 -1.3385 -0.2976
   60SAPC  H10S 4628   4.763   6.764   9.704 -0.8039  1.1733  1.8630
   60SAPC  C211 4629   4.839   6.563   9.670  0.3411  0.8739 -0.9747
   60SAPC  H11R 4630   4.831   6.467   9.723  0.0223  0.0520 -2.4432
   60SAPC  C212 4631   4.845   6.559   9.533 -0.1915  0.0186 -0.1668
   60SAPC  H12R 4632   4.848   6.458   9.490 -1.6674 -1.2008  2.3884
   60SAPC  C213 4633   4.843   6.685   9.442  0.3665  0.8881 -0.1256
   60SAPC  H13R 4634   4.884   6.659   9.342  0.0686  1.7389 -0.4791
   60SAPC  H13S 4635   4.907   6.762   9.489 -0.1445  0.2765  1.6292
   60SAPC  C214 4636   4.707   6.744   9.431  0.5107  0.5557 -0.0864
   60SAPC  H14R 4637   4.648   6.741   9.524  2.0637 -1.5021  0.9232
   60SAPC  C215 4638   4.661   6.827   9.341  0.2689  0.0163 -0.5055
   60SAPC  H15R 4639   4.560   6.872   9.348  0.1340 -0.0995 -1.4762
   60SAPC  C216 4640   4.731   6.862   9.216 -0.3450  0.4844  0.2986
   60SAPC  H16R 4641   4.770   6.772   9.165 -2.8417 -1.0414  0.9302
   60SAPC  H16S 4642   4.825   6.908   9.254 -0.3178  0.9339 -0.2892
   60SAPC  C217 4643   4.670   6.961   9.125  0.4929  0.4442  0.4193
   60SAPC  H17R 4644   4.663   7.057   9.179  0.0695  0.6727 -0.0352
   60SAPC  H17S 4645   4.564   6.939   9.104  0.6123 -0.1044  0.3828
   60SAPC  C218 4646   4.733   6.977   8.981 -0.0002  0.2649  0.2612
   60SAPC  H18R 4647   4.746   6.874   8.941 -2.0807 -0.8429  2.2003
   60SAPC  H18S 4648   4.834   7.022   8.991 -1.2917  3.0486  1.9342
   60SAPC  C219 4649   4.660   7.072   8.892  0.1536 -0.3388  0.2387
   60SAPC  H19R 4650   4.550   7.054   8.898 -0.1211  1.4505  1.2466
   60SAPC  H19S 4651   4.696   7.068   8.787  1.7600 -2.6377  0.8147
   60SAPC  C220 4652   4.678   7.217   8.930 -0.2694  0.1883 -0.2020
   60SAPC  H20R 4653   4.776   7.232   8.981  0.3676 -2.8916 -0.3136
   60SAPC  H20S 4654   4.599   7.253   8.999 -0.8457 -1.6159  0.1320
   60SAPC  H20T 4655   4.682   7.283   8.841  0.7099 -0.5264 -0.7096
   60SAPC   C33 4656   5.117   6.427  10.064 -0.4852 -0.2175  0.1004
   60SAPC   H3X 4657   5.115   6.347  10.141  1.0339  0.6031  1.0382
   60SAPC   H3Y 4658   5.204   6.489  10.095  0.7895 -0.5701 -2.5036
   60SAPC   C34 4659   5.136   6.371   9.924  0.4928  0.0639 -0.6527
   60SAPC   H4X 4660   5.235   6.322   9.916  0.0443 -1.2032  0.9134
   60SAPC   H4Y 4661   5.127   6.448   9.845  0.9057  1.2667  0.4242
   60SAPC   C35 4662   5.035   6.261   9.897 -0.3583  0.6163 -0.8384
   60SAPC   H5X 4663   4.939   6.314   9.880 -0.4921  0.9190  0.7105
   60SAPC   H5Y 4664   5.028   6.195   9.986  1.6358  0.8378 -0.4584
   60SAPC   C36 4665   5.075   6.187   9.765  0.6409  0.4491  0.6120
   60SAPC   H6X 4666   4.994   6.112   9.750  0.3699  0.2495  2.6560
   60SAPC   H6Y 4667   5.168   6.128   9.779 -0.4201 -1.6151 -0.5448
   60SAPC   C37 4668   5.100   6.265   9.637  0.1411  0.6539  0.2508
   60SAPC   H7X 4669   5.210   6.275   9.637  0.4657 -2.0634 -0.9199
   60SAPC   H7Y 4670   5.045   6.362   9.641 -0.3589  0.4096 -0.5752
   60SAPC   C38 4671   5.059   6.187   9.512 -0.3053  0.2800  0.0777
   60SAPC   H8X 4672   4.960   6.138   9.517 -0.2849  0.2714  0.4092
   60SAPC   H8Y 4673   5.129   6.100   9.508 -1.3597 -0.5492 -0.6587
   60SAPC   C39 4674   5.067   6.271   9.387 -0.5616 -0.2684 -0.2342
   60SAPC   H9X 4675   5.134   6.359   9.390 -0.7993 -0.1152  1.1986
   60SAPC   H9Y 4676   4.965   6.314   9.374 -1.2571 -1.3265  1.3628
   60SAPC  C310 4677   5.102   6.193   9.255  0.6764 -0.2983  0.3477
   60SAPC  H10X 4678   5.201   6.143   9.257  1.1155  0.5427  0.2519
   60SAPC  H10Y 4679   5.115   6.265   9.172  3.2824 -0.4187  0.5811
   60SAPC  C311 4680   4.993   6.089   9.220  0.4928 -0.4631 -0.2442
   60SAPC  H11X 4681   4.893   6.128   9.247  0.4498  0.6545 -1.8208
   60SAPC  H11Y 4682   5.020   6.008   9.290 -0.2163  1.8783  2.9479
   60SAPC  C312 4683   4.981   6.058   9.073  0.1468 -0.6228 -0.2545
   60SAPC  H12X 4684   5.068   6.001   9.034 -1.1557 -2.5346 -0.5113
   60SAPC  H12Y 4685   4.965   6.153   9.017 -0.6258  0.9807  2.5043
   60SAPC  C313 4686   4.861   5.967   9.044 -0.2167  0.4450  0.0659
   60SAPC  H13X 4687   4.781   5.993   9.117 -0.2959  2.9991 -0.8123
   60SAPC  H13Y 4688   4.885   5.867   9.084 -3.1625 -1.1264 -1.7036
   60SAPC  C314 4689   4.806   5.964   8.906 -0.2251  0.2859  0.4276
   60SAPC  H14X 4690   4.886   5.938   8.834 -0.6697  0.2331 -0.0576
   60SAPC  H14Y 4691   4.761   6.061   8.874 -2.2152 -1.1812 -1.5877
   60SAPC  C315 4692   4.685   5.868   8.908  0.1790  0.1797 -0.4142
   60SAPC  H15X 4693   4.600   5.901   8.971  2.0037  0.4612  2.0284
   60SAPC  H15Y 4694   4.719   5.767   8.937 -1.3319  0.1431  1.3936
   60SAPC  C316 4695   4.624   5.848   8.760  0.1136 -0.0288  0.5736
   60SAPC  H16X 4696   4.523   5.807   8.780  0.8061 -1.0724  2.1955
   60SAPC  H16Y 4697   4.686   5.782   8.697 -0.9633 -0.3282 -0.1946
   60SAPC  C317 4698   4.624   5.974   8.672 -0.1246  0.1138 -0.2710
   60SAPC  H17X 4699   4.723   6.020   8.651 -1.0491  1.0806 -2.9061
   60SAPC  H17Y 4700   4.574   6.057   8.725  0.6607  1.3582 -1.4094
   60SAPC  C318 4701   4.538   5.953   8.546  0.0795  0.6481 -0.3248
   60SAPC  H18X 4702   4.563   6.026   8.466  1.0470 -0.5488 -1.1479
   60SAPC  H18Y 4703   4.428   5.961   8.562  0.0913 -0.0162  0.1192
   60SAPC  H18Z 4704   4.556   5.856   8.496  0.9435 -0.7379  2.4606
   61SAPC     N 4705   5.114   5.828  10.842  0.8318 -0.1760 -0.8552
   61SAPC   C12 4706   5.081   5.681  10.826  0.6202 -0.1692 -0.6265
   61SAPC  H12A 4707   5.125   5.647  10.733 -1.1392 -1.2591 -1.1098
   61SAPC  H12B 4708   4.974   5.668  10.813  0.6563 -1.1746 -0.0484
   61SAPC   C13 4709   5.068   5.881  10.973 -0.3233 -0.2275  0.4082
   61SAPC  H13A 4710   4.971   5.839  10.996 -0.4914 -1.1890 -1.8128
   61SAPC  H13B 4711   5.132   5.837  11.048  0.7466 -0.9033 -0.8591
   61SAPC  H13C 4712   5.071   5.989  10.978  0.0648  0.0378 -2.9817
   61SAPC   C14 4713   5.264   5.857  10.829 -0.7863 -0.7658  0.1502
   61SAPC  H14A 4714   5.286   5.956  10.866  0.3060 -0.8167 -0.3106
   61SAPC  H14B 4715   5.325   5.797  10.895  3.1167  0.9020 -1.6000
   61SAPC  H14C 4716   5.301   5.844  10.729  2.2777  0.8571  0.9449
   61SAPC   C15 4717   5.051   5.914  10.739  0.7420  0.0910  0.3495
   61SAPC  H15A 4718   5.082   5.889  10.638  1.9616  0.9299  0.4954
   61SAPC  H15B 4719   4.944   5.902  10.736  0.9689 -2.2686 -0.2604
   61SAPC  H15C 4720   5.070   6.020  10.753  1.5818 -0.0343  0.1885
   61SAPC   C11 4721   5.120   5.585  10.943 -0.2347  0.6702 -0.5299
   61SAPC  H11A 4722   5.220   5.620  10.977  0.5526 -1.0247 -1.0033
   61SAPC  H11B 4723   5.141   5.481  10.911  1.3027  0.3373  1.3670
   61SAPC     P 4724   4.879   5.528  11.030 -0.1278 -0.1308 -0.6171
   61SAPC   O13 4725   4.816   5.508  11.165  0.4517  0.8651  0.8804
   61SAPC   O14 4726   4.798   5.610  10.938 -0.7099 -0.0403 -0.0474
   61SAPC   O12 4727   5.022   5.591  11.059  0.0818  0.8261  0.2841
   61SAPC   O11 4728   4.910   5.393  10.968 -0.7027 -0.4928 -0.4541
   61SAPC    C1 4729   4.945   5.276  11.040  0.2775 -0.0845 -0.0102
   61SAPC    HA 4730   5.035   5.291  11.103 -1.3490  0.9839  2.2023
   61SAPC    HB 4731   4.860   5.248  11.106 -0.2943  1.2541 -0.1426
   61SAPC    C2 4732   4.963   5.163  10.938  0.2949  0.3731  0.0025
   61SAPC    HS 4733   4.993   5.068  10.988  1.2480  0.2336 -0.8019
   61SAPC   O21 4734   5.064   5.200  10.840 -0.1031  0.0069 -0.0386
   61SAPC   C21 4735   5.197   5.201  10.883  0.4718 -0.3686  0.2791
   61SAPC   O22 4736   5.232   5.161  10.989 -0.1953 -0.5419 -0.2273
   61SAPC   C22 4737   5.287   5.263  10.778  0.3276  0.2957 -0.2537
   61SAPC   H2R 4738   5.225   5.284  10.688  2.1473 -0.6036 -1.7957
   61SAPC   H2S 4739   5.320   5.356  10.828  1.2230  0.4793 -1.1618
   61SAPC    C3 4740   4.833   5.131  10.857  0.4371 -0.0216 -0.1372
   61SAPC    HX 4741   4.793   5.214  10.794 -0.3766 -0.6932 -0.5351
   61SAPC    HY 4742   4.774   5.108  10.948 -0.1100  0.4468 -0.3639
   61SAPC   O31 4743   4.846   5.009  10.791 -0.8893 -0.1006  0.2584
   61SAPC   C31 4744   4.800   4.998  10.661 -0.1083  0.3415 -0.8435
   61SAPC   O32 4745   4.746   5.087  10.598  0.0786  0.4067  0.3412
   61SAPC   C32 4746   4.829   4.861  10.614  0.0346  0.0020 -0.3324
   61SAPC   H2X 4747   4.780   4.778  10.669 -0.7469  0.7239  0.0892
   61SAPC   H2Y 4748   4.937   4.837  10.603  0.1698  0.8900 -1.1327
   61SAPC   C23 4749   5.411   5.181  10.742 -0.0365  0.3955  0.0575
   61SAPC   H3R 4750   5.453   5.149  10.839  3.4859  1.8247 -0.8371
   61SAPC   H3S 4751   5.488   5.247  10.697  2.0434 -1.7586  0.2512
   61SAPC   C24 4752   5.388   5.062  10.639 -0.0265 -0.5449  0.0347
   61SAPC   H4R 4753   5.295   5.002  10.657  0.1888 -0.8337  0.1937
   61SAPC   H4S 4754   5.470   4.987  10.646 -0.5907 -1.2256 -0.4060
   61SAPC   C25 4755   5.396   5.097  10.492 -0.1915 -0.0031  0.6748
   61SAPC   H5R 4756   5.498   5.118  10.455 -0.6064 -0.7440 -0.9846
   61SAPC   C26 4757   5.294   5.115  10.405  0.0898  0.8005  0.0154
   61SAPC   H6R 4758   5.306   5.136  10.298 -2.1887  1.6904 -0.1179
   61SAPC   C27 4759   5.148   5.087  10.431  0.0335 -0.2462  0.6919
   61SAPC   H7R 4760   5.131   5.079  10.541 -0.1883 -3.7324  0.5111
   61SAPC   H7S 4761   5.121   4.982  10.405  0.5180 -0.0298 -0.7736
   61SAPC   C28 4762   5.033   5.185  10.393  0.0069  0.0701  0.1489
   61SAPC   H8R 4763   5.004   5.239  10.484  0.3074 -0.7536  0.7438
   61SAPC   C29 4764   4.976   5.198  10.270 -0.2565  0.1899  0.4021
   61SAPC   H9R 4765   4.880   5.251  10.273 -2.3277 -3.2237  3.0820
   61SAPC  C210 4766   5.021   5.130  10.147  0.4089  0.7507 -0.0536
   61SAPC  H10R 4767   5.125   5.094  10.162  0.6453  0.5293 -1.9555
   61SAPC  H10S 4768   5.041   5.203  10.065 -0.9692  1.8730  0.5567
   61SAPC  C211 4769   4.945   5.010  10.109 -0.0742 -0.9980 -0.4010
   61SAPC  H11R 4770   4.933   4.934  10.189 -0.1764 -0.4358  0.1240
   61SAPC  C212 4771   4.884   4.996   9.991  0.1789 -0.1951  0.5931
   61SAPC  H12R 4772   4.818   4.909   9.977 -0.0022 -0.5438  3.1343
   61SAPC  C213 4773   4.875   5.101   9.875  0.2954 -0.1794  0.1481
   61SAPC  H13R 4774   4.974   5.095   9.826  0.3177  2.7420 -0.3444
   61SAPC  H13S 4775   4.859   5.197   9.928 -1.0623 -1.1172  1.5512
   61SAPC  C214 4776   4.752   5.079   9.783 -0.4270 -0.1189  0.2997
   61SAPC  H14R 4777   4.659   5.126   9.821 -0.0247 -0.3986  1.7007
   61SAPC  C215 4778   4.749   5.012   9.665  0.5797 -0.5958 -0.1368
   61SAPC  H15R 4779   4.655   4.997   9.609  1.4757 -0.7074 -1.6610
   61SAPC  C216 4780   4.875   4.939   9.614  0.1629 -0.4203 -0.4324
   61SAPC  H16R 4781   4.847   4.836   9.582  0.6485 -0.5965 -0.3108
   61SAPC  H16S 4782   4.950   4.925   9.695 -2.7465  3.2278  3.3046
   61SAPC  C217 4783   4.962   5.005   9.507 -0.5649 -0.6216  0.0802
   61SAPC  H17R 4784   4.997   5.103   9.548 -1.2829  0.9725 -2.8577
   61SAPC  H17S 4785   4.890   5.035   9.428  0.1367 -1.0505 -0.7262
   61SAPC  C218 4786   5.066   4.910   9.458  0.0774 -0.0870 -0.6230
   61SAPC  H18R 4787   5.024   4.807   9.459 -0.1505 -0.0751 -3.0451
   61SAPC  H18S 4788   5.146   4.900   9.535 -1.6785 -1.6675  1.1011
   61SAPC  C219 4789   5.126   4.923   9.312 -0.3471  0.0656  0.4983
   61SAPC  H19R 4790   5.208   4.849   9.304 -2.1163 -1.7894 -1.8990
   61SAPC  H19S 4791   5.166   5.026   9.295 -0.1247 -0.1379 -0.2347
   61SAPC  C220 4792   5.007   4.889   9.214 -0.6663  0.0328  0.4167
   61SAPC  H20R 4793   4.951   4.800   9.250 -0.3912 -0.0337  0.6868
   61SAPC  H20S 4794   5.037   4.876   9.108 -1.5104 -2.8287  0.4562
   61SAPC  H20T 4795   4.935   4.974   9.213 -1.1952 -0.4023  0.7979
   61SAPC   C33 4796   4.795   4.841  10.465 -0.2718 -0.4152 -0.3350
   61SAPC   H3X 4797   4.840   4.922  10.403 -2.2131 -0.4660 -1.9327
   61SAPC   H3Y 4798   4.686   4.852  10.446 -0.3532  0.4743  0.5726
   61SAPC   C34 4799   4.833   4.700  10.415 -0.4380  0.3927 -0.2516
   61SAPC   H4X 4800   4.796   4.623  10.486 -2.5763  1.8413  0.3353
   61SAPC   H4Y 4801   4.944   4.705  10.415 -0.4793  2.4019  0.2968
   61SAPC   C35 4802   4.776   4.662  10.279 -0.1482  0.4298  0.2496
   61SAPC   H5X 4803   4.787   4.734  10.194  0.6595  0.8175  0.6760
   61SAPC   H5Y 4804   4.669   4.651  10.305  0.1146 -2.9824  0.3356
   61SAPC   C36 4805   4.860   4.539  10.238  0.3486 -0.2263 -0.3209
   61SAPC   H6X 4806   4.851   4.462  10.317  3.5889 -0.5419 -0.1482
   61SAPC   H6Y 4807   4.966   4.565  10.256  0.1771  0.8148 -0.6979
   61SAPC   C37 4808   4.817   4.495  10.097  0.2460  0.4196 -1.0681
   61SAPC   H7X 4809   4.708   4.475  10.102 -0.0905  2.2381 -0.7851
   61SAPC   H7Y 4810   4.860   4.393  10.082 -1.6402 -0.2691 -2.0763
   61SAPC   C38 4811   4.861   4.588   9.981 -0.3122  0.8194  0.1651
   61SAPC   H8X 4812   4.970   4.607   9.988 -0.4238  1.3638  0.5152
   61SAPC   H8Y 4813   4.795   4.678   9.972  0.1779  1.0455 -1.4316
   61SAPC   C39 4814   4.848   4.511   9.851  0.3357 -0.3172  0.3739
   61SAPC   H9X 4815   4.746   4.471   9.831  0.4526  0.1704 -1.4287
   61SAPC   H9Y 4816   4.912   4.421   9.864  0.0660 -0.6683 -0.6008
   61SAPC  C310 4817   4.902   4.581   9.720  0.3391 -0.5870 -0.2946
   61SAPC  H10X 4818   5.003   4.623   9.739  0.5082 -2.0153  2.4884
   61SAPC  H10Y 4819   4.829   4.659   9.691 -0.0757 -1.8728 -3.0160
   61SAPC  C311 4820   4.900   4.475   9.613  0.8574 -0.4646 -0.3866
   61SAPC  H11X 4821   4.800   4.430   9.597  0.5923  0.0456 -0.2154
   61SAPC  H11Y 4822   4.973   4.396   9.640  1.0822 -0.0956  0.1169
   61SAPC  C312 4823   4.951   4.540   9.479  1.1795  0.5089  0.2318
   61SAPC  H12X 4824   5.050   4.585   9.501  0.5892  1.4638  1.0740
   61SAPC  H12Y 4825   4.883   4.622   9.447  1.1099 -0.8030 -3.5603
   61SAPC  C313 4826   4.962   4.441   9.361  0.6243 -0.2396 -0.0086
   61SAPC  H13X 4827   4.861   4.398   9.342  0.8838 -0.6286 -0.5094
   61SAPC  H13Y 4828   5.021   4.352   9.393  0.5553  0.4092  2.0848
   61SAPC  C314 4829   5.016   4.511   9.235  0.2006  0.2025  0.0474
   61SAPC  H14X 4830   5.114   4.556   9.260  0.0440  0.9669 -0.6990
   61SAPC  H14Y 4831   4.932   4.571   9.195  0.7328 -1.5972 -4.3361
   61SAPC  C315 4832   5.037   4.404   9.119 -0.0460 -0.0559  0.3653
   61SAPC  H15X 4833   4.954   4.332   9.103 -0.1410  0.1735 -0.2195
   61SAPC  H15Y 4834   5.132   4.351   9.138 -0.2291 -1.4659 -2.1666
   61SAPC  C316 4835   5.056   4.479   8.986 -0.1540  0.2769 -0.5570
   61SAPC  H16X 4836   5.116   4.418   8.915 -0.6214  1.4091 -1.9807
   61SAPC  H16Y 4837   5.111   4.573   9.009 -1.0314  0.9597 -1.1336
   61SAPC  C317 4838   4.925   4.517   8.925 -0.5359  0.4974  0.5029
   61SAPC  H17X 4839   4.871   4.588   8.992 -1.0391  0.2662  0.3505
   61SAPC  H17Y 4840   4.855   4.432   8.910 -1.5071  1.1384  1.2583
   61SAPC  C318 4841   4.943   4.579   8.791 -0.2260  0.0517  0.0318
   61SAPC  H18X 4842   5.007   4.512   8.730 -0.6111 -2.5338  2.2597
   61SAPC  H18Y 4843   5.001   4.671   8.809  0.1827 -0.0896 -0.5410
   61SAPC  H18Z 4844   4.851   4.609   8.736 -0.5280  0.2009  0.6059
   62SAPC     N 4845   4.097   5.718  11.061  0.4829  0.0508  0.1645
   62SAPC   C12 4846   4.067   5.585  10.983  0.2769  0.1171  0.7391
   62SAPC  H12A 4847   3.979   5.540  11.026  0.6498  0.5831  2.0557
   62SAPC  H12B 4848   4.147   5.517  11.009 -0.7917 -0.8288  1.6699
   62SAPC   C13 4849   4.118   5.695  11.204 -0.1133 -1.2717 -0.4470
   62SAPC  H13A 4850   4.138   5.780  11.268  0.4839 -0.5137 -1.6066
   62SAPC  H13B 4851   4.036   5.634  11.238 -1.5012  0.6779 -0.1527
   62SAPC  H13C 4852   4.214   5.647  11.214  0.2790 -0.4721 -0.2431
   62SAPC   C14 4853   4.212   5.796  11.004 -0.1106 -0.2085 -0.1747
   62SAPC  H14A 4854   4.308   5.746  11.012  0.5789  0.8993 -1.1358
   62SAPC  H14B 4855   4.188   5.814  10.900  0.7680  2.2232 -0.0225
   62SAPC  H14C 4856   4.208   5.891  11.056 -1.9707 -0.8202  0.8807
   62SAPC   C15 4857   3.975   5.805  11.050 -0.4591 -0.0565 -0.0643
   62SAPC  H15A 4858   3.949   5.836  10.950 -2.4894  0.4997  0.6039
   62SAPC  H15B 4859   3.892   5.743  11.078 -0.1125 -0.9612 -0.9605
   62SAPC  H15C 4860   3.981   5.894  11.109 -0.2115 -0.5070  0.6008
   62SAPC   C11 4861   4.060   5.595  10.828 -0.6522  0.1785 -0.7070
   62SAPC  H11A 4862   4.002   5.682  10.790 -2.9098 -0.0721  1.8704
   62SAPC  H11B 4863   4.008   5.501  10.799 -0.5050 -1.7957  4.3886
   62SAPC     P 4864   4.257   5.460  10.732 -0.2734 -0.0316 -0.1542
   62SAPC   O13 4865   4.392   5.479  10.687  0.3959 -0.5169 -0.7470
   62SAPC   O14 4866   4.233   5.357  10.836  0.7941 -0.8128  0.4158
   62SAPC   O12 4867   4.196   5.597  10.785  0.0956  0.1222  0.1040
   62SAPC   O11 4868   4.162   5.433  10.604  0.1893 -0.5171 -0.0219
   62SAPC    C1 4869   4.112   5.303  10.579 -0.2290  0.1474  0.1108
   62SAPC    HA 4870   4.118   5.237  10.668  1.9973 -1.2591 -0.9886
   62SAPC    HB 4871   4.011   5.303  10.533  1.2341 -1.1124 -3.4303
   62SAPC    C2 4872   4.190   5.224  10.460  0.1564 -0.1006 -1.0081
   62SAPC    HS 4873   4.280   5.178  10.506 -0.8814 -1.0733  0.1147
   62SAPC   O21 4874   4.216   5.316  10.356 -0.4920 -0.1219 -0.3893
   62SAPC   C21 4875   4.335   5.377  10.363 -0.3319 -0.0247  0.7592
   62SAPC   O22 4876   4.430   5.344  10.437  0.0850  0.3544 -0.0012
   62SAPC   C22 4877   4.330   5.495  10.267 -0.2781 -0.4687 -0.2222
   62SAPC   H2R 4878   4.315   5.468  10.160  1.2909  0.1657 -0.6228
   62SAPC   H2S 4879   4.249   5.561  10.305  1.0608  0.4103  1.2328
   62SAPC    C3 4880   4.108   5.103  10.410  0.1404 -0.1854 -0.1776
   62SAPC    HX 4881   4.010   5.143  10.378 -0.3818 -1.0556  0.2836
   62SAPC    HY 4882   4.084   5.023  10.484 -0.5746  0.9458  0.8392
   62SAPC   O31 4883   4.175   5.039  10.300  0.4697 -0.4070 -0.1255
   62SAPC   C31 4884   4.284   4.965  10.327  0.2022 -0.4135 -0.2427
   62SAPC   O32 4885   4.328   4.937  10.437  0.1002  0.0627  0.0585
   62SAPC   C32 4886   4.339   4.911  10.192  0.6918  0.0134 -0.6768
   62SAPC   H2X 4887   4.285   4.959  10.108  1.2217  0.1952 -0.9166
   62SAPC   H2Y 4888   4.323   4.801  10.192  0.9643 -0.0469  0.5654
   62SAPC   C23 4889   4.455   5.586  10.274  0.1877  0.7836  0.5995
   62SAPC   H3R 4890   4.542   5.535  10.227 -0.4474  0.2487 -0.0322
   62SAPC   H3S 4891   4.484   5.590  10.381 -0.2709  0.1445  0.7574
   62SAPC   C24 4892   4.437   5.733  10.211 -0.0393 -0.6117 -0.2530
   62SAPC   H4R 4893   4.430   5.731  10.100 -0.5111  1.8999 -0.3171
   62SAPC   H4S 4894   4.529   5.788  10.240 -1.4175  1.1773  0.8693
   62SAPC   C25 4895   4.319   5.805  10.261  0.7044 -0.2704  0.1564
   62SAPC   H5R 4896   4.330   5.834  10.367  2.7798  1.4073 -0.4516
   62SAPC   C26 4897   4.205   5.829  10.195  0.1333 -0.2019  0.0586
   62SAPC   H6R 4898   4.127   5.889  10.245  2.1355  3.1033 -0.4816
   62SAPC   C27 4899   4.161   5.791  10.055 -1.1915  0.5155 -0.2156
   62SAPC   H7R 4900   4.173   5.682  10.039  0.1348  0.5473  0.4395
   62SAPC   H7S 4901   4.227   5.849   9.987  0.1548 -1.7033 -0.9166
   62SAPC   C28 4902   4.019   5.828  10.015 -0.3575 -0.1485 -0.0821
   62SAPC   H8R 4903   3.957   5.873  10.094  0.6856  1.7538 -0.2863
   62SAPC   C29 4904   3.970   5.821   9.888 -0.3836  0.4948  0.2450
   62SAPC   H9R 4905   3.873   5.869   9.871 -0.5700  0.2182  0.5177
   62SAPC  C210 4906   4.048   5.777   9.761 -0.0161 -0.4530  0.6308
   62SAPC  H10R 4907   4.157   5.791   9.777 -0.3856  1.2998  1.7629
   62SAPC  H10S 4908   4.008   5.840   9.678 -0.8457 -0.1698  1.2299
   62SAPC  C211 4909   4.030   5.627   9.711  0.9661  0.0537 -0.3786
   62SAPC  H11R 4910   4.078   5.549   9.772 -0.2487  1.5068  2.6442
   62SAPC  C212 4911   3.972   5.590   9.595 -0.6866  0.6322  0.5047
   62SAPC  H12R 4912   3.959   5.483   9.576 -1.7904  0.9507 -0.6806
   62SAPC  C213 4913   3.907   5.688   9.496 -0.2387  0.1018  0.0105
   62SAPC  H13R 4914   3.854   5.766   9.556  0.1871 -0.2282  0.8375
   62SAPC  H13S 4915   3.819   5.647   9.442 -0.2492  2.0018 -1.5518
   62SAPC  C214 4916   3.991   5.755   9.388 -0.0162  0.5032 -0.3733
   62SAPC  H14R 4917   4.085   5.705   9.361 -0.6432 -1.1150  0.2988
   62SAPC  C215 4918   3.955   5.855   9.314  0.1579  0.3220 -0.2222
   62SAPC  H15R 4919   4.022   5.893   9.235  0.0631  3.3116  0.9828
   62SAPC  C216 4920   3.833   5.936   9.327  0.4208  0.1564 -0.0301
   62SAPC  H16R 4921   3.767   5.901   9.409 -0.3552 -0.4287 -0.8810
   62SAPC  H16S 4922   3.767   5.928   9.238 -0.0766 -1.1382  0.4490
   62SAPC  C217 4923   3.868   6.083   9.353  0.3552 -0.1235  0.7255
   62SAPC  H17R 4924   3.967   6.102   9.400  2.4220 -0.1445 -3.1425
   62SAPC  H17S 4925   3.779   6.131   9.399 -0.4785  0.5354 -1.4585
   62SAPC  C218 4926   3.890   6.157   9.221 -0.3166 -0.0993  1.0583
   62SAPC  H18R 4927   3.807   6.136   9.150  0.7482 -1.4103  0.1345
   62SAPC  H18S 4928   3.986   6.130   9.171 -0.2425  1.5921  0.2146
   62SAPC  C219 4929   3.900   6.306   9.246  0.8083 -0.9318  0.2169
   62SAPC  H19R 4930   3.994   6.332   9.299  0.3481  2.3613 -0.3879
   62SAPC  H19S 4931   3.822   6.347   9.312 -1.1032 -0.9158 -1.9259
   62SAPC  C220 4932   3.887   6.388   9.107 -0.0243  0.2249  0.2068
   62SAPC  H20R 4933   3.970   6.353   9.042  0.4660  1.4221  0.1736
   62SAPC  H20S 4934   3.900   6.496   9.127  1.2586  0.3444 -1.1009
   62SAPC  H20T 4935   3.787   6.372   9.062  0.2888 -2.6122  0.3540
   62SAPC   C33 4936   4.488   4.947  10.180 -0.1122 -0.5320 -0.0527
   62SAPC   H3X 4937   4.522   4.893  10.089 -0.9591 -1.1886  0.0076
   62SAPC   H3Y 4938   4.557   4.906  10.257  0.4231 -1.7804 -1.1520
   62SAPC   C34 4939   4.523   5.095  10.156  0.3286  0.3690 -0.2136
   62SAPC   H4X 4940   4.634   5.096  10.154  0.3336  0.7506  0.1369
   62SAPC   H4Y 4941   4.494   5.151  10.248  1.1548  0.5511 -0.0580
   62SAPC   C35 4942   4.457   5.161  10.033 -1.3509  0.1317 -0.1955
   62SAPC   H5X 4943   4.350   5.171  10.060 -0.6497 -0.0263  3.0939
   62SAPC   H5Y 4944   4.466   5.109   9.935  0.0023 -1.7070  0.8297
   62SAPC   C36 4945   4.505   5.305   9.996 -0.2197 -0.2534 -0.7705
   62SAPC   H6X 4946   4.611   5.302   9.961  0.5439  3.2765  0.8342
   62SAPC   H6Y 4947   4.495   5.365  10.088 -2.2948 -0.6159 -0.7104
   62SAPC   C37 4948   4.421   5.367   9.886 -0.0869  0.5595 -0.4418
   62SAPC   H7X 4949   4.316   5.387   9.917  0.3088  2.1915 -0.0990
   62SAPC   H7Y 4950   4.429   5.296   9.800 -1.5590 -0.2061  0.0163
   62SAPC   C38 4951   4.477   5.503   9.848 -0.2713 -1.0161 -0.5132
   62SAPC   H8X 4952   4.583   5.486   9.820  0.5417  1.6486  0.6617
   62SAPC   H8Y 4953   4.475   5.565   9.940 -2.2153 -0.9551 -0.5574
   62SAPC   C39 4954   4.410   5.585   9.732 -0.4310  0.0168 -0.0650
   62SAPC   H9X 4955   4.307   5.611   9.763  0.1238  2.9450 -0.3831
   62SAPC   H9Y 4956   4.402   5.513   9.648 -0.0504 -0.4703  0.3073
   62SAPC  C310 4957   4.481   5.715   9.714  0.2402 -0.6205  0.4153
   62SAPC  H10X 4958   4.591   5.706   9.710  0.5374  1.3190  2.3712
   62SAPC  H10Y 4959   4.467   5.784   9.800  1.4456 -1.0780  0.9930
   62SAPC  C311 4960   4.441   5.797   9.595  0.4316  0.4716 -1.2743
   62SAPC  H11X 4961   4.505   5.888   9.595 -1.1999  1.6944 -0.2953
   62SAPC  H11Y 4962   4.339   5.842   9.599 -0.0466 -0.6594  0.9764
   62SAPC  C312 4963   4.453   5.735   9.457  0.5442  0.4232  0.6218
   62SAPC  H12X 4964   4.402   5.636   9.462 -0.1090  0.7253  0.1221
   62SAPC  H12Y 4965   4.557   5.722   9.419 -0.3778  0.5960 -2.2178
   62SAPC  C313 4966   4.392   5.827   9.348 -0.1074  0.1116  0.3415
   62SAPC  H13X 4967   4.437   5.927   9.367  0.4973 -0.3649  1.5243
   62SAPC  H13Y 4968   4.283   5.838   9.370  0.5123  3.4685  2.3933
   62SAPC  C314 4969   4.412   5.767   9.209  0.4996 -0.3223 -0.3932
   62SAPC  H14X 4970   4.395   5.659   9.226  1.4560 -0.0577  3.0527
   62SAPC  H14Y 4971   4.517   5.783   9.177  0.4878 -0.8353 -0.7007
   62SAPC  C315 4972   4.304   5.828   9.108 -0.3871 -0.4261  0.0415
   62SAPC  H15X 4973   4.201   5.832   9.149  0.3837  1.8396  1.9524
   62SAPC  H15Y 4974   4.307   5.763   9.018  0.8802  0.5308 -0.6390
   62SAPC  C316 4975   4.327   5.969   9.060 -0.1983 -0.0961 -0.4365
   62SAPC  H16X 4976   4.421   5.975   9.000  0.7631 -0.1001  1.0345
   62SAPC  H16Y 4977   4.342   6.028   9.153 -1.3968 -0.0990 -0.2237
   62SAPC  C317 4978   4.202   6.016   8.982  0.0756  0.7531  0.4862
   62SAPC  H17X 4979   4.112   5.963   9.018 -0.7848 -0.3472 -2.9849
   62SAPC  H17Y 4980   4.188   5.965   8.884  1.5381 -1.7383  1.4746
   62SAPC  C318 4981   4.172   6.169   8.965  0.0841 -0.0894 -0.5704
   62SAPC  H18X 4982   4.242   6.215   8.892 -0.8414 -0.9413 -2.0373
   62SAPC  H18Y 4983   4.174   6.221   9.063  1.0003  0.2552 -0.7631
   62SAPC  H18Z 4984   4.071   6.169   8.919  0.2913  0.3381 -1.0375
   63SAPC     N 4985   0.711   3.646   6.335 -0.0190  0.8993  0.5413
   63SAPC   C12 4986   0.686   3.504   6.392  0.5727  0.4241  0.2713
   63SAPC  H12A 4987   0.706   3.423   6.323 -1.1525 -0.6271  0.9216
   63SAPC  H12B 4988   0.580   3.501   6.414  0.9822  1.0203  2.5752
   63SAPC   C13 4989   0.654   3.743   6.422  0.7493  0.2991 -0.7484
   63SAPC  H13A 4990   0.686   3.727   6.524  0.4966  2.0072 -0.3794
   63SAPC  H13B 4991   0.692   3.840   6.396 -0.2428  0.9755  0.2791
   63SAPC  H13C 4992   0.546   3.740   6.429  0.4322  2.7866 -3.2290
   63SAPC   C14 4993   0.855   3.670   6.307 -0.8690 -0.6723  0.6054
   63SAPC  H14A 4994   0.887   3.769   6.279  1.2491 -1.7373 -1.0442
   63SAPC  H14B 4995   0.925   3.632   6.380  0.2866  0.5564  0.1698
   63SAPC  H14C 4996   0.889   3.608   6.225 -1.3818 -0.3340  0.1327
   63SAPC   C15 4997   0.632   3.646   6.206  0.2146  0.3190  0.0335
   63SAPC  H15A 4998   0.651   3.563   6.139 -0.5593  1.5318 -1.7866
   63SAPC  H15B 4999   0.530   3.647   6.241  1.2466 -2.0333  3.6007
   63SAPC  H15C 5000   0.656   3.737   6.153 -0.1863  0.3149 -0.1601
   63SAPC   C11 5001   0.766   3.476   6.520  0.0188 -0.2654  0.4553
   63SAPC  H11A 5002   0.721   3.540   6.599 -1.1886 -0.2627 -0.2049
   63SAPC  H11B 5003   0.875   3.498   6.520 -0.0181 -0.0341 -0.6111
   63SAPC     P 5004   0.596   3.280   6.571 -0.3532  0.5908 -0.1948
   63SAPC   O13 5005   0.482   3.360   6.527  0.0374  0.1446 -0.5855
   63SAPC   O14 5006   0.588   3.133   6.532 -0.0065 -0.5653 -0.3689
   63SAPC   O12 5007   0.740   3.336   6.536  1.0558  0.1238 -0.0650
   63SAPC   O11 5008   0.603   3.283   6.728  0.3144  0.0520 -0.3593
   63SAPC    C1 5009   0.513   3.367   6.792 -0.6214 -0.5589 -0.7103
   63SAPC    HA 5010   0.495   3.467   6.746  0.8754  1.1930  2.1814
   63SAPC    HB 5011   0.413   3.321   6.781 -0.8510  0.2600 -2.3572
   63SAPC    C2 5012   0.542   3.397   6.947 -0.0810  0.1664 -0.4512
   63SAPC    HS 5013   0.466   3.471   6.978  1.5513  1.3426  0.9021
   63SAPC   O21 5014   0.674   3.448   6.953 -0.1814  0.1962  0.0302
   63SAPC   C21 5015   0.695   3.570   6.904  0.0044  0.4426  0.0337
   63SAPC   O22 5016   0.606   3.646   6.874  0.1937 -0.1877  0.3015
   63SAPC   C22 5017   0.843   3.612   6.922 -0.2193  0.4706  0.2929
   63SAPC   H2R 5018   0.912   3.567   6.848 -0.5272 -0.7304  0.7140
   63SAPC   H2S 5019   0.831   3.720   6.898 -1.4227  0.0645 -1.0054
   63SAPC    C3 5020   0.525   3.274   7.038  0.4227  0.5492  0.2732
   63SAPC    HX 5021   0.601   3.196   7.017 -0.6338 -0.0318 -1.6392
   63SAPC    HY 5022   0.428   3.228   7.008 -0.2507  1.4372  0.9966
   63SAPC   O31 5023   0.517   3.316   7.180 -0.5394  0.2184  0.3365
   63SAPC   C31 5024   0.636   3.325   7.227  0.1088 -0.5070  0.2971
   63SAPC   O32 5025   0.735   3.272   7.184  0.4972  0.0652 -0.4997
   63SAPC   C32 5026   0.639   3.411   7.363 -0.9463  0.5785 -0.5543
   63SAPC   H2X 5027   0.551   3.369   7.416 -1.3099 -0.7900 -2.1454
   63SAPC   H2Y 5028   0.633   3.522   7.352  1.4832  1.1292  2.4394
   63SAPC   C23 5029   0.903   3.594   7.060  0.3221  0.0496 -0.3346
   63SAPC   H3R 5030   1.008   3.632   7.060 -0.5877  2.9780  1.8638
   63SAPC   H3S 5031   0.903   3.490   7.099  0.7211 -0.2424 -1.1076
   63SAPC   C24 5032   0.825   3.672   7.169  0.0102 -0.0229  0.4044
   63SAPC   H4R 5033   0.853   3.626   7.266  2.0778  2.8608  1.3111
   63SAPC   H4S 5034   0.716   3.672   7.148  0.3423  3.1399 -2.1381
   63SAPC   C25 5035   0.871   3.817   7.175  0.4355 -0.2800 -0.7009
   63SAPC   H5R 5036   0.831   3.886   7.099  0.8331 -0.1783 -0.8185
   63SAPC   C26 5037   0.962   3.860   7.268 -0.2747  0.0856 -0.4954
   63SAPC   H6R 5038   0.996   3.962   7.244  1.0438 -0.3056 -0.3199
   63SAPC   C27 5039   1.022   3.792   7.388 -0.2701  0.4130 -0.4291
   63SAPC   H7R 5040   0.989   3.687   7.402  0.4956  0.3845  1.3582
   63SAPC   H7S 5041   0.982   3.855   7.470  1.8076  1.3290 -0.0494
   63SAPC   C28 5042   1.175   3.798   7.391  0.3566  0.4151  0.4323
   63SAPC   H8R 5043   1.226   3.763   7.300  0.6732  0.2114  0.6842
   63SAPC   C29 5044   1.249   3.837   7.498 -0.1278  0.6289 -0.4963
   63SAPC   H9R 5045   1.358   3.829   7.492 -0.1964 -1.3833  0.1357
   63SAPC  C210 5046   1.198   3.882   7.630 -0.0274  0.2861  0.4077
   63SAPC  H10R 5047   1.087   3.891   7.636 -0.3776 -0.8130 -2.7158
   63SAPC  H10S 5048   1.236   3.986   7.633  2.8691 -0.5993 -1.4995
   63SAPC  C211 5049   1.241   3.800   7.750  0.7682 -0.0662  0.2520
   63SAPC  H11R 5050   1.197   3.699   7.748  1.5657 -0.4681  1.8025
   63SAPC  C212 5051   1.334   3.830   7.844  0.7065  0.0841 -0.2217
   63SAPC  H12R 5052   1.368   3.752   7.913  1.1101 -2.0445 -2.6893
   63SAPC  C213 5053   1.410   3.957   7.840 -0.8861 -0.8249  0.0444
   63SAPC  H13R 5054   1.415   3.990   7.733  1.0434  0.0558  0.3639
   63SAPC  H13S 5055   1.516   3.935   7.864 -0.4420  0.8080 -0.3111
   63SAPC  C214 5056   1.369   4.085   7.907 -0.2796 -0.0903 -0.1193
   63SAPC  H14R 5057   1.276   4.136   7.880  0.8231  2.7262  1.0654
   63SAPC  C215 5058   1.444   4.157   7.993 -0.1688 -0.2513  0.7468
   63SAPC  H15R 5059   1.390   4.251   8.014 -0.8659 -0.5891  0.5158
   63SAPC  C216 5060   1.580   4.136   8.042 -0.2892  0.4594 -0.4580
   63SAPC  H16R 5061   1.647   4.216   8.004 -2.0076  1.3143 -1.8754
   63SAPC  H16S 5062   1.628   4.039   8.017 -0.7986 -0.5688  2.2150
   63SAPC  C217 5063   1.576   4.149   8.198 -0.4313 -0.0821  0.0891
   63SAPC  H17R 5064   1.669   4.108   8.243 -0.1743  0.8528  0.4278
   63SAPC  H17S 5065   1.493   4.081   8.229  1.6045 -3.2167 -0.8816
   63SAPC  C218 5066   1.559   4.290   8.251 -0.3736 -0.0559 -0.0268
   63SAPC  H18R 5067   1.487   4.341   8.184  2.5632 -0.0980 -3.4589
   63SAPC  H18S 5068   1.650   4.353   8.243  0.7659 -1.6389  0.1140
   63SAPC  C219 5069   1.503   4.297   8.384 -0.1975  0.3696 -1.2584
   63SAPC  H19R 5070   1.518   4.400   8.424 -1.1199 -0.4411  1.3719
   63SAPC  H19S 5071   1.566   4.234   8.450  0.1890  0.1919 -1.7909
   63SAPC  C220 5072   1.360   4.263   8.403  0.0335 -0.0684 -0.5686
   63SAPC  H20R 5073   1.325   4.168   8.358 -0.9489 -0.0745  0.1744
   63SAPC  H20S 5074   1.284   4.339   8.377 -1.4201 -2.1846 -2.9888
   63SAPC  H20T 5075   1.343   4.235   8.509 -0.9031 -1.1179 -0.9717
   63SAPC   C33 5076   0.770   3.379   7.451 -0.1871 -0.2001 -0.3014
   63SAPC   H3X 5077   0.849   3.437   7.399  0.8417 -0.8003  0.5532
   63SAPC   H3Y 5078   0.791   3.272   7.431 -1.9522 -0.7127  0.4725
   63SAPC   C34 5079   0.760   3.406   7.600  0.0664  0.1928 -0.1892
   63SAPC   H4X 5080   0.827   3.337   7.656  2.5390  0.8933 -2.1044
   63SAPC   H4Y 5081   0.657   3.374   7.627 -0.9252  0.8411 -2.8815
   63SAPC   C35 5082   0.786   3.551   7.642 -0.2983  0.1246 -0.0576
   63SAPC   H5X 5083   0.704   3.615   7.604 -1.0720 -1.4150 -1.0828
   63SAPC   H5Y 5084   0.875   3.583   7.584 -1.1203 -0.4286 -1.6887
   63SAPC   C36 5085   0.815   3.560   7.795 -0.7625  0.1905 -0.2179
   63SAPC   H6X 5086   0.911   3.507   7.817  0.4356  1.6718 -1.6003
   63SAPC   H6Y 5087   0.728   3.535   7.858  0.0140 -0.2131  0.7179
   63SAPC   C37 5088   0.846   3.705   7.838  0.0588 -0.9583 -0.4832
   63SAPC   H7X 5089   0.752   3.760   7.820  0.6542 -0.0611 -0.9173
   63SAPC   H7Y 5090   0.916   3.769   7.781 -0.4252  1.9130  1.9306
   63SAPC   C38 5091   0.890   3.716   7.986 -0.0121  0.1664 -0.1579
   63SAPC   H8X 5092   0.967   3.642   8.015 -0.5431  0.1049  1.1508
   63SAPC   H8Y 5093   0.798   3.693   8.045  0.8946  0.3874  1.3822
   63SAPC   C39 5094   0.933   3.851   8.033 -0.2848  0.5777  0.6673
   63SAPC   H9X 5095   0.853   3.923   8.008  0.6038  1.6114  0.7324
   63SAPC   H9Y 5096   1.015   3.886   7.967 -0.3994 -0.1259  0.1395
   63SAPC  C310 5097   0.966   3.870   8.179 -0.2036  0.3206  0.0389
   63SAPC  H10X 5098   0.887   3.834   8.248 -1.9904  5.0565  0.7995
   63SAPC  H10Y 5099   0.965   3.979   8.200  1.7656 -0.2059  3.5317
   63SAPC  C311 5100   1.112   3.827   8.211  0.2889  0.1033 -0.4182
   63SAPC  H11X 5101   1.178   3.859   8.127 -2.9781  0.8999 -2.8892
   63SAPC  H11Y 5102   1.128   3.717   8.220  0.3434  0.2265  1.1795
   63SAPC  C312 5103   1.154   3.879   8.344 -0.1991 -0.3311 -0.6010
   63SAPC  H12X 5104   1.139   3.988   8.360 -0.0576 -0.0165 -2.4352
   63SAPC  H12Y 5105   1.264   3.869   8.355  0.2351  2.2068 -2.0125
   63SAPC  C313 5106   1.086   3.801   8.458 -0.3074 -0.7073 -1.1688
   63SAPC  H13X 5107   1.100   3.691   8.447 -2.5457 -0.9115 -2.5541
   63SAPC  H13Y 5108   0.977   3.819   8.467 -0.3379 -1.5611  0.7728
   63SAPC  C314 5109   1.148   3.831   8.596  1.0753 -0.1112 -0.7364
   63SAPC  H14X 5110   1.172   3.939   8.594  0.9151 -0.0714 -0.5509
   63SAPC  H14Y 5111   1.245   3.778   8.608  1.8819  1.3934 -0.3928
   63SAPC  C315 5112   1.045   3.804   8.709 -0.0108  0.6639 -0.8030
   63SAPC  H15X 5113   0.985   3.712   8.692 -0.6524  1.0832 -0.8346
   63SAPC  H15Y 5114   0.968   3.884   8.705 -1.4820 -0.4554  2.0690
   63SAPC  C316 5115   1.116   3.808   8.851  0.7245  0.3337 -0.7837
   63SAPC  H16X 5116   1.149   3.912   8.870 -1.3310  1.1886 -1.6127
   63SAPC  H16Y 5117   1.204   3.742   8.863 -0.6007 -1.8074 -2.1178
   63SAPC  C317 5118   1.002   3.767   8.952  1.1340  0.0229 -0.1430
   63SAPC  H17X 5119   0.900   3.806   8.932  1.5366  0.4669 -1.4460
   63SAPC  H17Y 5120   1.021   3.812   9.052 -1.7403  2.3036 -0.4535
   63SAPC  C318 5121   0.989   3.613   8.974  0.2888 -0.4854  0.3648
   63SAPC  H18X 5122   0.946   3.559   8.888  0.7553  0.4988 -0.5048
   63SAPC  H18Y 5123   0.936   3.600   9.071  0.1995 -2.4729  0.0757
   63SAPC  H18Z 5124   1.089   3.571   9.001  0.5650  1.6336  3.1794
   64SAPC     N 5125   2.434   4.075   6.188 -0.2651 -0.0511 -0.1642
   64SAPC   C12 5126   2.355   4.183   6.259  0.1468  0.2400  0.0080
   64SAPC  H12A 5127   2.321   4.143   6.353 -0.3467 -2.5425 -1.2409
   64SAPC  H12B 5128   2.268   4.211   6.201  0.4042  1.3125  0.1175
   64SAPC   C13 5129   2.556   4.034   6.264  0.3051 -0.0072 -0.4620
   64SAPC  H13A 5130   2.610   4.124   6.290 -1.5669  1.1829 -0.4557
   64SAPC  H13B 5131   2.520   3.993   6.358 -3.0090  3.2779 -0.0391
   64SAPC  H13C 5132   2.618   3.968   6.206 -0.1477 -0.2744 -0.6403
   64SAPC   C14 5133   2.356   3.943   6.174  0.2791 -0.6747  0.3271
   64SAPC  H14A 5134   2.343   3.896   6.271 -1.5465 -1.9757 -0.4920
   64SAPC  H14B 5135   2.258   3.962   6.132  0.5271 -0.6628 -0.2563
   64SAPC  H14C 5136   2.401   3.869   6.110 -2.7235 -0.7321 -1.9330
   64SAPC   C15 5137   2.478   4.135   6.054  0.2329  0.5748  0.2344
   64SAPC  H15A 5138   2.557   4.207   6.071  1.1993 -0.4870  0.3844
   64SAPC  H15B 5139   2.503   4.055   5.986 -2.2237  0.1318 -0.2320
   64SAPC  H15C 5140   2.396   4.192   6.015 -1.1833 -1.0250  0.7512
   64SAPC   C11 5141   2.421   4.317   6.286 -0.3643  0.7036  0.1706
   64SAPC  H11A 5142   2.523   4.287   6.318 -0.6410  0.6343  0.9973
   64SAPC  H11B 5143   2.363   4.371   6.365  1.8541  1.4445  1.3707
   64SAPC     P 5144   2.293   4.468   6.120  0.2011 -0.3818  0.0226
   64SAPC   O13 5145   2.334   4.553   6.011 -0.0394  0.2855 -0.3436
   64SAPC   O14 5146   2.178   4.374   6.095 -0.3806  0.3540 -0.0063
   64SAPC   O12 5147   2.427   4.394   6.174 -0.5752 -0.1711  0.0375
   64SAPC   O11 5148   2.261   4.564   6.249  0.4483 -0.2627 -0.3901
   64SAPC    C1 5149   2.346   4.674   6.259 -0.9075  0.0684  0.2549
   64SAPC    HA 5150   2.451   4.642   6.250 -0.4544  0.2201  3.4930
   64SAPC    HB 5151   2.330   4.754   6.184  0.5791 -1.0958 -1.3678
   64SAPC    C2 5152   2.337   4.745   6.400 -0.3366 -0.0514 -0.1711
   64SAPC    HS 5153   2.417   4.822   6.405  0.3006 -0.4883 -2.4331
   64SAPC   O21 5154   2.348   4.656   6.513  0.4033 -0.3963 -0.4186
   64SAPC   C21 5155   2.466   4.603   6.521 -0.2791  0.5583 -0.3489
   64SAPC   O22 5156   2.568   4.646   6.467 -0.2136  0.3453 -0.4828
   64SAPC   C22 5157   2.461   4.478   6.609 -0.2371 -0.2299  0.3942
   64SAPC   H2R 5158   2.359   4.436   6.597 -0.3572  0.1000  0.2580
   64SAPC   H2S 5159   2.538   4.405   6.575 -1.5924 -1.8696  0.7382
   64SAPC    C3 5160   2.203   4.829   6.405  0.2122  0.2180 -0.2517
   64SAPC    HX 5161   2.126   4.749   6.420  1.2975 -0.5333  1.7026
   64SAPC    HY 5162   2.167   4.882   6.314 -1.7720 -0.9416 -0.2195
   64SAPC   O31 5163   2.210   4.927   6.507  0.2755 -0.3989 -0.3413
   64SAPC   C31 5164   2.149   4.905   6.618 -0.2310 -0.7676  0.1466
   64SAPC   O32 5165   2.074   4.818   6.653  0.0480 -0.3486 -0.1030
   64SAPC   C32 5166   2.190   5.022   6.708  0.6471  0.4983  0.1479
   64SAPC   H2X 5167   2.151   5.119   6.672  0.2114 -0.4910 -2.2007
   64SAPC   H2Y 5168   2.300   5.026   6.695  0.7168 -0.4464  0.3354
   64SAPC   C23 5169   2.480   4.523   6.757 -0.8444 -0.6317  0.3671
   64SAPC   H3R 5170   2.455   4.430   6.811 -1.6817 -0.9335 -0.4997
   64SAPC   H3S 5171   2.413   4.606   6.790 -0.6793 -0.1996 -0.3560
   64SAPC   C24 5172   2.619   4.572   6.795  0.3458 -0.7300  0.1069
   64SAPC   H4R 5173   2.607   4.634   6.886  0.0347  1.1856 -1.1868
   64SAPC   H4S 5174   2.651   4.648   6.721 -0.3294 -1.2732 -0.7639
   64SAPC   C25 5175   2.718   4.458   6.804 -0.2561  0.1183  0.1521
   64SAPC   H5R 5176   2.729   4.391   6.718  2.0748  0.7989 -0.1529
   64SAPC   C26 5177   2.779   4.429   6.916 -0.8913 -0.2845  0.6272
   64SAPC   H6R 5178   2.856   4.350   6.909 -3.2711 -2.7135 -0.1749
   64SAPC   C27 5179   2.771   4.493   7.056  0.2230  0.0677  0.6772
   64SAPC   H7R 5180   2.663   4.515   7.068 -0.5713 -1.9946 -1.7657
   64SAPC   H7S 5181   2.833   4.584   7.071  0.1403  0.2920 -0.2837
   64SAPC   C28 5182   2.813   4.400   7.164 -0.3663  0.3712  0.0181
   64SAPC   H8R 5183   2.870   4.314   7.124 -0.9274 -0.2016  0.4182
   64SAPC   C29 5184   2.790   4.412   7.296 -0.5060  0.2025  0.7423
   64SAPC   H9R 5185   2.822   4.336   7.369 -3.0597  0.3771  2.1825
   64SAPC  C210 5186   2.714   4.532   7.357  0.5782 -0.2454 -1.1841
   64SAPC  H10R 5187   2.637   4.496   7.428  0.7109 -0.4853 -1.1634
   64SAPC  H10S 5188   2.660   4.595   7.282 -0.5994  1.0780  0.6866
   64SAPC  C211 5189   2.820   4.629   7.424 -0.3467  0.3342 -0.1015
   64SAPC  H11R 5190   2.900   4.664   7.357  1.1142  0.4444  1.6027
   64SAPC  C212 5191   2.841   4.654   7.559  0.6261 -0.0923  0.4254
   64SAPC  H12R 5192   2.922   4.717   7.597 -0.4303  0.2217  2.2521
   64SAPC  C213 5193   2.756   4.591   7.667 -0.3058  0.0244 -0.5674
   64SAPC  H13R 5194   2.652   4.592   7.626 -0.6259 -1.9561  0.0994
   64SAPC  H13S 5195   2.754   4.662   7.753 -0.8615  2.8566 -2.7326
   64SAPC  C214 5196   2.795   4.452   7.698  0.1759  0.0567 -0.9455
   64SAPC  H14R 5197   2.757   4.373   7.631 -1.5312 -1.1524  1.2954
   64SAPC  C215 5198   2.867   4.403   7.803 -0.2821  0.2753  1.0361
   64SAPC  H15R 5199   2.880   4.296   7.823  3.4530  0.6782  1.3480
   64SAPC  C216 5200   2.929   4.475   7.918 -0.1552 -0.5191 -0.0947
   64SAPC  H16R 5201   2.912   4.584   7.912 -0.1956 -0.5296 -0.1686
   64SAPC  H16S 5202   3.037   4.449   7.922 -0.5321 -2.0516  2.2996
   64SAPC  C217 5203   2.873   4.430   8.052 -0.0442  0.1374  0.1458
   64SAPC  H17R 5204   2.889   4.320   8.050 -0.6693  0.0512 -0.4519
   64SAPC  H17S 5205   2.763   4.445   8.057  0.0683  1.3413 -0.6248
   64SAPC  C218 5206   2.957   4.483   8.166 -0.3041 -0.4183 -0.1811
   64SAPC  H18R 5207   3.062   4.455   8.147  0.1957  0.2827  1.4021
   64SAPC  H18S 5208   2.916   4.435   8.258 -1.1935 -1.9644 -1.3288
   64SAPC  C219 5209   2.944   4.632   8.202  0.0886 -0.5348 -0.7879
   64SAPC  H19R 5210   2.849   4.633   8.260  1.9073 -0.5250  2.3959
   64SAPC  H19S 5211   2.938   4.708   8.122  1.1006  0.9642  0.5138
   64SAPC  C220 5212   3.059   4.675   8.291  0.6347  0.0113 -0.3840
   64SAPC  H20R 5213   3.040   4.780   8.323 -1.8382 -0.2761 -0.6938
   64SAPC  H20S 5214   3.158   4.661   8.243  1.1009  2.8580 -0.4144
   64SAPC  H20T 5215   3.066   4.616   8.385 -3.1351 -2.8297 -1.6129
   64SAPC   C33 5216   2.139   5.005   6.852 -0.1728  0.0168  0.0149
   64SAPC   H3X 5217   2.150   4.900   6.884 -0.8686 -0.8838 -2.4777
   64SAPC   H3Y 5218   2.030   5.012   6.870 -0.0780 -1.6350  1.4929
   64SAPC   C34 5219   2.212   5.107   6.942 -0.1395 -0.0724  0.1935
   64SAPC   H4X 5220   2.195   5.209   6.902  2.0436  0.4318  0.3767
   64SAPC   H4Y 5221   2.320   5.097   6.917  0.0064  2.1759 -0.2493
   64SAPC   C35 5222   2.212   5.092   7.093 -0.3369 -0.6293  0.2421
   64SAPC   H5X 5223   2.288   5.160   7.137  0.9763 -0.9217 -1.4595
   64SAPC   H5Y 5224   2.245   4.987   7.110  0.8143 -0.2151  0.6201
   64SAPC   C36 5225   2.075   5.126   7.147  0.3550 -0.3319 -0.6277
   64SAPC   H6X 5226   1.993   5.066   7.102  0.5397  1.2199 -3.2372
   64SAPC   H6Y 5227   2.055   5.231   7.119  1.2355  0.4199  1.3508
   64SAPC   C37 5228   2.080   5.121   7.306 -1.0962 -0.8469 -0.4358
   64SAPC   H7X 5229   1.987   5.169   7.344 -1.5607 -0.2289 -2.2382
   64SAPC   H7Y 5230   2.163   5.183   7.347 -1.5073  0.0594 -0.9536
   64SAPC   C38 5231   2.092   4.982   7.354 -0.2036  0.4525 -0.4759
   64SAPC   H8X 5232   2.197   4.950   7.333  0.2858  1.4561  0.4190
   64SAPC   H8Y 5233   2.022   4.918   7.295  0.0357 -1.1364  0.8841
   64SAPC   C39 5234   2.067   4.975   7.506  0.0786  0.2671 -0.3500
   64SAPC   H9X 5235   1.970   5.016   7.540  0.7378 -0.3963  2.6142
   64SAPC   H9Y 5236   2.154   5.031   7.548  1.2408 -1.0293 -0.9520
   64SAPC  C310 5237   2.087   4.839   7.568 -0.6591  0.4489  0.0399
   64SAPC  H10X 5238   2.196   4.818   7.564 -0.3934  1.5139  1.1851
   64SAPC  H10Y 5239   2.023   4.772   7.507 -1.1704  0.5274  0.4855
   64SAPC  C311 5240   2.041   4.820   7.712 -0.6606 -0.3758 -0.6893
   64SAPC  H11X 5241   2.032   4.711   7.729 -0.5229  0.1570  4.0409
   64SAPC  H11Y 5242   1.940   4.863   7.728  0.1414  1.1950  0.5144
   64SAPC  C312 5243   2.145   4.862   7.821  0.0904  0.1749 -0.5958
   64SAPC  H12X 5244   2.160   4.972   7.819 -1.5174  0.4744  1.2361
   64SAPC  H12Y 5245   2.240   4.808   7.801 -0.3165 -0.3289 -1.2229
   64SAPC  C313 5246   2.080   4.838   7.962 -0.1297 -0.1438 -0.6317
   64SAPC  H13X 5247   2.032   4.738   7.966 -1.4467  0.5092  1.6067
   64SAPC  H13Y 5248   2.003   4.916   7.982  0.4647  0.4010 -0.4129
   64SAPC  C314 5249   2.183   4.859   8.073  0.3433 -0.5775 -0.5318
   64SAPC  H14X 5250   2.207   4.967   8.075  0.0674 -0.5179 -0.2951
   64SAPC  H14Y 5251   2.285   4.826   8.042  1.5684  0.9002  1.6374
   64SAPC  C315 5252   2.141   4.802   8.213  0.3964 -0.6270 -0.1604
   64SAPC  H15X 5253   2.042   4.849   8.230  0.1508 -1.5460  1.0563
   64SAPC  H15Y 5254   2.206   4.841   8.294 -0.5186 -0.4746  0.5150
   64SAPC  C316 5255   2.112   4.651   8.213 -0.0205  0.2369  0.2692
   64SAPC  H16X 5256   2.192   4.593   8.162  0.1096  1.9503 -1.6046
   64SAPC  H16Y 5257   2.022   4.634   8.150  0.7030  0.3475 -0.8162
   64SAPC  C317 5258   2.067   4.587   8.348  0.1309 -0.2140 -0.6890
   64SAPC  H17X 5259   1.979   4.645   8.383  1.0519  0.8553 -0.0878
   64SAPC  H17Y 5260   2.140   4.607   8.428 -2.1712 -2.4460  2.1813
   64SAPC  C318 5261   2.021   4.443   8.345  0.4416  0.3924  0.7314
   64SAPC  H18X 5262   2.100   4.366   8.342  0.2058  0.1065  1.5706
   64SAPC  H18Y 5263   1.967   4.431   8.249  0.5025 -0.4427  0.7918
   64SAPC  H18Z 5264   1.947   4.408   8.420 -1.4214  0.9874 -0.7667
   65SAPC     N 5265   0.119   0.269   5.997  0.4624 -0.2342  0.4916
   65SAPC   C12 5266   0.165   0.331   6.126  0.3311  0.0775 -0.0784
   65SAPC  H12A 5267   0.238   0.265   6.169 -1.3760 -1.6602  0.3374
   65SAPC  H12B 5268   0.082   0.324   6.195  0.1767  2.0080 -0.0342
   65SAPC   C13 5269   0.009   0.339   5.921 -0.2932  0.3178 -0.4661
   65SAPC  H13A 5270   0.049   0.410   5.850  0.2253  0.0407 -0.4574
   65SAPC  H13B 5271  -0.062   0.278   5.866 -0.0788  0.3328 -0.7626
   65SAPC  H13C 5272  -0.042   0.387   6.003  1.8736 -0.5654  1.5061
   65SAPC   C14 5273   0.232   0.260   5.905 -0.3156 -0.2132 -0.2511
   65SAPC  H14A 5274   0.294   0.178   5.939  0.2325  0.7325  1.1281
   65SAPC  H14B 5275   0.205   0.247   5.802 -0.0628 -1.9200 -0.1201
   65SAPC  H14C 5276   0.302   0.343   5.903  0.3845 -0.6690  1.8692
   65SAPC   C15 5277   0.063   0.130   6.023  0.4933  0.1738 -0.8537
   65SAPC  H15A 5278   0.135   0.069   6.075 -0.9217 -0.2347  0.7024
   65SAPC  H15B 5279  -0.024   0.135   6.087  2.4984 -0.1877  2.0860
   65SAPC  H15C 5280   0.019   0.078   5.939  0.9063 -0.5824 -0.6105
   65SAPC   C11 5281   0.215   0.475   6.119  0.3916  0.1672 -0.7383
   65SAPC  H11A 5282   0.237   0.511   6.221  0.3000 -2.3153  0.2322
   65SAPC  H11B 5283   0.135   0.541   6.081 -0.7947 -0.1303  1.1106
   65SAPC     P 5284   0.471   0.452   6.074  0.0314  0.0291 -0.3104
   65SAPC   O13 5285   0.517   0.347   5.979  0.1780 -0.3195  0.6326
   65SAPC   O14 5286   0.551   0.575   6.080 -0.2575  0.3059  0.0154
   65SAPC   O12 5287   0.329   0.491   6.038  0.1824 -0.5717  0.1867
   65SAPC   O11 5288   0.452   0.386   6.220 -0.6378 -0.5644 -0.8686
   65SAPC    C1 5289   0.565   0.312   6.277 -0.6110 -1.0356  0.3285
   65SAPC    HA 5290   0.597   0.229   6.209 -0.0208 -1.1245  0.7116
   65SAPC    HB 5291   0.645   0.385   6.301 -1.4595 -0.1323  0.4618
   65SAPC    C2 5292   0.540   0.243   6.410  0.1135  0.6711 -0.3724
   65SAPC    HS 5293   0.470   0.160   6.387  0.5522 -0.1594  1.1039
   65SAPC   O21 5294   0.476   0.333   6.507  0.3283 -0.1080 -0.3086
   65SAPC   C21 5295   0.346   0.326   6.512  0.0552 -0.1557  0.6637
   65SAPC   O22 5296   0.275   0.252   6.441 -0.1733  0.1659 -0.0878
   65SAPC   C22 5297   0.285   0.422   6.628 -0.1297 -0.0555 -0.0398
   65SAPC   H2R 5298   0.358   0.498   6.660  1.3123 -1.9689  1.4504
   65SAPC   H2S 5299   0.191   0.470   6.593 -1.5531 -2.0594  0.8108
   65SAPC    C3 5300   0.668   0.180   6.472 -0.3137 -0.2405 -0.7147
   65SAPC    HX 5301   0.746   0.258   6.486  1.4243 -1.9226 -0.4865
   65SAPC    HY 5302   0.709   0.108   6.398  1.1511 -0.3662  0.1582
   65SAPC   O31 5303   0.627   0.116   6.590 -0.4399  0.1008 -0.5197
   65SAPC   C31 5304   0.724   0.040   6.656  0.7039 -0.4973  0.3115
   65SAPC   O32 5305   0.833   0.029   6.616 -0.2423  0.4211  0.2521
   65SAPC   C32 5306   0.671  -0.016   6.790 -0.0872  0.3929 -0.4328
   65SAPC   H2X 5307   0.602  -0.101   6.772  1.6996 -1.0143 -0.9792
   65SAPC   H2Y 5308   0.620   0.062   6.850 -1.8089  1.1574 -2.7803
   65SAPC   C23 5309   0.250   0.337   6.750  0.3663  0.4630  0.5492
   65SAPC   H3R 5310   0.347   0.290   6.779 -0.2963 -1.3544 -0.0571
   65SAPC   H3S 5311   0.180   0.257   6.719 -1.6683  2.0020  0.9934
   65SAPC   C24 5312   0.213   0.434   6.868 -0.3093 -0.1580  0.4294
   65SAPC   H4R 5313   0.125   0.497   6.844  0.3811  0.2077 -1.2777
   65SAPC   H4S 5314   0.289   0.514   6.876  0.8725 -1.3357  1.5415
   65SAPC   C25 5315   0.194   0.364   6.997  0.5141 -0.3806 -0.2479
   65SAPC   H5R 5316   0.101   0.305   7.001 -0.8838  1.7356  0.0319
   65SAPC   C26 5317   0.260   0.378   7.111  0.0932  0.5728 -0.3251
   65SAPC   H6R 5318   0.238   0.323   7.203  2.0800  0.7994  0.3301
   65SAPC   C27 5319   0.374   0.465   7.133  0.0027 -0.0026 -0.9591
   65SAPC   H7R 5320   0.354   0.532   7.219  0.0418 -0.7059 -0.3989
   65SAPC   H7S 5321   0.403   0.528   7.046  1.6854 -1.0977 -1.2408
   65SAPC   C28 5322   0.491   0.376   7.170 -0.3723  0.0379  0.3570
   65SAPC   H8R 5323   0.551   0.342   7.085  0.2711 -1.1518  1.2542
   65SAPC   C29 5324   0.552   0.356   7.290  1.1245  0.9149 -0.4900
   65SAPC   H9R 5325   0.638   0.287   7.295  0.8960  0.7316  2.2517
   65SAPC  C210 5326   0.504   0.411   7.425  0.1244  0.6403 -0.1234
   65SAPC  H10R 5327   0.394   0.402   7.435  0.1884  0.4410  0.4400
   65SAPC  H10S 5328   0.521   0.521   7.428 -0.8008  0.7724  1.2562
   65SAPC  C211 5329   0.577   0.339   7.534 -0.0408 -0.9038  0.0843
   65SAPC  H11R 5330   0.625   0.243   7.510  1.7546  0.2286 -1.0389
   65SAPC  C212 5331   0.591   0.374   7.662  0.4946  0.2732 -1.1633
   65SAPC  H12R 5332   0.642   0.298   7.723 -2.4857 -1.7580 -1.0272
   65SAPC  C213 5333   0.521   0.491   7.735 -0.4960  0.5654 -0.1713
   65SAPC  H13R 5334   0.464   0.559   7.668 -2.2818 -0.5838  0.0859
   65SAPC  H13S 5335   0.586   0.561   7.791 -0.7232  0.3909  0.3211
   65SAPC  C214 5336   0.414   0.431   7.825 -0.1033 -0.3955  0.7356
   65SAPC  H14R 5337   0.387   0.329   7.794  0.9254  0.2136 -2.5203
   65SAPC  C215 5338   0.365   0.479   7.937  0.2106  0.1475 -0.3997
   65SAPC  H15R 5339   0.278   0.425   7.976  0.8257 -0.1011  0.6397
   65SAPC  C216 5340   0.399   0.602   8.018 -0.1471  0.9273  0.1461
   65SAPC  H16R 5341   0.311   0.667   8.039  0.0074  0.7916  1.2603
   65SAPC  H16S 5342   0.476   0.666   7.971  0.9164  0.6337  1.4529
   65SAPC  C217 5343   0.450   0.559   8.154 -0.1369 -0.0766  0.0071
   65SAPC  H17R 5344   0.488   0.648   8.208  0.9917  0.5297 -1.6677
   65SAPC  H17S 5345   0.529   0.480   8.152  0.5342  0.5547  0.8840
   65SAPC  C218 5346   0.333   0.494   8.240  0.2142  0.3992 -0.7189
   65SAPC  H18R 5347   0.296   0.400   8.193 -1.2880 -0.5445  2.0861
   65SAPC  H18S 5348   0.248   0.566   8.242 -1.8773 -1.9368  0.3686
   65SAPC  C219 5349   0.374   0.477   8.389 -0.3011  0.1409  0.0852
   65SAPC  H19R 5350   0.432   0.569   8.412  1.0760  0.2311 -3.1545
   65SAPC  H19S 5351   0.437   0.387   8.405 -0.7080  0.2053  2.3081
   65SAPC  C220 5352   0.252   0.467   8.476  0.5209 -0.2648 -0.7922
   65SAPC  H20R 5353   0.268   0.460   8.586 -0.8127 -0.0919 -0.5718
   65SAPC  H20S 5354   0.189   0.378   8.452 -0.2386 -0.5544  1.9603
   65SAPC  H20T 5355   0.186   0.555   8.460  2.2995  1.5648  1.3365
   65SAPC   C33 5356   0.784  -0.077   6.881  0.5088  0.7639  1.3805
   65SAPC   H3X 5357   0.876  -0.014   6.875 -0.2453  1.9116  1.4639
   65SAPC   H3Y 5358   0.828  -0.167   6.835 -2.7322 -0.0031 -0.5517
   65SAPC   C34 5359   0.732  -0.119   7.020 -0.0250  0.7415  0.5639
   65SAPC   H4X 5360   0.817  -0.162   7.077 -1.2174  0.7002  2.4176
   65SAPC   H4Y 5361   0.664  -0.207   7.012  1.2848 -0.3356  0.9296
   65SAPC   C35 5362   0.651  -0.009   7.092  0.1143  0.3777  0.6342
   65SAPC   H5X 5363   0.552   0.013   7.046 -0.2259 -0.5177  0.9299
   65SAPC   H5Y 5364   0.701   0.087   7.118  0.9227 -0.1217  0.9565
   65SAPC   C36 5365   0.617  -0.058   7.238  0.4443  0.6074  0.4097
   65SAPC   H6X 5366   0.557  -0.150   7.222  1.0713  0.3847 -0.7218
   65SAPC   H6Y 5367   0.546   0.019   7.277 -1.2828 -0.6276 -0.1941
   65SAPC   C37 5368   0.740  -0.075   7.326 -0.3572 -0.6059  0.2524
   65SAPC   H7X 5369   0.801   0.015   7.303 -0.9266 -0.2470  0.1057
   65SAPC   H7Y 5370   0.803  -0.156   7.285 -0.4372  0.4519 -2.1424
   65SAPC   C38 5371   0.722  -0.078   7.477  0.6064  0.0462 -0.3167
   65SAPC   H8X 5372   0.613  -0.096   7.489  1.0279 -1.1174  2.6585
   65SAPC   H8Y 5373   0.753   0.022   7.515  2.0308 -0.7577  0.7306
   65SAPC   C39 5374   0.787  -0.198   7.544 -0.6317 -0.0933  0.4465
   65SAPC   H9X 5375   0.892  -0.213   7.511 -1.2514 -0.8669 -1.2538
   65SAPC   H9Y 5376   0.736  -0.292   7.514 -1.0514 -0.0829  1.0986
   65SAPC  C310 5377   0.785  -0.192   7.694  0.0392  0.2321 -0.1866
   65SAPC  H10X 5378   0.679  -0.208   7.724  0.0268 -2.1290 -1.2683
   65SAPC  H10Y 5379   0.831  -0.093   7.715  1.3637 -0.4973  0.4958
   65SAPC  C311 5380   0.862  -0.306   7.756 -0.2298  0.3201  0.3606
   65SAPC  H11X 5381   0.968  -0.308   7.724 -0.2504  1.5965  0.1619
   65SAPC  H11Y 5382   0.815  -0.401   7.722  0.0624  1.2112 -2.8831
   65SAPC  C312 5383   0.840  -0.315   7.910 -0.7487  0.2183  0.5057
   65SAPC  H12X 5384   0.807  -0.220   7.957  0.6462  0.1647  1.6718
   65SAPC  H12Y 5385   0.933  -0.355   7.955 -0.7501  0.7879  1.0250
   65SAPC  C313 5386   0.732  -0.416   7.938 -0.5518 -0.1951 -0.2051
   65SAPC  H13X 5387   0.774  -0.516   7.916  2.5608  0.6604  1.3398
   65SAPC  H13Y 5388   0.646  -0.397   7.870  1.9647  2.1856 -3.0182
   65SAPC  C314 5389   0.692  -0.400   8.086 -0.1632 -0.0379  0.7537
   65SAPC  H14X 5390   0.670  -0.294   8.110  1.4948  0.6845 -0.6213
   65SAPC  H14Y 5391   0.784  -0.442   8.132  0.0575  0.4565  0.7693
   65SAPC  C315 5392   0.574  -0.484   8.114  0.4181  0.6254 -1.0159
   65SAPC  H15X 5393   0.589  -0.591   8.088  0.1981 -0.3710  2.4753
   65SAPC  H15Y 5394   0.486  -0.447   8.057 -0.1694  0.8990  0.0469
   65SAPC  C316 5395   0.534  -0.502   8.256  0.0677 -0.2891  0.1606
   65SAPC  H16X 5396   0.538  -0.419   8.330  1.2125  0.5265 -0.7852
   65SAPC  H16Y 5397   0.606  -0.579   8.293  0.1957 -1.4796 -2.4085
   65SAPC  C317 5398   0.391  -0.575   8.262  0.5024 -0.5975  0.8181
   65SAPC  H17X 5399   0.388  -0.647   8.177 -0.6698 -1.6377  1.7043
   65SAPC  H17Y 5400   0.309  -0.499   8.265  1.5520  0.5347  1.8190
   65SAPC  C318 5401   0.368  -0.653   8.395  0.1725  0.0510 -0.5935
   65SAPC  H18X 5402   0.447  -0.731   8.402  0.4792  0.5062  1.4854
   65SAPC  H18Y 5403   0.269  -0.702   8.401  0.9101 -1.3071  1.9722
   65SAPC  H18Z 5404   0.378  -0.586   8.482  1.5306  2.1314 -2.2442
   66SAPC     N 5405   5.755   5.508   6.100 -0.6163  0.5708  0.0532
   66SAPC   C12 5406   5.728   5.610   6.209  0.3181  0.0699 -0.1750
   66SAPC  H12A 5407   5.812   5.677   6.220  0.6165  0.2081 -2.6069
   66SAPC  H12B 5408   5.718   5.564   6.306  0.0460  1.0359  0.2697
   66SAPC   C13 5409   5.774   5.575   5.970 -0.1337  0.8832  0.2004
   66SAPC  H13A 5410   5.675   5.590   5.929  0.3434  0.1321 -1.2924
   66SAPC  H13B 5411   5.830   5.668   5.979  1.0106  0.3290 -0.9077
   66SAPC  H13C 5412   5.824   5.512   5.898  0.6452  0.3211  1.2131
   66SAPC   C14 5413   5.870   5.425   6.135 -0.5830  0.2513  0.3950
   66SAPC  H14A 5414   5.871   5.339   6.069  0.8402  1.4066 -1.1778
   66SAPC  H14B 5415   5.962   5.479   6.117 -0.7431  0.6721  0.8183
   66SAPC  H14C 5416   5.864   5.385   6.235 -0.6773 -2.0623 -0.4576
   66SAPC   C15 5417   5.635   5.420   6.087  0.3193  0.0212 -0.2487
   66SAPC  H15A 5418   5.545   5.471   6.056  0.3252  1.9578  2.5397
   66SAPC  H15B 5419   5.659   5.332   6.030  0.9866  0.0616 -0.0359
   66SAPC  H15C 5420   5.607   5.384   6.185 -1.2694  2.5551  0.3132
   66SAPC   C11 5421   5.608   5.714   6.187 -0.3350  0.6661 -0.2844
   66SAPC  H11A 5422   5.611   5.781   6.276  0.2994  1.5630 -0.9656
   66SAPC  H11B 5423   5.516   5.653   6.190 -0.1560  0.4281  0.5614
   66SAPC     P 5424   5.734   5.905   6.065  0.2307  0.2452 -0.2944
   66SAPC   O13 5425   5.822   5.882   5.953  0.2885  0.3320  0.4215
   66SAPC   O14 5426   5.662   6.033   6.063 -0.0227  0.0391  0.3764
   66SAPC   O12 5427   5.626   5.782   6.069 -0.5059 -0.2638 -0.5171
   66SAPC   O11 5428   5.813   5.890   6.205 -0.3292 -0.0356 -0.0510
   66SAPC    C1 5429   5.911   5.997   6.242  0.3627  0.2272 -0.3732
   66SAPC    HA 5430   5.907   6.086   6.176 -0.4525  1.7220  1.5969
   66SAPC    HB 5431   5.880   6.033   6.342 -2.0994 -0.3569 -0.8753
   66SAPC    C2 5432   6.055   5.948   6.269 -0.0463 -0.6260  0.2135
   66SAPC    HS 5433   6.100   5.922   6.170 -1.5117  0.6266 -0.8171
   66SAPC   O21 5434   6.042   5.830   6.351 -0.4128  0.0326 -0.2103
   66SAPC   C21 5435   6.149   5.748   6.349 -0.4830  0.5437 -0.1883
   66SAPC   O22 5436   6.246   5.753   6.277  0.3330 -0.1050  0.5904
   66SAPC   C22 5437   6.128   5.651   6.462  0.2203  0.0378  0.5672
   66SAPC   H2R 5438   6.022   5.649   6.496  0.3701  0.6608  1.0929
   66SAPC   H2S 5439   6.161   5.559   6.410 -0.2084  0.8573 -1.2407
   66SAPC    C3 5440   6.147   6.058   6.342 -0.2477 -0.3594  1.0224
   66SAPC    HX 5441   6.173   6.137   6.269 -0.6904 -0.3635  0.8546
   66SAPC    HY 5442   6.241   6.004   6.363  0.4955  0.8384  0.8696
   66SAPC   O31 5443   6.088   6.102   6.462 -0.0931 -0.0717  0.2249
   66SAPC   C31 5444   6.029   6.217   6.471  0.9891 -0.0581  0.3364
   66SAPC   O32 5445   6.001   6.293   6.376 -0.3900 -0.0674  0.4530
   66SAPC   C32 5446   5.990   6.245   6.614 -0.1040  0.7807 -0.4687
   66SAPC   H2X 5447   6.069   6.215   6.686 -0.1964  0.0830 -0.6550
   66SAPC   H2Y 5448   5.912   6.169   6.634 -1.1885  1.8575 -0.4969
   66SAPC   C23 5449   6.213   5.681   6.586  0.1545 -0.2978  0.6873
   66SAPC   H3R 5450   6.274   5.770   6.560  1.3545 -1.5254 -0.8802
   66SAPC   H3S 5451   6.285   5.600   6.612 -0.4219 -0.7736  0.8346
   66SAPC   C24 5452   6.121   5.707   6.704 -0.3978 -0.0047 -0.0069
   66SAPC   H4R 5453   6.059   5.618   6.723 -2.0443  0.8506 -1.1413
   66SAPC   H4S 5454   6.061   5.797   6.679 -1.8348 -0.6516  1.0012
   66SAPC   C25 5455   6.205   5.728   6.824 -0.6159  0.2224 -0.5300
   66SAPC   H5R 5456   6.230   5.639   6.883  0.2268  2.2218  2.3510
   66SAPC   C26 5457   6.234   5.853   6.878 -0.1620 -0.2538 -0.8150
   66SAPC   H6R 5458   6.296   5.858   6.969  0.1245  0.7430 -1.0473
   66SAPC   C27 5459   6.192   5.992   6.833 -0.4408  0.1503 -0.0310
   66SAPC   H7R 5460   6.163   6.001   6.726 -1.5764  2.2938  0.4049
   66SAPC   H7S 5461   6.276   6.062   6.855  1.0619 -2.1294  1.9646
   66SAPC   C28 5462   6.070   6.053   6.897 -0.0204  0.7914 -0.0083
   66SAPC   H8R 5463   5.980   6.026   6.840 -0.5281 -1.0134  1.5528
   66SAPC   C29 5464   6.052   6.135   6.997  0.4134  0.1915 -0.3610
   66SAPC   H9R 5465   5.947   6.164   7.016  0.0569  0.0150 -1.9169
   66SAPC  C210 5466   6.155   6.196   7.095 -0.3966 -0.3533 -0.0335
   66SAPC  H10R 5467   6.171   6.305   7.086  1.5142 -0.4090  1.9210
   66SAPC  H10S 5468   6.253   6.151   7.070 -0.5269  0.1017 -1.3995
   66SAPC  C211 5469   6.113   6.160   7.239 -0.1713  0.6437  0.2510
   66SAPC  H11R 5470   6.117   6.053   7.265  0.8057 -0.0019 -2.3218
   66SAPC  C212 5471   6.083   6.244   7.341 -0.1660  0.4570 -0.3168
   66SAPC  H12R 5472   6.064   6.198   7.439  3.4438  0.1046  0.3600
   66SAPC  C213 5473   6.075   6.399   7.346  0.1740  0.0264  0.4230
   66SAPC  H13R 5474   5.968   6.430   7.342 -1.1133 -4.0098 -0.7073
   66SAPC  H13S 5475   6.124   6.436   7.254  1.0835 -0.9456  0.5090
   66SAPC  C214 5476   6.148   6.446   7.465 -0.4379 -0.9464  0.1812
   66SAPC  H14R 5477   6.246   6.487   7.436 -0.7259  0.3014  0.8614
   66SAPC  C215 5478   6.106   6.455   7.592 -0.1153  0.4110 -0.3565
   66SAPC  H15R 5479   6.173   6.497   7.669 -0.1940 -2.2962  1.2945
   66SAPC  C216 5480   5.978   6.408   7.647  0.7689 -0.0565  0.2324
   66SAPC  H16R 5481   5.929   6.323   7.595 -2.0653  1.2026  0.6895
   66SAPC  H16S 5482   5.906   6.492   7.658  0.6146 -0.1780  0.1545
   66SAPC  C217 5483   5.997   6.358   7.794 -0.5038 -0.4401 -0.5177
   66SAPC  H17R 5484   6.016   6.450   7.853  1.3118  0.2828 -2.1119
   66SAPC  H17S 5485   6.097   6.310   7.805  0.6641  1.8341 -0.5736
   66SAPC  C218 5486   5.887   6.266   7.856  0.2196 -0.2025 -0.1696
   66SAPC  H18R 5487   5.886   6.168   7.802  1.2509  0.4117 -1.3710
   66SAPC  H18S 5488   5.793   6.320   7.832 -0.4090 -0.3663  1.7603
   66SAPC  C219 5489   5.896   6.245   7.999 -0.0566 -0.4824 -0.9327
   66SAPC  H19R 5490   5.890   6.347   8.043 -2.6802 -1.1611  0.4754
   66SAPC  H19S 5491   5.994   6.203   8.030  0.0562  1.4824  1.7778
   66SAPC  C220 5492   5.774   6.176   8.062  0.0899 -0.1303 -0.5386
   66SAPC  H20R 5493   5.800   6.144   8.165  1.2509 -0.0571 -0.7922
   66SAPC  H20S 5494   5.741   6.097   7.992  0.1061 -0.3222 -0.3313
   66SAPC  H20T 5495   5.686   6.244   8.058  0.4656  0.2918 -2.6916
   66SAPC   C33 5496   5.939   6.390   6.653  0.6448 -0.2220  0.0057
   66SAPC   H3X 5497   5.855   6.407   6.582  1.2781  0.0208 -0.6944
   66SAPC   H3Y 5498   6.015   6.465   6.624 -0.4332  0.0810 -2.2881
   66SAPC   C34 5499   5.887   6.401   6.797 -0.0569 -0.1137 -0.6864
   66SAPC   H4X 5500   5.859   6.309   6.853  0.7686 -0.4383 -0.7863
   66SAPC   H4Y 5501   5.800   6.469   6.790 -0.5303 -0.5011  0.8323
   66SAPC   C35 5502   5.978   6.498   6.882  0.1218  0.4881  0.9923
   66SAPC   H5X 5503   5.987   6.596   6.829 -1.9600 -0.3854 -1.1194
   66SAPC   H5Y 5504   6.077   6.447   6.877  0.1026  0.5207 -2.3584
   66SAPC   C36 5505   5.934   6.519   7.026 -0.3248  0.0558 -0.0636
   66SAPC   H6X 5506   6.017   6.565   7.083  0.2477  1.1394 -1.6945
   66SAPC   H6Y 5507   5.932   6.421   7.079  0.4196  0.2302  0.2983
   66SAPC   C37 5508   5.802   6.589   7.041  0.3062 -0.5823 -0.6091
   66SAPC   H7X 5509   5.739   6.506   7.005  0.4380 -0.5949 -0.8119
   66SAPC   H7Y 5510   5.802   6.679   6.975  0.0491  0.4286  0.7059
   66SAPC   C38 5511   5.769   6.618   7.191 -0.2290  0.3237  0.5414
   66SAPC   H8X 5512   5.784   6.525   7.250 -2.8394 -0.8251 -0.4210
   66SAPC   H8Y 5513   5.659   6.637   7.195 -0.7473 -1.8991 -0.8854
   66SAPC   C39 5514   5.852   6.730   7.242  0.9223 -0.3609  0.2791
   66SAPC   H9X 5515   5.809   6.824   7.202  0.7392  0.4655  2.3024
   66SAPC   H9Y 5516   5.954   6.736   7.199 -0.1767  3.1323 -2.3494
   66SAPC  C310 5517   5.840   6.731   7.392 -0.4884 -0.3907 -0.6714
   66SAPC  H10X 5518   5.917   6.660   7.430 -1.0867 -0.6625  0.0574
   66SAPC  H10Y 5519   5.738   6.694   7.417 -0.7083  0.3485 -0.4357
   66SAPC  C311 5520   5.870   6.871   7.455  0.0373 -0.2613  0.1766
   66SAPC  H11X 5521   5.772   6.920   7.470  0.7701  1.0967  0.6356
   66SAPC  H11Y 5522   5.929   6.932   7.384  2.1038 -2.1771  0.1435
   66SAPC  C312 5523   5.929   6.860   7.598 -0.4544 -0.1564 -1.1984
   66SAPC  H12X 5524   5.952   6.962   7.636 -1.1514  0.2316 -1.8082
   66SAPC  H12Y 5525   6.026   6.805   7.602 -0.0251  0.6576  0.5868
   66SAPC  C313 5526   5.832   6.789   7.694  0.0286  0.3453 -0.6270
   66SAPC  H13X 5527   5.789   6.701   7.641 -2.0492  1.7291 -1.3282
   66SAPC  H13Y 5528   5.750   6.860   7.717 -1.9268 -1.8470 -0.4348
   66SAPC  C314 5529   5.897   6.743   7.828 -0.1992 -0.9122  0.2488
   66SAPC  H14X 5530   5.945   6.820   7.893  1.2881 -0.0195 -1.7842
   66SAPC  H14Y 5531   5.978   6.670   7.810  1.9956  1.1594  1.0926
   66SAPC  C315 5532   5.787   6.675   7.913  0.8608  0.5979 -0.0001
   66SAPC  H15X 5533   5.741   6.594   7.853  2.6482  0.0868 -0.7467
   66SAPC  H15Y 5534   5.706   6.747   7.937 -0.7767 -1.5308  1.3212
   66SAPC  C316 5535   5.839   6.608   8.035  0.4344  1.1627  0.4693
   66SAPC  H16X 5536   5.926   6.549   8.001  0.2430  0.6364  0.8758
   66SAPC  H16Y 5537   5.765   6.546   8.091  0.8314 -0.3019 -0.5648
   66SAPC  C317 5538   5.887   6.709   8.145  0.2621  1.2151 -0.3296
   66SAPC  H17X 5539   5.955   6.780   8.093  0.4793 -0.3167 -2.2726
   66SAPC  H17Y 5540   5.940   6.658   8.228 -1.3590  0.3037  0.1879
   66SAPC  C318 5541   5.774   6.782   8.221  0.2138  0.4334  0.2528
   66SAPC  H18X 5542   5.814   6.848   8.301  0.2508 -0.4109  0.9390
   66SAPC  H18Y 5543   5.712   6.708   8.276 -0.4899  1.1617  0.4563
   66SAPC  H18Z 5544   5.716   6.848   8.153  0.6211  0.6384  0.0979
   67SAPC     N 5545   2.488   1.202   6.319 -0.1715  0.3637  0.8073
   67SAPC   C12 5546   2.399   1.246   6.427 -0.3470  0.5643 -0.2556
   67SAPC  H12A 5547   2.303   1.271   6.384 -0.8319 -2.1195 -0.9395
   67SAPC  H12B 5548   2.450   1.326   6.479  1.0267 -0.2558 -0.2862
   67SAPC   C13 5549   2.408   1.113   6.219 -0.6893 -0.4280 -0.2299
   67SAPC  H13A 5550   2.472   1.065   6.146 -0.8902  0.2102 -0.8461
   67SAPC  H13B 5551   2.363   1.033   6.276 -0.9120 -0.4332 -0.4100
   67SAPC  H13C 5552   2.330   1.161   6.161  1.4945  0.9105 -2.2474
   67SAPC   C14 5553   2.544   1.324   6.247 -0.3277  1.1478  0.0764
   67SAPC  H14A 5554   2.578   1.394   6.322  0.0070 -0.4326  1.4378
   67SAPC  H14B 5555   2.625   1.300   6.181 -0.6718  2.0361 -0.6999
   67SAPC  H14C 5556   2.466   1.367   6.186  0.2993  1.2884 -0.6394
   67SAPC   C15 5557   2.596   1.124   6.379 -1.2185  0.8569 -0.5221
   67SAPC  H15A 5558   2.550   1.046   6.438  1.9790 -0.4529  0.4709
   67SAPC  H15B 5559   2.670   1.073   6.319 -0.7359  0.4059  0.4334
   67SAPC  H15C 5560   2.658   1.186   6.443 -0.9855 -0.7838  0.9147
   67SAPC   C11 5561   2.358   1.138   6.543 -0.8209 -0.6725 -0.3000
   67SAPC  H11A 5562   2.289   1.186   6.616 -0.6851 -1.2994  0.2484
   67SAPC  H11B 5563   2.449   1.104   6.596 -0.0819  0.1422 -1.0031
   67SAPC     P 5564   2.291   0.876   6.515  0.1431 -0.2257 -0.1340
   67SAPC   O13 5565   2.203   0.827   6.620 -0.4959  0.2333 -0.7197
   67SAPC   O14 5566   2.277   0.817   6.379  0.1980  0.8885  0.0975
   67SAPC   O12 5567   2.285   1.028   6.487 -0.9614  0.4800  0.1033
   67SAPC   O11 5568   2.439   0.871   6.560 -0.2335 -0.0360 -0.4280
   67SAPC    C1 5569   2.472   0.799   6.685  0.7374  0.5230 -0.1923
   67SAPC    HA 5570   2.396   0.821   6.762 -1.2848 -0.4265 -1.8071
   67SAPC    HB 5571   2.466   0.688   6.672  2.0752  0.4073 -0.0132
   67SAPC    C2 5572   2.609   0.829   6.744 -0.1283  0.0546 -0.2917
   67SAPC    HS 5573   2.687   0.817   6.666  0.7472 -0.0599  0.5927
   67SAPC   O21 5574   2.628   0.736   6.850  0.0611 -0.4863 -0.0322
   67SAPC   C21 5575   2.753   0.722   6.899 -0.0483  0.9538  0.4729
   67SAPC   O22 5576   2.855   0.777   6.867 -0.5408 -0.2497  0.8054
   67SAPC   C22 5577   2.749   0.592   6.989 -0.1761  0.3790 -0.0442
   67SAPC   H2R 5578   2.844   0.603   7.045  0.2864  1.9060 -1.0646
   67SAPC   H2S 5579   2.663   0.591   7.059  0.9800 -0.1225  1.3974
   67SAPC    C3 5580   2.631   0.981   6.779 -0.2352  0.0723  0.1243
   67SAPC    HX 5581   2.639   1.034   6.681 -0.7556  0.7427  0.4295
   67SAPC    HY 5582   2.725   0.987   6.837 -0.3218  0.1830  0.2541
   67SAPC   O31 5583   2.508   1.037   6.845  0.0441 -0.6110  0.1473
   67SAPC   C31 5584   2.495   1.021   6.973 -0.7734 -0.2420  0.7543
   67SAPC   O32 5585   2.579   0.972   7.047  0.4989  0.3079  0.4571
   67SAPC   C32 5586   2.362   1.085   7.021 -0.6664 -0.0195 -0.3044
   67SAPC   H2X 5587   2.289   1.075   6.938 -2.2478  2.5893  0.6481
   67SAPC   H2Y 5588   2.385   1.190   7.046  0.3670 -0.6007  1.3524
   67SAPC   C23 5589   2.745   0.458   6.912 -0.1341 -0.1948  0.4147
   67SAPC   H3R 5590   2.839   0.449   6.853 -0.0942  0.1432  0.4230
   67SAPC   H3S 5591   2.664   0.457   6.836  0.3148  3.6224 -0.2882
   67SAPC   C24 5592   2.748   0.334   7.003 -0.4367  0.2115  0.0322
   67SAPC   H4R 5593   2.729   0.241   6.944 -1.1530  1.1449 -1.2512
   67SAPC   H4S 5594   2.674   0.350   7.084  2.2271 -0.4025  2.7762
   67SAPC   C25 5595   2.880   0.329   7.083  0.8054  0.0267  0.1476
   67SAPC   H5R 5596   2.959   0.282   7.022 -1.3636 -0.1113 -2.7642
   67SAPC   C26 5597   2.908   0.356   7.210 -0.1101  0.0897 -0.2980
   67SAPC   H6R 5598   3.011   0.357   7.248 -0.3070 -0.5187  0.2665
   67SAPC   C27 5599   2.812   0.405   7.322  0.2893  0.1199  0.1192
   67SAPC   H7R 5600   2.801   0.325   7.397  0.5688 -0.2152 -0.1931
   67SAPC   H7S 5601   2.711   0.417   7.278  1.1366  0.7305 -1.7805
   67SAPC   C28 5602   2.852   0.534   7.392 -0.8232  0.0873 -0.3625
   67SAPC   H8R 5603   2.955   0.523   7.429  0.2144  0.3366 -2.9069
   67SAPC   C29 5604   2.783   0.643   7.420  0.2737 -0.2744  0.0539
   67SAPC   H9R 5605   2.827   0.730   7.471  0.1452 -0.9794  1.4183
   67SAPC  C210 5606   2.639   0.661   7.376  0.1026 -0.0044 -0.4022
   67SAPC  H10R 5607   2.583   0.572   7.412  0.8280 -0.0491  0.6410
   67SAPC  H10S 5608   2.629   0.671   7.265  0.9786 -0.1983 -0.5016
   67SAPC  C211 5609   2.578   0.791   7.426 -0.4429  0.0693  0.7426
   67SAPC  H11R 5610   2.585   0.877   7.358 -0.4993 -1.5552 -1.4251
   67SAPC  C212 5611   2.512   0.793   7.539  0.0311 -0.6730  0.4715
   67SAPC  H12R 5612   2.467   0.890   7.565  0.4185 -0.6916  1.2499
   67SAPC  C213 5613   2.481   0.681   7.635  0.0106  0.2238  0.3191
   67SAPC  H13R 5614   2.572   0.662   7.696 -0.1905  0.9292  0.8598
   67SAPC  H13S 5615   2.459   0.578   7.601 -0.2797 -0.7708  3.2654
   67SAPC  C214 5616   2.360   0.718   7.718 -0.1721 -0.2732  0.3489
   67SAPC  H14R 5617   2.263   0.723   7.666 -0.8195 -2.1477  1.2917
   67SAPC  C215 5618   2.359   0.717   7.850  0.1590  0.5027 -0.0143
   67SAPC  H15R 5619   2.260   0.737   7.893 -0.7622 -1.0842 -1.2846
   67SAPC  C216 5620   2.477   0.694   7.939 -0.0574 -0.4238  0.3239
   67SAPC  H16R 5621   2.567   0.750   7.906 -0.1787 -0.3963  0.0382
   67SAPC  H16S 5622   2.495   0.585   7.953 -0.0459 -0.5028 -0.2893
   67SAPC  C217 5623   2.451   0.765   8.078 -0.2379  0.6193 -0.3816
   67SAPC  H17R 5624   2.365   0.709   8.119 -0.4425 -1.0346 -2.8779
   67SAPC  H17S 5625   2.444   0.875   8.065 -1.1642  0.6314  0.1775
   67SAPC  C218 5626   2.568   0.747   8.182 -0.1472  0.1750 -0.2717
   67SAPC  H18R 5627   2.651   0.818   8.160 -0.8453  2.1708  2.8705
   67SAPC  H18S 5628   2.602   0.641   8.189  0.3588  0.4568  2.5077
   67SAPC  C219 5629   2.526   0.781   8.325  0.4382 -0.3060 -0.2800
   67SAPC  H19R 5630   2.434   0.727   8.354 -0.4724  1.2013 -0.2747
   67SAPC  H19S 5631   2.512   0.891   8.335  0.3870 -0.1587 -1.7114
   67SAPC  C220 5632   2.633   0.732   8.423  0.3958 -0.1729  0.4191
   67SAPC  H20R 5633   2.728   0.786   8.405  1.1185 -1.7936 -0.9513
   67SAPC  H20S 5634   2.655   0.625   8.402  1.0874  0.2123 -0.8875
   67SAPC  H20T 5635   2.600   0.744   8.529  0.0868 -2.1297  0.5862
   67SAPC   C33 5636   2.290   1.020   7.144 -0.3255  0.5630 -1.0380
   67SAPC   H3X 5637   2.358   1.015   7.232 -0.1653 -2.5489 -1.2181
   67SAPC   H3Y 5638   2.264   0.917   7.114 -0.1095  0.1098  0.2561
   67SAPC   C34 5639   2.159   1.103   7.173  0.2227  0.3338  0.5423
   67SAPC   H4X 5640   2.094   1.103   7.083  0.4704  1.6113  0.3472
   67SAPC   H4Y 5641   2.176   1.209   7.200 -0.5096  0.4057  0.7392
   67SAPC   C35 5642   2.086   1.049   7.295  0.5460  0.4475  0.0195
   67SAPC   H5X 5643   2.046   0.950   7.263  0.2787  0.4763  0.2593
   67SAPC   H5Y 5644   1.994   1.108   7.317 -0.0284 -1.2608  2.8330
   67SAPC   C36 5645   2.168   1.047   7.430 -0.3068  0.5473  0.1495
   67SAPC   H6X 5646   2.212   1.143   7.463  0.2179  0.4229 -0.1842
   67SAPC   H6Y 5647   2.258   0.983   7.420  0.3722  1.7455 -2.1899
   67SAPC   C37 5648   2.083   1.000   7.549  0.1955  0.2489 -0.2572
   67SAPC   H7X 5649   2.053   0.893   7.539 -0.2238  0.5056 -2.1337
   67SAPC   H7Y 5650   1.995   1.068   7.546 -0.6055 -0.7009  0.6817
   67SAPC   C38 5651   2.169   1.024   7.683 -0.0505  0.0710 -0.2769
   67SAPC   H8X 5652   2.183   1.134   7.678 -2.4202  0.3815 -3.2387
   67SAPC   H8Y 5653   2.271   0.981   7.679 -0.4291 -1.0077  0.8523
   67SAPC   C39 5654   2.095   0.966   7.802  0.0687  0.4369  0.1342
   67SAPC   H9X 5655   2.067   0.862   7.777 -2.7497  1.2864 -0.6997
   67SAPC   H9Y 5656   1.993   1.010   7.807  1.0762  3.4274 -2.4498
   67SAPC  C310 5657   2.158   0.995   7.938 -0.3624 -0.3779 -0.1533
   67SAPC  H10X 5658   2.155   1.102   7.965 -1.3467 -0.6008  0.7129
   67SAPC  H10Y 5659   2.267   0.985   7.921  0.0293  2.5314  0.2212
   67SAPC  C311 5660   2.113   0.917   8.065 -0.3080 -0.7301 -0.2051
   67SAPC  H11X 5661   2.172   0.966   8.146  0.9251 -0.6873 -1.1013
   67SAPC  H11Y 5662   2.126   0.809   8.047 -0.3323 -0.8650  0.5553
   67SAPC  C312 5663   1.973   0.948   8.121 -0.0546 -0.3427  0.3341
   67SAPC  H12X 5664   1.894   0.917   8.049  0.2147 -1.9844  0.7097
   67SAPC  H12Y 5665   1.954   1.057   8.114 -0.4047 -0.5027 -1.8589
   67SAPC  C313 5666   1.937   0.886   8.250  0.7202 -0.2646 -0.1009
   67SAPC  H13X 5667   2.007   0.918   8.331 -0.0336  0.4258  0.2953
   67SAPC  H13Y 5668   1.939   0.775   8.249 -2.4859 -0.4328 -0.0717
   67SAPC  C314 5669   1.791   0.920   8.300 -0.4014  0.4970 -0.0935
   67SAPC  H14X 5670   1.712   0.907   8.222  0.0764  0.6586 -0.6085
   67SAPC  H14Y 5671   1.788   1.028   8.326 -2.2344  0.4389  0.0636
   67SAPC  C315 5672   1.740   0.824   8.411 -0.3491  0.1010  0.0285
   67SAPC  H15X 5673   1.725   0.719   8.376  2.2457 -0.3616  0.0589
   67SAPC  H15Y 5674   1.638   0.857   8.438 -0.3743 -1.0493  1.4658
   67SAPC  C316 5675   1.830   0.807   8.532 -0.0186 -0.3659  0.1494
   67SAPC  H16X 5676   1.841   0.902   8.589  0.8084 -1.0836  1.2126
   67SAPC  H16Y 5677   1.934   0.778   8.508  0.0677  0.8892 -1.1154
   67SAPC  C317 5678   1.796   0.698   8.630 -0.0041  0.1638 -0.5580
   67SAPC  H17X 5679   1.794   0.602   8.574  1.9295 -0.7624  0.8219
   67SAPC  H17Y 5680   1.699   0.729   8.673  0.3154  2.5419 -1.4351
   67SAPC  C318 5681   1.896   0.696   8.745 -0.4452 -0.3325 -0.5900
   67SAPC  H18X 5682   1.879   0.607   8.810  1.8010 -0.6918 -0.4257
   67SAPC  H18Y 5683   1.885   0.794   8.797 -0.1186 -1.2090  1.2199
   67SAPC  H18Z 5684   2.004   0.698   8.721  0.5453 -1.2256  3.1454
   68SAPC     N 5685   5.884   0.470   5.804  0.1110  0.0259  0.2298
   68SAPC   C12 5686   5.757   0.520   5.859  0.3554 -0.4976 -0.5067
   68SAPC  H12A 5687   5.676   0.524   5.787 -0.3864  0.4116  0.3501
   68SAPC  H12B 5688   5.777   0.626   5.869  1.1484 -0.4995 -1.8999
   68SAPC   C13 5689   5.865   0.319   5.786 -0.4710  0.4016 -0.5168
   68SAPC  H13A 5690   5.816   0.270   5.868 -3.0443  2.5036 -0.6669
   68SAPC  H13B 5691   5.814   0.294   5.694  0.8927 -0.7862 -1.0032
   68SAPC  H13C 5692   5.958   0.264   5.789 -0.2015  0.8778  1.8249
   68SAPC   C14 5693   5.898   0.535   5.662 -0.0225 -0.7116 -0.5994
   68SAPC  H14A 5694   5.891   0.643   5.663 -1.9296 -0.7572 -2.1929
   68SAPC  H14B 5695   5.984   0.503   5.606  0.7823  0.6849 -0.2012
   68SAPC  H14C 5696   5.808   0.507   5.608 -0.2635 -0.9075 -0.1067
   68SAPC   C15 5697   6.007   0.482   5.886  0.1523  0.3369 -0.4440
   68SAPC  H15A 5698   6.092   0.434   5.839  0.6888 -0.1754  0.9885
   68SAPC  H15B 5699   6.034   0.586   5.884 -0.5270  0.5401  0.2180
   68SAPC  H15C 5700   5.997   0.443   5.987  0.2682 -0.6616 -0.8089
   68SAPC   C11 5701   5.696   0.460   5.993  0.9093 -0.1016 -0.6282
   68SAPC  H11A 5702   5.780   0.457   6.065  0.9954 -0.3726 -0.7366
   68SAPC  H11B 5703   5.661   0.355   5.983  0.3808  0.1052 -0.9746
   68SAPC     P 5704   5.600   0.674   6.130  0.6398  0.0929  0.0893
   68SAPC   O13 5705   5.671   0.777   6.060 -0.6455 -0.6018 -0.4956
   68SAPC   O14 5706   5.463   0.713   6.173  0.5007  0.0007 -0.1630
   68SAPC   O12 5707   5.593   0.551   6.036 -0.0801 -0.0944  0.3683
   68SAPC   O11 5708   5.687   0.617   6.252  0.0045  0.2256  0.6955
   68SAPC    C1 5709   5.656   0.520   6.351  0.6756  0.3062 -0.1854
   68SAPC    HA 5710   5.572   0.457   6.315  0.8002  0.7696 -1.3378
   68SAPC    HB 5711   5.748   0.462   6.372  1.9272  2.3308  0.1674
   68SAPC    C2 5712   5.593   0.579   6.482  0.0033  0.0662  0.4894
   68SAPC    HS 5713   5.513   0.647   6.448  0.6284  1.4610  1.7313
   68SAPC   O21 5714   5.700   0.644   6.552  0.5258  0.4237 -0.7838
   68SAPC   C21 5715   5.666   0.763   6.603  0.2502 -0.3872  0.6656
   68SAPC   O22 5716   5.559   0.823   6.580  0.2982  0.2021  0.1379
   68SAPC   C22 5717   5.798   0.835   6.642 -0.4800  0.2338  0.3297
   68SAPC   H2R 5718   5.884   0.801   6.581 -0.0884  1.4766  0.1516
   68SAPC   H2S 5719   5.786   0.942   6.611 -1.4798  0.2467  0.7256
   68SAPC    C3 5720   5.535   0.469   6.566  0.0590  0.1175  0.6334
   68SAPC    HX 5721   5.451   0.427   6.507  1.6935 -0.5013 -1.3902
   68SAPC    HY 5722   5.485   0.506   6.658 -1.4033  2.4888 -0.9952
   68SAPC   O31 5723   5.639   0.365   6.580  0.4689 -0.6040 -0.1935
   68SAPC   C31 5724   5.704   0.366   6.696 -0.4288  0.1429 -0.2301
   68SAPC   O32 5725   5.668   0.423   6.798 -0.7482  0.2799  0.4275
   68SAPC   C32 5726   5.834   0.282   6.675 -0.4289 -0.0153 -1.2615
   68SAPC   H2X 5727   5.914   0.351   6.639  0.6316 -0.3526  0.3001
   68SAPC   H2Y 5728   5.823   0.200   6.602  3.6866  0.3310 -2.5404
   68SAPC   C23 5729   5.847   0.818   6.785 -0.5724 -0.5156 -0.1997
   68SAPC   H3R 5730   5.954   0.848   6.793 -0.6836 -0.2804  0.4421
   68SAPC   H3S 5731   5.839   0.713   6.820 -0.9455 -0.5202 -0.2947
   68SAPC   C24 5732   5.774   0.913   6.885 -0.4056 -0.5235  0.2380
   68SAPC   H4R 5733   5.788   0.886   6.992  0.2150 -0.3486  0.2078
   68SAPC   H4S 5734   5.665   0.900   6.867 -0.1990 -0.8804 -0.8502
   68SAPC   C25 5735   5.823   1.050   6.863  0.3279 -0.4215  0.3692
   68SAPC   H5R 5736   5.768   1.116   6.794 -0.9501  0.6416  2.2850
   68SAPC   C26 5737   5.922   1.115   6.933  0.2111 -1.0903  0.4654
   68SAPC   H6R 5738   5.956   1.215   6.904 -0.1340 -1.1161 -0.0478
   68SAPC   C27 5739   6.011   1.053   7.035 -0.4726  0.3239  0.0945
   68SAPC   H7R 5740   6.105   1.045   6.977 -1.0646 -0.7351 -0.7435
   68SAPC   H7S 5741   5.981   0.948   7.054 -0.0876  0.1270 -0.3667
   68SAPC   C28 5742   6.028   1.138   7.155  0.5875  0.5723  0.8193
   68SAPC   H8R 5743   5.998   1.244   7.147  0.2717  0.4033 -0.4307
   68SAPC   C29 5744   6.072   1.085   7.270 -0.0795  0.4118  0.1227
   68SAPC   H9R 5745   6.077   1.164   7.347  0.6004 -2.1369  2.8792
   68SAPC  C210 5746   6.128   0.947   7.306 -0.1442 -0.3885  0.0265
   68SAPC  H10R 5747   6.205   0.914   7.232 -0.6114  0.8747 -1.0653
   68SAPC  H10S 5748   6.058   0.861   7.313  0.1458 -0.6065  0.2814
   68SAPC  C211 5749   6.210   0.962   7.430  0.4705 -0.1214 -0.2928
   68SAPC  H11R 5750   6.287   1.040   7.431  1.0145 -0.6371  1.3839
   68SAPC  C212 5751   6.191   0.886   7.545 -1.1876  0.8000  0.3546
   68SAPC  H12R 5752   6.258   0.911   7.628 -0.9886  0.5951  0.2575
   68SAPC  C213 5753   6.092   0.774   7.572  0.3166  1.0892  0.4200
   68SAPC  H13R 5754   6.000   0.793   7.513  1.0337  0.5245 -0.9200
   68SAPC  H13S 5755   6.053   0.771   7.676  0.7148 -0.1356  0.5517
   68SAPC  C214 5756   6.142   0.641   7.519 -0.2815  0.1897 -0.8993
   68SAPC  H14R 5757   6.137   0.617   7.412 -0.3761 -1.4262 -0.5643
   68SAPC  C215 5758   6.196   0.545   7.601 -0.1280  0.0483  0.0607
   68SAPC  H15R 5759   6.232   0.449   7.560  1.3599  0.3719  0.5638
   68SAPC  C216 5760   6.215   0.553   7.752  0.2399  0.6181 -0.4181
   68SAPC  H16R 5761   6.140   0.495   7.811 -0.7844  2.3427  0.0213
   68SAPC  H16S 5762   6.195   0.658   7.782 -2.6738 -0.0619  0.2929
   68SAPC  C217 5763   6.348   0.504   7.812 -0.1740  0.9456  0.6723
   68SAPC  H17R 5764   6.440   0.546   7.765 -2.6326  3.0679 -2.6049
   68SAPC  H17S 5765   6.355   0.393   7.804  0.8106  0.9590  1.1238
   68SAPC  C218 5766   6.360   0.540   7.961 -0.1265 -0.1601  0.3151
   68SAPC  H18R 5767   6.257   0.531   8.002 -0.6251  0.7548 -0.6812
   68SAPC  H18S 5768   6.388   0.647   7.967  1.8760 -0.7201  1.6018
   68SAPC  C219 5769   6.464   0.457   8.030  0.0930 -0.4514 -0.1761
   68SAPC  H19R 5770   6.564   0.463   7.982  0.1662 -3.1242 -0.5348
   68SAPC  H19S 5771   6.444   0.348   8.018  2.2078 -1.0158  0.9980
   68SAPC  C220 5772   6.468   0.510   8.170 -0.4542  0.3789  0.1161
   68SAPC  H20R 5773   6.392   0.463   8.236  1.4788 -1.1232  1.3952
   68SAPC  H20S 5774   6.441   0.618   8.161  2.9089  1.3043 -0.2468
   68SAPC  H20T 5775   6.564   0.484   8.220 -1.2212  1.4452  2.3060
   68SAPC   C33 5776   5.868   0.219   6.811 -0.7727 -0.5251  0.0688
   68SAPC   H3X 5777   5.795   0.137   6.831 -0.3853 -0.7269  0.6893
   68SAPC   H3Y 5778   5.860   0.291   6.895 -1.8365 -1.4704  0.8252
   68SAPC   C34 5779   6.011   0.174   6.819  0.7332  0.0084  0.3552
   68SAPC   H4X 5780   6.085   0.247   6.780  0.7097 -1.4158 -2.5800
   68SAPC   H4Y 5781   6.025   0.098   6.740  0.2969 -0.0705  0.3478
   68SAPC   C35 5782   6.055   0.106   6.945 -0.2427  0.1184 -0.5007
   68SAPC   H5X 5783   5.991   0.016   6.956  0.4496 -0.1883  1.3502
   68SAPC   H5Y 5784   6.038   0.183   7.023 -1.5600  0.4246 -1.0634
   68SAPC   C36 5785   6.198   0.055   6.944 -0.4824 -0.0713 -1.5177
   68SAPC   H6X 5786   6.259   0.144   6.916 -0.3625  0.1830 -0.4723
   68SAPC   H6Y 5787   6.212  -0.025   6.868 -0.5799 -1.3354 -0.2382
   68SAPC   C37 5788   6.253   0.008   7.086 -0.0956  0.3098 -0.5342
   68SAPC   H7X 5789   6.350  -0.045   7.081 -1.4448 -2.4444  0.5942
   68SAPC   H7Y 5790   6.177  -0.061   7.128  1.6878  0.8208  4.1276
   68SAPC   C38 5791   6.263   0.106   7.207  0.3047 -0.2862 -0.3702
   68SAPC   H8X 5792   6.166   0.160   7.215 -0.0217 -0.6873 -1.4698
   68SAPC   H8Y 5793   6.344   0.181   7.199  0.9390 -0.6781  1.8152
   68SAPC   C39 5794   6.277   0.040   7.336  0.0002  0.3832 -0.6341
   68SAPC   H9X 5795   6.375  -0.011   7.327  0.0131  0.2659  0.1006
   68SAPC   H9Y 5796   6.195  -0.030   7.362 -0.2279  1.2494  1.1356
   68SAPC  C310 5797   6.282   0.134   7.455 -0.3055  0.0165  0.0029
   68SAPC  H10X 5798   6.177   0.165   7.475 -0.8228 -1.0920 -0.8754
   68SAPC  H10Y 5799   6.331   0.226   7.416 -2.0062  0.8650 -0.2139
   68SAPC  C311 5800   6.371   0.092   7.581 -0.1099 -0.0651 -0.5162
   68SAPC  H11X 5801   6.361   0.167   7.662 -0.9777 -2.4363  1.7407
   68SAPC  H11Y 5802   6.480   0.087   7.564  0.2915  0.2540  1.6351
   68SAPC  C312 5803   6.328  -0.041   7.640 -0.5768  0.0903 -0.1310
   68SAPC  H12X 5804   6.343  -0.127   7.571 -2.7020  0.4098 -1.0643
   68SAPC  H12Y 5805   6.219  -0.039   7.659 -0.3788 -0.7067  1.1423
   68SAPC  C313 5806   6.404  -0.078   7.765 -0.1890  0.1533 -0.1828
   68SAPC  H13X 5807   6.425   0.015   7.822 -0.0570  0.4695 -0.7419
   68SAPC  H13Y 5808   6.501  -0.118   7.729  0.5175 -0.2519  2.0255
   68SAPC  C314 5809   6.337  -0.190   7.841  0.6706 -0.0821  0.4043
   68SAPC  H14X 5810   6.331  -0.291   7.795  0.6947 -0.3616  1.0056
   68SAPC  H14Y 5811   6.236  -0.154   7.868 -0.0158 -1.6787  0.1115
   68SAPC  C315 5812   6.407  -0.224   7.974 -0.8345 -0.0928 -0.6716
   68SAPC  H15X 5813   6.506  -0.266   7.943 -0.6272 -0.9668  1.0529
   68SAPC  H15Y 5814   6.346  -0.302   8.024  1.9658 -2.5336 -0.7349
   68SAPC  C316 5815   6.425  -0.111   8.076 -0.8294 -0.7960 -0.4277
   68SAPC  H16X 5816   6.332  -0.050   8.078  0.6303  1.5654 -0.1041
   68SAPC  H16Y 5817   6.509  -0.046   8.043 -1.2780 -0.4301 -0.8625
   68SAPC  C317 5818   6.465  -0.162   8.216 -0.0253 -0.3212 -0.1076
   68SAPC  H17X 5819   6.373  -0.208   8.260 -0.0703  1.1312  1.4348
   68SAPC  H17Y 5820   6.498  -0.079   8.281  0.7273 -1.8066  1.5026
   68SAPC  C318 5821   6.574  -0.263   8.220 -0.7461  0.0770 -0.4912
   68SAPC  H18X 5822   6.591  -0.295   8.325 -1.4180 -2.9295 -1.1925
   68SAPC  H18Y 5823   6.668  -0.219   8.180  0.2827  0.8760  2.5090
   68SAPC  H18Z 5824   6.550  -0.348   8.153 -1.0236  0.1119 -0.4399
   69SLPC     N 5825   5.567   4.222  11.300  0.4106  0.1619 -0.4802
   69SLPC   C13 5826   5.676   4.319  11.260 -0.0616 -0.0352  0.5843
   69SLPC  H13A 5827   5.748   4.274  11.194 -0.4594 -0.2136  0.2733
   69SLPC  H13B 5828   5.637   4.400  11.201  2.4831 -0.2373 -1.5503
   69SLPC  H13C 5829   5.716   4.362  11.351 -1.8233 -0.7126  1.7350
   69SLPC   C14 5830   5.457   4.291  11.389 -0.7673  0.6909  0.5950
   69SLPC  H14A 5831   5.505   4.336  11.474  0.0296  0.9434  0.0293
   69SLPC  H14B 5832   5.400   4.364  11.333 -1.0324 -0.1022 -0.2059
   69SLPC  H14C 5833   5.391   4.216  11.432  1.6813  0.0924  3.6907
   69SLPC   C15 5834   5.633   4.110  11.379  0.3280  0.9171  0.1784
   69SLPC  H15A 5835   5.558   4.072  11.446 -0.6967  0.1075 -1.3687
   69SLPC  H15B 5836   5.683   4.028  11.329  0.6009  0.7460  0.7219
   69SLPC  H15C 5837   5.710   4.147  11.445 -0.6107  1.8726  0.7765
   69SLPC   C12 5838   5.502   4.161  11.174 -0.8059  0.4170  0.3055
   69SLPC  H12A 5839   5.463   4.238  11.110  0.2975  0.2255 -0.6250
   69SLPC  H12B 5840   5.418   4.101  11.208 -1.2572  1.5346  1.2318
   69SLPC   C11 5841   5.597   4.071  11.085 -0.0963 -0.6555  0.0920
   69SLPC  H11A 5842   5.537   3.998  11.027  0.1621 -0.8761  0.1049
   69SLPC  H11B 5843   5.653   3.998  11.147  0.2097 -1.0957 -0.6893
   69SLPC     P 5844   5.835   4.123  10.974 -0.1393  0.3597 -0.4406
   69SLPC   O13 5845   5.918   4.237  11.032  0.3020  0.9928  0.3896
   69SLPC   O14 5846   5.871   3.983  11.009 -0.4367  0.6366 -0.4659
   69SLPC   O12 5847   5.686   4.157  11.011 -0.2105 -0.7321  0.0469
   69SLPC   O11 5848   5.838   4.149  10.819  0.1793  0.5667 -0.2390
   69SLPC    C1 5849   5.738   4.074  10.741  0.0106 -0.3094  0.3141
   69SLPC    HA 5850   5.658   4.023  10.800 -0.8347 -0.7733 -1.1734
   69SLPC    HB 5851   5.687   4.143  10.670  2.0194  0.6516 -0.2663
   69SLPC    C2 5852   5.809   3.968  10.653  0.0861 -0.1275 -0.6426
   69SLPC    HS 5853   5.889   3.917  10.710 -0.6491 -0.4916  0.0648
   69SLPC   O21 5854   5.867   4.042  10.543 -0.1312  0.3159 -0.2434
   69SLPC   C21 5855   5.978   4.004  10.488 -0.1470  0.3191  0.1513
   69SLPC   O22 5856   6.049   3.915  10.526  0.5191 -0.4107  0.1686
   69SLPC   C22 5857   6.016   4.093  10.364  0.5253 -0.3603  0.2649
   69SLPC   H2R 5858   5.937   4.074  10.288  0.2406 -0.7742  0.6589
   69SLPC   H2S 5859   6.015   4.200  10.391 -0.2266 -0.4673  0.6968
   69SLPC    C3 5860   5.706   3.869  10.604 -0.1119  0.0598 -0.4820
   69SLPC    HX 5861   5.668   3.810  10.690  1.5295 -0.1434  0.1281
   69SLPC    HY 5862   5.750   3.795  10.534  0.5708 -0.5836  0.6117
   69SLPC   O31 5863   5.593   3.938  10.552 -0.2520 -0.5202 -0.5657
   69SLPC   C31 5864   5.602   3.951  10.418  0.0140 -0.4851 -0.9692
   69SLPC   O32 5865   5.695   3.909  10.344  0.5154 -0.5290  0.3280
   69SLPC   C32 5866   5.474   4.017  10.368 -0.0487 -0.2821 -0.0143
   69SLPC   H2X 5867   5.500   4.043  10.263  0.9489 -1.6042 -0.1118
   69SLPC   H2Y 5868   5.455   4.106  10.431 -2.2754 -0.4624 -0.3492
   69SLPC   C23 5869   6.158   4.052  10.314 -0.6648  0.4723 -0.6306
   69SLPC   H3R 5870   6.171   3.944  10.293  1.2573  0.3337  0.9502
   69SLPC   H3S 5871   6.224   4.084  10.398 -0.2158  1.1201 -1.2170
   69SLPC   C24 5872   6.204   4.136  10.186  0.4655  0.4745  0.5620
   69SLPC   H4R 5873   6.296   4.088  10.148  0.0629  0.4489 -0.4129
   69SLPC   H4S 5874   6.231   4.240  10.215 -0.2202  0.4654  1.2714
   69SLPC   C25 5875   6.100   4.144  10.063 -0.1944  0.3470 -0.2370
   69SLPC   H5R 5876   6.035   4.230  10.089 -0.2830  0.4225 -0.7105
   69SLPC   H5S 5877   6.038   4.053  10.069  0.3303  0.0043  0.1595
   69SLPC   C26 5878   6.165   4.151   9.926 -0.1474  0.3696 -0.5563
   69SLPC   H6R 5879   6.252   4.083   9.921 -0.5396 -0.2523  0.5530
   69SLPC   H6S 5880   6.212   4.251   9.914  2.3544 -0.2442  2.7923
   69SLPC   C27 5881   6.066   4.132   9.814 -0.2193 -0.2338 -0.0145
   69SLPC   H7R 5882   5.974   4.193   9.812  0.9433  1.6365  1.0457
   69SLPC   H7S 5883   6.031   4.026   9.816 -0.0459 -0.3264 -1.1484
   69SLPC   C28 5884   6.132   4.154   9.671  0.1044 -0.4806 -0.4858
   69SLPC   H8R 5885   6.167   4.260   9.670 -2.9108  0.6574  1.3618
   69SLPC   H8S 5886   6.053   4.140   9.595  1.4902 -1.7554 -1.7510
   69SLPC   C29 5887   6.252   4.071   9.636 -0.5467  0.0494  0.6989
   69SLPC   H9R 5888   6.328   4.063   9.715 -0.3865 -0.3159  0.5101
   69SLPC  C210 5889   6.276   4.008   9.518 -0.3068 -0.3157 -0.2460
   69SLPC  H10R 5890   6.366   3.945   9.512  0.1672  0.3460 -0.0953
   69SLPC  C211 5891   6.181   4.016   9.403  1.0071  0.1081 -0.1452
   69SLPC  H11R 5892   6.104   4.096   9.406  1.8626  0.9625 -0.0949
   69SLPC  H11S 5893   6.133   3.917   9.397  0.4317  0.3903 -0.2244
   69SLPC  C212 5894   6.264   4.039   9.274  0.8545 -0.3376 -0.0193
   69SLPC  H12R 5895   6.373   4.032   9.283  1.1173 -0.6993 -2.5492
   69SLPC  C213 5896   6.216   4.057   9.142  0.8346 -0.6033 -0.4012
   69SLPC  H13R 5897   6.293   4.078   9.067  0.7182 -0.3542 -0.4511
   69SLPC  C214 5898   6.068   4.056   9.101 -0.1843  0.6622 -0.0076
   69SLPC  H14R 5899   6.041   4.158   9.065 -0.6150  0.4144 -0.4127
   69SLPC  H14S 5900   5.995   4.027   9.180 -0.9748  0.3893 -0.8115
   69SLPC  C215 5901   6.061   3.953   8.988 -0.1503  0.1558  0.2350
   69SLPC  H15R 5902   6.078   3.851   9.029 -3.0085 -0.2319  0.6606
   69SLPC  H15S 5903   6.139   3.978   8.913 -0.3657 -1.0003 -0.3941
   69SLPC  C216 5904   5.918   3.949   8.933 -0.2609 -0.1445  0.5730
   69SLPC  H16R 5905   5.892   4.050   8.897  1.5878  0.3716  0.5720
   69SLPC  H16S 5906   5.836   3.913   8.998 -1.1750  0.4850 -0.2057
   69SLPC  C217 5907   5.924   3.863   8.801  0.3192  0.1118  0.0347
   69SLPC  H17R 5908   5.907   3.755   8.821  2.3967 -0.3858 -0.6280
   69SLPC  H17S 5909   6.021   3.876   8.750  1.6532 -0.7276  2.2151
   69SLPC  C218 5910   5.811   3.912   8.708 -0.5220 -0.2295 -0.4572
   69SLPC  H18R 5911   5.839   4.014   8.672  0.1734 -1.1850 -2.8087
   69SLPC  H18S 5912   5.710   3.914   8.753 -1.5861 -0.0863 -2.6843
   69SLPC  H18T 5913   5.809   3.856   8.612 -0.8047 -1.9708  0.5219
   69SLPC   C33 5914   5.348   3.922  10.370 -0.4725  0.4076 -0.1503
   69SLPC   H3X 5915   5.256   3.982  10.351 -0.4205  0.4984 -0.1131
   69SLPC   H3Y 5916   5.338   3.882  10.473  0.6033  0.6320  0.0561
   69SLPC   C34 5917   5.366   3.802  10.270  0.5247 -0.3014  1.0601
   69SLPC   H4X 5918   5.289   3.734  10.311 -1.8337  2.6870  1.9828
   69SLPC   H4Y 5919   5.470   3.764  10.273  0.9485  0.8565  1.9665
   69SLPC   C35 5920   5.332   3.828  10.124  0.2813 -0.0133 -0.1024
   69SLPC   H5X 5921   5.396   3.909  10.084 -1.0534  1.6821  1.0185
   69SLPC   H5Y 5922   5.229   3.869  10.124  0.5699  0.7354 -0.0492
   69SLPC   C36 5923   5.329   3.695  10.041  0.8189 -0.5688 -1.0085
   69SLPC   H6X 5924   5.265   3.628  10.102 -0.3741 -2.1523 -3.7652
   69SLPC   H6Y 5925   5.433   3.657  10.035  0.4768 -1.4787 -1.4197
   69SLPC   C37 5926   5.284   3.702   9.899 -0.2331  0.4402  0.6256
   69SLPC   H7X 5927   5.366   3.755   9.846  0.0963 -0.9033 -0.2787
   69SLPC   H7Y 5928   5.189   3.759   9.889  0.5356  1.7762  0.6453
   69SLPC   C38 5929   5.274   3.569   9.824  0.5521 -0.3841  0.1053
   69SLPC   H8X 5930   5.187   3.508   9.857 -0.4876  0.7335 -0.4972
   69SLPC   H8Y 5931   5.375   3.528   9.846  0.1068 -1.5400  0.0674
   69SLPC   C39 5932   5.260   3.591   9.673  0.1380 -0.6857  0.6810
   69SLPC   H9X 5933   5.273   3.492   9.624 -1.5473 -1.4650  1.7323
   69SLPC   H9Y 5934   5.344   3.657   9.643 -1.4253  0.5414 -1.2765
   69SLPC  C310 5935   5.125   3.651   9.623  0.7978 -0.3193  0.1977
   69SLPC  H10X 5936   5.124   3.758   9.654 -2.7315 -0.6578  1.8066
   69SLPC  H10Y 5937   5.038   3.603   9.674 -1.5616  2.1337 -1.2182
   69SLPC  C311 5938   5.078   3.637   9.473  0.5748 -0.5158  0.2869
   69SLPC  H11X 5939   4.992   3.702   9.448  0.7641 -1.4023 -3.2820
   69SLPC  H11Y 5940   5.045   3.533   9.451 -0.7559 -0.0137 -0.2264
   69SLPC  C312 5941   5.196   3.672   9.374  0.6537  0.4975 -0.2255
   69SLPC  H12X 5942   5.272   3.591   9.379  1.2823  1.0860 -0.3119
   69SLPC  H12Y 5943   5.246   3.763   9.412  1.8146 -1.0377  2.2009
   69SLPC  C313 5944   5.143   3.686   9.236  0.3016  0.4300 -0.7355
   69SLPC  H13X 5945   5.058   3.757   9.226  1.1379  1.2843 -2.0835
   69SLPC  H13Y 5946   5.102   3.589   9.201  0.9035 -0.7341  1.5702
   69SLPC  C314 5947   5.254   3.729   9.132 -0.0957 -0.1978 -1.2687
   69SLPC  H14X 5948   5.277   3.829   9.175 -1.7177 -0.7088  1.0036
   69SLPC  H14Y 5949   5.210   3.736   9.031  2.3958 -0.5381 -2.4462
   69SLPC  C315 5950   5.373   3.640   9.123 -0.4606  0.5611 -0.2185
   69SLPC  H15X 5951   5.331   3.542   9.094 -1.1172  0.1551  1.8702
   69SLPC  H15Y 5952   5.426   3.627   9.220 -1.3524 -0.3480  0.1675
   69SLPC  C316 5953   5.485   3.689   9.030  0.4142  0.2112 -0.2523
   69SLPC  H16X 5954   5.508   3.794   9.059 -0.8983  0.3435  0.4155
   69SLPC  H16Y 5955   5.448   3.687   8.926  0.7560 -1.9105 -0.3833
   69SLPC  C317 5956   5.609   3.593   9.021 -0.1016 -0.3573  0.3571
   69SLPC  H17X 5957   5.678   3.624   9.102 -0.2924 -1.0522  0.7923
   69SLPC  H17Y 5958   5.667   3.608   8.928  0.5484  0.4257  0.8839
   69SLPC  C318 5959   5.584   3.443   9.021 -0.3497 -0.2625  0.3543
   69SLPC  H18X 5960   5.545   3.413   8.921 -1.7315 -1.5487  1.2327
   69SLPC  H18Y 5961   5.521   3.403   9.103 -1.0893  0.3187  0.0779
   69SLPC  H18Z 5962   5.681   3.391   9.041 -1.0069 -2.2798 -1.3155
   70SLPC     N 5963   0.023   1.170  11.022  0.7468  0.2658 -0.2124
   70SLPC   C13 5964   0.019   1.158  11.175 -0.6040  0.4755  0.7327
   70SLPC  H13A 5965   0.120   1.149  11.213 -0.7611  1.7952  1.5411
   70SLPC  H13B 5966  -0.046   1.236  11.211  0.6822  1.3492  1.2712
   70SLPC  H13C 5967  -0.034   1.067  11.196 -3.7495  1.3265 -2.5348
   70SLPC   C14 5968  -0.111   1.175  10.960  0.0534  0.0311 -0.1815
   70SLPC  H14A 5969  -0.162   1.269  10.970 -3.0124 -1.5766  0.5686
   70SLPC  H14B 5970  -0.095   1.169  10.853 -0.9772  1.5626 -0.4513
   70SLPC  H14C 5971  -0.178   1.094  10.983 -0.0634  0.4230  0.9280
   70SLPC   C15 5972   0.097   1.053  10.968 -0.3297  0.0794 -0.6585
   70SLPC  H15A 5973   0.044   0.959  10.969  0.0555 -0.1487  0.6210
   70SLPC  H15B 5974   0.114   1.077  10.864  0.8959  0.9363 -0.2828
   70SLPC  H15C 5975   0.192   1.041  11.019 -0.1177 -2.2748 -1.4454
   70SLPC   C12 5976   0.096   1.293  10.987  0.1351  0.6014 -0.2459
   70SLPC  H12A 5977   0.196   1.288  11.027  0.0919  0.4849 -0.1530
   70SLPC  H12B 5978   0.044   1.378  11.030 -1.2821 -1.0906  1.6164
   70SLPC   C11 5979   0.110   1.342  10.839 -0.1114  0.1291 -0.1586
   70SLPC  H11A 5980   0.138   1.450  10.840  4.2925 -0.8250  0.2929
   70SLPC  H11B 5981   0.016   1.335  10.780  0.7560 -1.7499 -1.3905
   70SLPC     P 5982   0.359   1.325  10.788 -0.3028 -0.2903 -0.1369
   70SLPC   O13 5983   0.380   1.372  10.934  0.1321  0.6982  0.8145
   70SLPC   O14 5984   0.461   1.228  10.741 -0.5689  0.2801  0.0026
   70SLPC   O12 5985   0.216   1.264  10.779  0.2624  0.0337 -0.0726
   70SLPC   O11 5986   0.366   1.453  10.696  0.1037 -0.0387  0.3332
   70SLPC    C1 5987   0.273   1.506  10.607 -0.3161  0.3047  0.9300
   70SLPC    HA 5988   0.170   1.482  10.643  0.6673 -0.4674  3.4541
   70SLPC    HB 5989   0.278   1.616  10.614 -0.2896  0.3248  0.6155
   70SLPC    C2 5990   0.276   1.446  10.461 -0.1569 -0.4425 -0.1434
   70SLPC    HS 5991   0.225   1.347  10.458 -1.1512 -0.0871  2.6073
   70SLPC   O21 5992   0.413   1.425  10.431 -0.0017  0.5059  0.1953
   70SLPC   C21 5993   0.448   1.321  10.349  0.2528  0.4589 -0.4095
   70SLPC   O22 5994   0.366   1.242  10.302 -0.2695 -0.1406  0.2139
   70SLPC   C22 5995   0.601   1.314  10.339  0.4649 -0.0400  0.3465
   70SLPC   H2R 5996   0.633   1.419  10.320  0.9047  0.0230  1.3850
   70SLPC   H2S 5997   0.647   1.290  10.437 -0.8118 -0.9487  0.7509
   70SLPC    C3 5998   0.217   1.546  10.356 -0.2443  0.1198  0.5044
   70SLPC    HX 5999   0.278   1.639  10.367 -2.3390  1.4612  1.3076
   70SLPC    HY 6000   0.112   1.577  10.376 -1.3549 -3.0988  0.2793
   70SLPC   O31 6001   0.230   1.500  10.219  0.4199  0.3220  0.1777
   70SLPC   C31 6002   0.139   1.410  10.187  0.7882  0.0065  0.6538
   70SLPC   O32 6003   0.049   1.361  10.254 -0.4467  0.2945 -0.1544
   70SLPC   C32 6004   0.176   1.378  10.039 -0.3848  0.3475 -0.0733
   70SLPC   H2X 6005   0.285   1.358  10.037 -0.3635  0.4886 -1.3999
   70SLPC   H2Y 6006   0.162   1.473   9.983  0.9074  0.9584  0.6092
   70SLPC   C23 6007   0.653   1.212  10.225  0.1007 -0.1514  0.2995
   70SLPC   H3R 6008   0.601   1.115  10.238 -1.6098  0.5172 -1.1157
   70SLPC   H3S 6009   0.762   1.215  10.246  0.0649  1.7069  0.4171
   70SLPC   C24 6010   0.643   1.265  10.082  0.1000 -0.0412  0.2470
   70SLPC   H4R 6011   0.714   1.350  10.072 -0.7141  0.9058  2.0118
   70SLPC   H4S 6012   0.539   1.300  10.069  0.0143 -0.6548 -0.9071
   70SLPC   C25 6013   0.685   1.164   9.970 -0.5037 -0.2605 -0.5885
   70SLPC   H5R 6014   0.617   1.076   9.969  0.2497 -1.0020  2.6469
   70SLPC   H5S 6015   0.785   1.127   9.999 -0.7687 -2.8065 -2.6380
   70SLPC   C26 6016   0.701   1.230   9.828  0.6274  0.1088 -0.4680
   70SLPC   H6R 6017   0.729   1.145   9.762  0.6400  1.9625 -3.0010
   70SLPC   H6S 6018   0.784   1.303   9.825 -0.2131  1.1312 -3.9421
   70SLPC   C27 6019   0.579   1.309   9.783  0.3322  0.1694 -0.1014
   70SLPC   H7R 6020   0.591   1.411   9.824  1.8058 -0.7160  1.7653
   70SLPC   H7S 6021   0.492   1.265   9.836  1.1640  0.3456  1.4458
   70SLPC   C28 6022   0.543   1.285   9.635  1.1379  0.7491  0.6045
   70SLPC   H8R 6023   0.436   1.311   9.623  0.9138 -0.6460 -0.7355
   70SLPC   H8S 6024   0.543   1.175   9.621 -2.1738  0.3690  2.6117
   70SLPC   C29 6025   0.636   1.343   9.532 -0.2572 -0.0466 -0.1150
   70SLPC   H9R 6026   0.740   1.354   9.567 -0.1992  0.1707 -0.3470
   70SLPC  C210 6027   0.617   1.382   9.404  0.9367 -0.0369 -0.6285
   70SLPC  H10R 6028   0.703   1.399   9.338 -0.4784 -0.3126 -2.6241
   70SLPC  C211 6029   0.486   1.375   9.334 -0.0351  0.0278  0.1758
   70SLPC  H11R 6030   0.397   1.373   9.401  0.2263  0.6393  0.5524
   70SLPC  H11S 6031   0.483   1.283   9.271 -0.5204  1.0186 -1.3083
   70SLPC  C212 6032   0.469   1.496   9.241 -0.0563 -0.5752 -0.4933
   70SLPC  H12R 6033   0.460   1.593   9.292  1.6324 -0.8930  0.4791
   70SLPC  C213 6034   0.465   1.494   9.104  0.9378  0.1018  0.1766
   70SLPC  H13R 6035   0.435   1.591   9.061  0.7811 -0.1509 -0.2873
   70SLPC  C214 6036   0.476   1.379   9.009 -0.4611  0.1142 -0.0235
   70SLPC  H14R 6037   0.404   1.393   8.926 -1.6812 -0.6843  0.8773
   70SLPC  H14S 6038   0.439   1.287   9.058 -2.2343  1.5184  1.4033
   70SLPC  C215 6039   0.627   1.361   8.981  0.7498 -0.1471  0.3581
   70SLPC  H15R 6040   0.677   1.337   9.077  0.6159 -1.1785  0.1862
   70SLPC  H15S 6041   0.655   1.460   8.940 -0.6006 -0.5714 -1.7667
   70SLPC  C216 6042   0.652   1.262   8.873 -0.3423  0.1984  0.8322
   70SLPC  H16R 6043   0.593   1.268   8.779 -1.2515  0.2643  1.3965
   70SLPC  H16S 6044   0.634   1.159   8.912 -0.1378 -1.0162 -2.0431
   70SLPC  C217 6045   0.804   1.268   8.824 -0.0542 -0.6249  0.1275
   70SLPC  H17R 6046   0.857   1.248   8.919 -0.8322  0.1465  0.7440
   70SLPC  H17S 6047   0.820   1.375   8.799  0.8328  0.1385  3.4790
   70SLPC  C218 6048   0.850   1.174   8.718 -0.0606 -0.4065  0.0491
   70SLPC  H18R 6049   0.841   1.068   8.750  1.1854 -1.6761 -3.3260
   70SLPC  H18S 6050   0.954   1.192   8.685  0.6329 -1.3946  1.5897
   70SLPC  H18T 6051   0.779   1.174   8.632  0.9625  0.5232 -0.8274
   70SLPC   C33 6052   0.095   1.251   9.993  0.4674 -0.3015 -0.2929
   70SLPC   H3X 6053  -0.012   1.282   9.985  0.9411  1.3153 -0.8026
   70SLPC   H3Y 6054   0.105   1.163  10.059  0.3596 -0.5779 -0.6425
   70SLPC   C34 6055   0.123   1.210   9.852 -0.1282 -0.5684 -0.2074
   70SLPC   H4X 6056   0.220   1.155   9.858 -0.9954 -2.0520  1.2703
   70SLPC   H4Y 6057   0.139   1.299   9.788 -0.7146  0.6328  1.2797
   70SLPC   C35 6058   0.018   1.124   9.782 -0.0956 -0.6719  0.6296
   70SLPC   H5X 6059  -0.082   1.171   9.778  1.3825  2.7291  0.4470
   70SLPC   H5Y 6060   0.002   1.031   9.842  1.1590  0.1715  2.3389
   70SLPC   C36 6061   0.042   1.087   9.636  0.2129  0.0051  0.1067
   70SLPC   H6X 6062   0.038   0.979   9.613 -1.1231 -0.3850  1.9815
   70SLPC   H6Y 6063   0.145   1.121   9.610 -1.0930  2.6913 -2.1765
   70SLPC   C37 6064  -0.052   1.157   9.542  0.1267  0.5450  0.7398
   70SLPC   H7X 6065  -0.057   1.262   9.578 -0.8937  0.9281 -0.4330
   70SLPC   H7Y 6066  -0.158   1.125   9.547 -0.6386  2.4163 -1.7196
   70SLPC   C38 6067  -0.027   1.142   9.390 -0.0955 -0.2696  0.1781
   70SLPC   H8X 6068  -0.129   1.143   9.345  0.7150  0.7975 -1.7838
   70SLPC   H8Y 6069   0.018   1.045   9.359 -0.0898  0.3155 -1.8084
   70SLPC   C39 6070   0.054   1.260   9.318 -0.7049 -0.1713 -0.2452
   70SLPC   H9X 6071   0.161   1.241   9.342 -1.1521 -0.8700  1.2837
   70SLPC   H9Y 6072   0.038   1.355   9.372  0.4201 -1.0838  1.8134
   70SLPC  C310 6073   0.030   1.268   9.173  0.3461  0.4307 -0.1027
   70SLPC  H10X 6074   0.039   1.372   9.135 -1.2915  0.4099 -0.6334
   70SLPC  H10Y 6075  -0.080   1.270   9.156  0.2846  1.8280  0.2915
   70SLPC  C311 6076   0.111   1.171   9.088  0.0735  0.1460 -0.8617
   70SLPC  H11X 6077   0.069   1.076   9.128 -3.3627  1.7903 -0.2525
   70SLPC  H11Y 6078   0.222   1.165   9.099  0.0738 -1.3474 -1.4275
   70SLPC  C312 6079   0.078   1.165   8.935  0.1959  0.5948 -0.6643
   70SLPC  H12X 6080   0.112   1.257   8.884  0.2673  1.0259  0.1443
   70SLPC  H12Y 6081  -0.033   1.165   8.930  0.0615  0.1567  1.2881
   70SLPC  C313 6082   0.136   1.044   8.859  0.7255 -0.0088  0.0437
   70SLPC  H13X 6083   0.102   1.049   8.753  0.7686 -1.6902 -0.0906
   70SLPC  H13Y 6084   0.087   0.964   8.919  0.1267 -0.0750 -0.5185
   70SLPC  C314 6085   0.288   1.020   8.863 -0.2310  0.2774 -0.0188
   70SLPC  H14X 6086   0.320   0.994   8.966  0.6117  0.2402 -0.2855
   70SLPC  H14Y 6087   0.348   1.111   8.841  0.5834  0.0321  1.0815
   70SLPC  C315 6088   0.342   0.917   8.764 -0.3636  0.4470 -0.0591
   70SLPC  H15X 6089   0.284   0.944   8.673 -1.5687 -0.4061  0.4313
   70SLPC  H15Y 6090   0.324   0.810   8.791  0.9429  0.5466  1.3785
   70SLPC  C316 6091   0.492   0.927   8.738 -1.2532  0.2905 -0.3844
   70SLPC  H16X 6092   0.555   0.904   8.827  0.9787  0.2690 -1.8744
   70SLPC  H16Y 6093   0.529   1.028   8.711  2.1033 -0.7148 -0.0448
   70SLPC  C317 6094   0.545   0.839   8.623 -0.1160 -0.4708 -0.1548
   70SLPC  H17X 6095   0.506   0.865   8.523 -2.9720 -1.8618  0.4819
   70SLPC  H17Y 6096   0.491   0.745   8.651 -1.3933  0.8774  2.2785
   70SLPC  C318 6097   0.695   0.829   8.609  0.5613  0.5748 -0.3220
   70SLPC  H18X 6098   0.722   0.779   8.514  1.2168  1.1105 -0.4240
   70SLPC  H18Y 6099   0.743   0.772   8.691  1.9030  0.5841 -1.0776
   70SLPC  H18Z 6100   0.735   0.933   8.606  1.4144  0.3156  1.2799
   71SLPC     N 6101   6.402   0.359  10.846  0.0300 -0.3942  0.3498
   71SLPC   C13 6102   6.336   0.452  10.746 -0.1585  0.1492 -0.8524
   71SLPC  H13A 6103   6.386   0.444  10.650  1.1022  1.3034 -0.3198
   71SLPC  H13B 6104   6.232   0.426  10.731 -0.2978  0.8339 -1.1185
   71SLPC  H13C 6105   6.335   0.555  10.778  1.5234  0.7395 -2.4859
   71SLPC   C14 6106   6.317   0.362  10.974 -0.6502  0.0201 -0.3444
   71SLPC  H14A 6107   6.219   0.337  10.938 -0.4856  1.4124 -1.8759
   71SLPC  H14B 6108   6.358   0.280  11.031 -1.8312  0.1537  0.7516
   71SLPC  H14C 6109   6.312   0.457  11.026 -1.3961  0.1652 -0.6770
   71SLPC   C15 6110   6.542   0.390  10.895  0.1650  0.5823  0.9878
   71SLPC  H15A 6111   6.574   0.315  10.967  0.0250 -0.8718 -0.4184
   71SLPC  H15B 6112   6.612   0.382  10.813 -0.0674  0.7938  0.7679
   71SLPC  H15C 6113   6.551   0.490  10.935 -2.2595  1.3292 -0.2030
   71SLPC   C12 6114   6.401   0.219  10.791 -0.2338 -0.4168 -0.6382
   71SLPC  H12A 6115   6.300   0.189  10.766 -0.5426 -0.4529  0.5659
   71SLPC  H12B 6116   6.422   0.151  10.873 -0.9111 -0.9090 -0.8675
   71SLPC   C11 6117   6.502   0.195  10.670  0.7711  0.3427 -0.0400
   71SLPC  H11A 6118   6.495   0.285  10.606  2.5901  1.8671  1.7408
   71SLPC  H11B 6119   6.472   0.106  10.610 -1.1217  1.0064 -0.1489
   71SLPC     P 6120   6.703   0.079  10.793 -0.0508  0.0921 -0.3972
   71SLPC   O13 6121   6.829   0.130  10.865  0.0023 -0.7014  0.2397
   71SLPC   O14 6122   6.603   0.022  10.880  0.3434  0.0775 -0.0954
   71SLPC   O12 6123   6.639   0.193  10.709 -0.4855  0.0983 -0.2787
   71SLPC   O11 6124   6.743  -0.025  10.679  0.0202  0.0030 -0.5392
   71SLPC    C1 6125   6.809   0.022  10.562  0.3431  0.2014 -0.5645
   71SLPC    HA 6126   6.813   0.133  10.564 -2.4463  0.4062  1.8933
   71SLPC    HB 6127   6.910  -0.024  10.554  0.7552  0.5307  1.8713
   71SLPC    C2 6128   6.733  -0.017  10.431 -0.3940  0.3703 -0.1356
   71SLPC    HS 6129   6.627   0.019  10.434 -0.7001 -0.4610 -0.6861
   71SLPC   O21 6130   6.743  -0.161  10.416 -0.3689 -0.1077 -0.1856
   71SLPC   C21 6131   6.655  -0.210  10.338 -0.4273  0.4870 -0.1286
   71SLPC   O22 6132   6.579  -0.144  10.269  0.1147 -0.3598  0.7432
   71SLPC   C22 6133   6.647  -0.363  10.347 -0.2240 -0.6341  0.0758
   71SLPC   H2R 6134   6.655  -0.388  10.455 -0.6064 -0.7291  0.0844
   71SLPC   H2S 6135   6.547  -0.398  10.314 -0.0575 -2.0141  0.9403
   71SLPC    C3 6136   6.805   0.049  10.310 -0.3616  0.9834  0.3443
   71SLPC    HX 6137   6.760   0.031  10.210  1.6084  1.0875 -0.5955
   71SLPC    HY 6138   6.907   0.007  10.307 -0.4626  0.7815 -0.4423
   71SLPC   O31 6139   6.832   0.193  10.328  0.2271  0.5107  0.0780
   71SLPC   C31 6140   6.730   0.271  10.301  0.8375  0.2867  0.0783
   71SLPC   O32 6141   6.612   0.231  10.291  0.1488  0.2324  0.0516
   71SLPC   C32 6142   6.781   0.412  10.271 -0.4407  0.2447 -0.0061
   71SLPC   H2X 6143   6.891   0.415  10.282 -0.4789 -0.0228  0.4562
   71SLPC   H2Y 6144   6.742   0.472  10.355  2.0022  0.8008  0.8146
   71SLPC   C23 6145   6.764  -0.431  10.268  0.6704 -0.3513 -0.0309
   71SLPC   H3R 6146   6.764  -0.540  10.286  2.1978 -0.3253  0.3048
   71SLPC   H3S 6147   6.861  -0.394  10.309  0.4346  0.9384 -0.5977
   71SLPC   C24 6148   6.747  -0.421  10.118 -0.2217  0.0213 -0.0137
   71SLPC   H4R 6149   6.736  -0.313  10.094  0.6137 -0.0291 -0.6971
   71SLPC   H4S 6150   6.651  -0.463  10.082  0.5218 -1.1693 -0.6796
   71SLPC   C25 6151   6.866  -0.478  10.039  0.1055 -0.2883  0.1704
   71SLPC   H5R 6152   6.857  -0.589  10.028  0.2264 -0.2373 -0.4812
   71SLPC   H5S 6153   6.957  -0.456  10.099  1.1486 -0.7721 -1.1720
   71SLPC   C26 6154   6.893  -0.431   9.897  0.2653 -1.2532 -0.0009
   71SLPC   H6R 6155   6.918  -0.323   9.906 -1.1388 -1.0301  1.7370
   71SLPC   H6S 6156   6.796  -0.443   9.844 -0.1618 -1.2833  0.7730
   71SLPC   C27 6157   6.997  -0.513   9.826 -1.4430 -0.2590  0.9107
   71SLPC   H7R 6158   6.952  -0.606   9.787  0.3507  0.0271 -2.1721
   71SLPC   H7S 6159   7.071  -0.546   9.902 -2.0401 -0.9095  1.2165
   71SLPC   C28 6160   7.041  -0.440   9.705 -0.2907 -0.2827  0.4871
   71SLPC   H8R 6161   7.090  -0.341   9.722 -0.0112 -0.0555 -1.3866
   71SLPC   H8S 6162   6.945  -0.422   9.651  0.5925 -0.6651 -1.2945
   71SLPC   C29 6163   7.136  -0.529   9.622  0.2361 -0.9070  0.2151
   71SLPC   H9R 6164   7.212  -0.583   9.682  2.1838  1.8652  0.4071
   71SLPC  C210 6165   7.133  -0.557   9.488  1.3157  0.6322  0.2336
   71SLPC  H10R 6166   7.208  -0.623   9.441  0.8428  0.1221  0.1934
   71SLPC  C211 6167   7.038  -0.493   9.390  0.6342 -0.4112  0.1339
   71SLPC  H11R 6168   6.985  -0.406   9.436 -0.9149 -1.3560  0.1960
   71SLPC  H11S 6169   6.958  -0.564   9.360 -1.0034  1.3543  0.1283
   71SLPC  C212 6170   7.111  -0.448   9.265  0.4133  0.6850  0.4865
   71SLPC  H12R 6171   7.195  -0.381   9.288 -0.0273  1.2529  0.4941
   71SLPC  C213 6172   7.091  -0.479   9.132 -0.2136  0.3694 -0.7435
   71SLPC  H13R 6173   7.159  -0.432   9.060 -1.4701 -0.7105 -2.7347
   71SLPC  C214 6174   6.989  -0.566   9.063  0.5100  0.1513 -0.4478
   71SLPC  H14R 6175   6.900  -0.578   9.128  1.8020 -1.2686  1.1266
   71SLPC  H14S 6176   7.027  -0.668   9.043 -0.9740 -0.9140  1.7593
   71SLPC  C215 6177   6.949  -0.510   8.921 -0.2683 -0.1911 -0.2192
   71SLPC  H15R 6178   7.031  -0.464   8.861 -0.6372 -0.7709 -1.1927
   71SLPC  H15S 6179   6.880  -0.427   8.946  0.9398  0.4833  1.0558
   71SLPC  C216 6180   6.878  -0.606   8.827 -0.1018  0.5160 -0.2391
   71SLPC  H16R 6181   6.784  -0.652   8.864 -1.1125  2.0271 -0.7994
   71SLPC  H16S 6182   6.946  -0.691   8.807 -0.3071  0.2889  0.0315
   71SLPC  C217 6183   6.864  -0.554   8.678  0.1698  0.4522 -0.4203
   71SLPC  H17R 6184   6.971  -0.544   8.650  0.8643 -1.0814  1.4823
   71SLPC  H17S 6185   6.815  -0.455   8.669  2.5544  1.7718  0.4571
   71SLPC  C218 6186   6.794  -0.655   8.587 -0.3226  0.4299 -0.2150
   71SLPC  H18R 6187   6.685  -0.644   8.605 -0.4285 -0.9772  0.1743
   71SLPC  H18S 6188   6.820  -0.758   8.619 -0.2807  0.5404  0.1147
   71SLPC  H18T 6189   6.829  -0.644   8.482 -0.3094 -0.4872 -0.3172
   71SLPC   C33 6190   6.738   0.459  10.132  1.4516 -0.3017  0.2815
   71SLPC   H3X 6191   6.775   0.562  10.110 -0.3822  0.1580 -0.9024
   71SLPC   H3Y 6192   6.631   0.445  10.106  1.8624  1.3085 -2.8202
   71SLPC   C34 6193   6.810   0.391  10.020  0.0282  0.5110  0.6271
   71SLPC   H4X 6194   6.795   0.281  10.028 -3.0370  0.6455 -1.3869
   71SLPC   H4Y 6195   6.918   0.409  10.035  0.2681 -2.1247  2.8435
   71SLPC   C35 6196   6.778   0.443   9.878 -0.5411 -0.7582 -0.7975
   71SLPC   H5X 6197   6.799   0.552   9.875 -0.7897 -0.5994  1.4600
   71SLPC   H5Y 6198   6.670   0.420   9.865 -0.8112  0.2895 -0.5098
   71SLPC   C36 6199   6.859   0.371   9.766 -0.0023 -0.3681 -0.7920
   71SLPC   H6X 6200   6.839   0.265   9.792  1.3659 -0.3607  0.4278
   71SLPC   H6Y 6201   6.969   0.383   9.776  0.3213 -3.4647  0.7763
   71SLPC   C37 6202   6.801   0.401   9.627 -1.3049  0.0143 -0.4480
   71SLPC   H7X 6203   6.811   0.508   9.596 -3.2689  0.1018 -0.8696
   71SLPC   H7Y 6204   6.693   0.381   9.642 -0.7687 -1.2638  2.3548
   71SLPC   C38 6205   6.857   0.311   9.520 -0.1875  0.1620 -0.4155
   71SLPC   H8X 6206   6.861   0.207   9.559  0.9373  0.8030  1.3029
   71SLPC   H8Y 6207   6.963   0.342   9.508  0.6251 -1.2863  2.2147
   71SLPC   C39 6208   6.785   0.328   9.392 -1.0079  0.1864  0.6133
   71SLPC   H9X 6209   6.783   0.438   9.377 -0.4623  0.1986  0.6003
   71SLPC   H9Y 6210   6.681   0.295   9.406 -1.3954  0.3334 -1.4922
   71SLPC  C310 6211   6.855   0.245   9.282 -0.0310  0.3499 -0.4048
   71SLPC  H10X 6212   6.856   0.136   9.303 -1.0792  0.4526  0.2624
   71SLPC  H10Y 6213   6.958   0.284   9.267 -0.1815  1.2548  0.7464
   71SLPC  C311 6214   6.777   0.276   9.152  0.8202  1.0502  0.5754
   71SLPC  H11X 6215   6.773   0.385   9.130  0.9595  0.9669  0.1152
   71SLPC  H11Y 6216   6.670   0.248   9.160  0.7221  1.0598 -0.4600
   71SLPC  C312 6217   6.839   0.197   9.033 -0.1065 -0.5075  1.0202
   71SLPC  H12X 6218   6.858   0.092   9.063 -0.5272 -1.1763 -0.9296
   71SLPC  H12Y 6219   6.933   0.249   9.004  0.0186 -0.9170  0.6884
   71SLPC  C313 6220   6.765   0.188   8.901  0.2459  0.7965  0.0478
   71SLPC  H13X 6221   6.660   0.160   8.925  0.0547  1.1256 -0.3922
   71SLPC  H13Y 6222   6.813   0.111   8.837 -3.0951  0.5172 -2.3708
   71SLPC  C314 6223   6.788   0.318   8.824  0.0954  0.1927 -0.7867
   71SLPC  H14X 6224   6.898   0.333   8.817  0.0044  2.8926  1.6747
   71SLPC  H14Y 6225   6.757   0.404   8.887 -1.6969 -1.0531  0.1245
   71SLPC  C315 6226   6.712   0.332   8.688  0.1070 -0.8612  0.8818
   71SLPC  H15X 6227   6.719   0.231   8.640  0.5811 -0.3935 -0.0612
   71SLPC  H15Y 6228   6.747   0.408   8.615 -0.8297 -0.6756  0.6061
   71SLPC  C316 6229   6.563   0.375   8.722 -0.4024 -0.3118  0.2458
   71SLPC  H16X 6230   6.558   0.463   8.789 -0.8570 -0.3647  0.2901
   71SLPC  H16Y 6231   6.519   0.293   8.783  1.5122 -0.9273  0.8616
   71SLPC  C317 6232   6.476   0.401   8.600 -0.1612  1.2326  0.0155
   71SLPC  H17X 6233   6.379   0.417   8.651 -0.9748 -1.2625 -0.6029
   71SLPC  H17Y 6234   6.461   0.308   8.541  0.2668  1.6293 -0.7392
   71SLPC  C318 6235   6.495   0.522   8.508 -0.3991 -0.2532 -0.2374
   71SLPC  H18X 6236   6.513   0.617   8.563  1.5426 -0.4657 -0.4394
   71SLPC  H18Y 6237   6.402   0.523   8.446  0.4527 -2.6768 -1.6474
   71SLPC  H18Z 6238   6.578   0.504   8.437  0.0839 -2.4478  0.8037
   72SLPC     N 6239   0.431   4.232  10.959 -0.6596  0.2717 -0.6410
   72SLPC   C13 6240   0.495   4.136  11.058  0.2230 -0.0079  0.0991
   72SLPC  H13A 6241   0.553   4.188  11.134  0.2820 -0.2296  0.2050
   72SLPC  H13B 6242   0.422   4.071  11.104 -0.3111 -0.7239 -1.6930
   72SLPC  H13C 6243   0.564   4.071  11.008  0.4613 -0.2523  0.7336
   72SLPC   C14 6244   0.352   4.332  11.043 -0.2583  0.5711  0.3065
   72SLPC  H14A 6245   0.403   4.374  11.128 -0.5904  0.4933  0.5462
   72SLPC  H14B 6246   0.298   4.404  10.983  0.1152  0.6602  0.0692
   72SLPC  H14C 6247   0.279   4.269  11.091 -0.5052  0.3314 -0.3656
   72SLPC   C15 6248   0.338   4.159  10.866 -0.0614  0.7734 -0.4039
   72SLPC  H15A 6249   0.398   4.108  10.792 -1.2243 -0.5120 -0.5008
   72SLPC  H15B 6250   0.283   4.081  10.917 -0.4783  0.2469 -1.6095
   72SLPC  H15C 6251   0.270   4.223  10.811 -0.1316  3.6504  2.6816
   72SLPC   C12 6252   0.546   4.298  10.887  0.5196 -0.1724 -0.3089
   72SLPC  H12A 6253   0.593   4.220  10.829 -0.3925  0.9288 -2.6396
   72SLPC  H12B 6254   0.618   4.352  10.947 -1.1962  1.7126  0.1577
   72SLPC   C11 6255   0.501   4.389  10.776  0.1299 -0.2885  0.6036
   72SLPC  H11A 6256   0.440   4.336  10.699  1.3079  1.1721 -1.4205
   72SLPC  H11B 6257   0.589   4.422  10.718 -0.4028  1.0024  0.4947
   72SLPC     P 6258   0.496   4.644  10.855 -0.1813 -0.1336 -0.0535
   72SLPC   O13 6259   0.397   4.718  10.936  0.2021  0.4105 -0.5142
   72SLPC   O14 6260   0.629   4.623  10.910 -0.7532  0.0685  0.1263
   72SLPC   O12 6261   0.441   4.500  10.834 -0.0706 -0.6688 -0.5576
   72SLPC   O11 6262   0.502   4.715  10.715  0.5773  0.2789 -0.0091
   72SLPC    C1 6263   0.400   4.699  10.619  0.2604 -0.3122 -0.8938
   72SLPC    HA 6264   0.412   4.607  10.557  1.3069 -0.2695 -0.7757
   72SLPC    HB 6265   0.302   4.721  10.665  1.0987  1.9815 -0.0830
   72SLPC    C2 6266   0.423   4.802  10.504  0.4647 -0.2071  1.4074
   72SLPC    HS 6267   0.403   4.902  10.549 -1.6745  0.1994 -0.2667
   72SLPC   O21 6268   0.323   4.789  10.397 -0.4026  0.1460  0.0829
   72SLPC   C21 6269   0.275   4.897  10.343 -0.6293 -0.3218  0.2126
   72SLPC   O22 6270   0.302   5.009  10.381  0.0315  0.4308  1.1458
   72SLPC   C22 6271   0.180   4.869  10.220 -0.2061 -0.0008 -0.2055
   72SLPC   H2R 6272   0.158   4.760  10.224 -0.7652  0.1246  0.3363
   72SLPC   H2S 6273   0.088   4.926  10.245 -0.0633  0.4891 -0.7889
   72SLPC    C3 6274   0.561   4.784  10.448  0.2977  0.1953 -0.7548
   72SLPC    HX 6275   0.560   4.677  10.419  0.5452 -0.6725  2.1437
   72SLPC    HY 6276   0.635   4.794  10.531 -1.3365  0.7074  0.7001
   72SLPC   O31 6277   0.591   4.871  10.334  0.1920  0.2412 -0.1094
   72SLPC   C31 6278   0.628   4.994  10.374  0.3079  0.1806  1.3509
   72SLPC   O32 6279   0.626   5.030  10.490  0.1016 -0.1308 -0.3191
   72SLPC   C32 6280   0.654   5.082  10.255 -0.4836 -0.4367  0.1655
   72SLPC   H2X 6281   0.598   5.176  10.278 -0.7928 -0.2724 -1.1683
   72SLPC   H2Y 6282   0.626   5.040  10.156  0.9211 -1.7184  0.2878
   72SLPC   C23 6283   0.232   4.912  10.088 -0.7357  0.1539  0.3398
   72SLPC   H3R 6284   0.336   4.883  10.062 -0.6854  1.7375 -1.4430
   72SLPC   H3S 6285   0.236   5.023  10.091 -1.3241  0.2483 -1.3930
   72SLPC   C24 6286   0.123   4.875   9.988  0.4466  0.1705 -0.8452
   72SLPC   H4R 6287   0.019   4.882  10.027 -0.2121 -0.5902 -2.3574
   72SLPC   H4S 6288   0.143   4.770   9.957 -0.3546 -0.8158  1.7284
   72SLPC   C25 6289   0.125   4.966   9.865 -0.4807  0.3960 -0.7881
   72SLPC   H5R 6290   0.126   5.076   9.883 -0.0332  0.5292 -1.5760
   72SLPC   H5S 6291   0.031   4.947   9.809 -0.3779 -1.2347 -0.4463
   72SLPC   C26 6292   0.240   4.929   9.769 -0.3224 -0.5088  0.5700
   72SLPC   H6R 6293   0.235   4.821   9.744  1.1313 -0.4836  0.0859
   72SLPC   H6S 6294   0.331   4.924   9.833  1.1240 -0.9102 -1.4069
   72SLPC   C27 6295   0.252   5.002   9.638  1.0287  0.1261  0.6700
   72SLPC   H7R 6296   0.346   4.985   9.580 -0.6355  0.8470 -2.4916
   72SLPC   H7S 6297   0.255   5.112   9.652 -1.8168  0.3794 -0.0294
   72SLPC   C28 6298   0.127   4.982   9.548  0.8052 -0.4216 -0.5581
   72SLPC   H8R 6299   0.031   4.994   9.603  0.4748 -0.4674 -1.1179
   72SLPC   H8S 6300   0.130   4.876   9.516  2.3818 -0.5717 -0.0099
   72SLPC   C29 6301   0.140   5.076   9.432  0.5419 -0.1571 -0.2727
   72SLPC   H9R 6302   0.150   5.182   9.461  4.0651 -0.4242  0.0430
   72SLPC  C210 6303   0.131   5.047   9.303 -0.0798 -0.3819  0.0461
   72SLPC  H10R 6304   0.139   5.130   9.231  3.5188 -1.8211 -1.4462
   72SLPC  C211 6305   0.110   4.909   9.247 -0.2752 -0.3444  0.1386
   72SLPC  H11R 6306   0.012   4.920   9.196  0.7219 -1.3943 -2.1409
   72SLPC  H11S 6307   0.114   4.822   9.317 -0.4295 -0.9935 -0.6380
   72SLPC  C212 6308   0.209   4.870   9.145 -0.0513  0.2695  0.3090
   72SLPC  H12R 6309   0.308   4.865   9.192 -0.0637  1.1823  0.4401
   72SLPC  C213 6310   0.196   4.852   9.012 -0.3099 -0.2079 -0.2559
   72SLPC  H13R 6311   0.280   4.814   8.953 -1.0090  0.9368 -2.0766
   72SLPC  C214 6312   0.073   4.873   8.926  0.8685 -0.3490 -0.1365
   72SLPC  H14R 6313   0.036   4.977   8.916  1.3078 -0.1037  0.6556
   72SLPC  H14S 6314  -0.005   4.803   8.963  2.6526 -2.5987 -0.3816
   72SLPC  C215 6315   0.120   4.822   8.788 -0.2045  0.4364 -0.2802
   72SLPC  H15R 6316   0.164   4.721   8.795 -0.4517  0.3556  0.2152
   72SLPC  H15S 6317   0.195   4.887   8.739 -0.3600 -0.4757 -1.7572
   72SLPC  C216 6318   0.011   4.824   8.686  0.1859 -0.9271 -0.1493
   72SLPC  H16R 6319  -0.011   4.933   8.681 -0.6596 -0.9376  2.3908
   72SLPC  H16S 6320  -0.071   4.765   8.731  1.4852 -2.5911  0.0946
   72SLPC  C217 6321   0.068   4.771   8.556 -0.0012 -0.0928 -0.2442
   72SLPC  H17R 6322   0.104   4.671   8.591  1.5032  0.4194 -0.2710
   72SLPC  H17S 6323   0.151   4.832   8.515  0.0580 -0.9122 -1.4009
   72SLPC  C218 6324  -0.041   4.752   8.438  0.1727 -0.1072 -0.2917
   72SLPC  H18R 6325  -0.136   4.704   8.470 -0.5044 -0.5334 -2.7674
   72SLPC  H18S 6326   0.006   4.682   8.367  0.6323  0.7439 -0.8343
   72SLPC  H18T 6327  -0.066   4.852   8.397 -1.6195 -0.1076  0.6696
   72SLPC   C33 6328   0.800   5.141  10.234  0.8607  0.0337  0.1105
   72SLPC   H3X 6329   0.836   5.158  10.338  0.4550  1.9641 -0.0215
   72SLPC   H3Y 6330   0.800   5.240  10.184  3.3941 -0.3845 -0.8407
   72SLPC   C34 6331   0.885   5.036  10.166 -0.1487  0.6177  0.0302
   72SLPC   H4X 6332   0.857   4.935  10.203 -1.0081  1.3335  1.4583
   72SLPC   H4Y 6333   0.989   5.070  10.183  0.6335 -0.6463 -2.0011
   72SLPC   C35 6334   0.859   5.032  10.019 -0.9089  0.8068  0.4274
   72SLPC   H5X 6335   0.906   5.124   9.980 -0.2967 -0.6427 -2.5334
   72SLPC   H5Y 6336   0.752   5.043   9.989 -2.0649 -0.0375  3.7302
   72SLPC   C36 6337   0.928   4.919   9.948 -0.1697 -0.6172  0.5803
   72SLPC   H6X 6338   0.885   4.825   9.988  0.1579 -0.3274  1.6411
   72SLPC   H6Y 6339   1.031   4.915   9.988  0.4587 -2.7177 -1.0673
   72SLPC   C37 6340   0.930   4.938   9.797  0.7990  0.8809 -0.4970
   72SLPC   H7X 6341   0.981   5.032   9.768  1.0185 -0.2953 -4.5840
   72SLPC   H7Y 6342   0.826   4.941   9.760  0.2086  2.2371  1.1542
   72SLPC   C38 6343   1.007   4.827   9.724  0.0160  0.6868  0.0886
   72SLPC   H8X 6344   0.962   4.731   9.757  1.7206  0.0613  0.7430
   72SLPC   H8Y 6345   1.107   4.826   9.773 -0.7184 -1.2592  1.7130
   72SLPC   C39 6346   1.021   4.849   9.572  0.0141 -1.0667  0.0607
   72SLPC   H9X 6347   1.112   4.795   9.536  0.5899 -0.2055  0.1942
   72SLPC   H9Y 6348   1.043   4.957   9.558 -0.3080 -1.1195 -0.9188
   72SLPC  C310 6349   0.896   4.816   9.476  0.8849  0.6423  0.3059
   72SLPC  H10X 6350   0.812   4.864   9.530 -0.3885 -2.9820  1.8729
   72SLPC  H10Y 6351   0.885   4.705   9.477  1.3350  0.6008  1.5571
   72SLPC  C311 6352   0.915   4.880   9.337 -0.0639 -0.2326  0.4253
   72SLPC  H11X 6353   1.015   4.843   9.306 -0.4363 -0.5847 -0.4004
   72SLPC  H11Y 6354   0.920   4.990   9.348 -0.9715 -0.3636  2.5447
   72SLPC  C312 6355   0.821   4.828   9.227  0.0068  0.5482  0.1190
   72SLPC  H12X 6356   0.715   4.846   9.256  0.8036  1.2104  2.9440
   72SLPC  H12Y 6357   0.833   4.718   9.228  0.2724  0.5760  1.0357
   72SLPC  C313 6358   0.844   4.893   9.089 -0.9621 -0.1774 -0.5112
   72SLPC  H13X 6359   0.846   5.002   9.112 -0.5273 -0.4821  1.0325
   72SLPC  H13Y 6360   0.757   4.869   9.025 -1.2145 -0.4059 -0.0879
   72SLPC  C314 6361   0.977   4.866   9.015 -0.1115  0.1343  0.2282
   72SLPC  H14X 6362   1.059   4.913   9.073  0.6973 -0.8375 -0.0853
   72SLPC  H14Y 6363   0.972   4.918   8.917 -0.0005 -1.4926 -0.6706
   72SLPC  C315 6364   1.021   4.714   9.002  0.7666 -0.7833 -0.1218
   72SLPC  H15X 6365   0.934   4.646   8.985  0.3481 -0.3648  0.3018
   72SLPC  H15Y 6366   1.052   4.682   9.103 -2.2624  0.6971  1.4119
   72SLPC  C316 6367   1.122   4.702   8.890 -0.6387 -0.3208  0.2169
   72SLPC  H16X 6368   1.201   4.779   8.905 -1.5126  0.2852  2.0156
   72SLPC  H16Y 6369   1.075   4.722   8.791 -1.1638 -1.6402  0.1759
   72SLPC  C317 6370   1.181   4.559   8.889  0.1407 -0.0213 -0.5500
   72SLPC  H17X 6371   1.207   4.531   8.993  1.3342 -2.5634 -1.4536
   72SLPC  H17Y 6372   1.273   4.558   8.827  1.0577 -0.1543  0.7608
   72SLPC  C318 6373   1.084   4.462   8.821  0.8387  0.4632 -0.6364
   72SLPC  H18X 6374   1.130   4.363   8.798  1.6047  0.4959  0.6821
   72SLPC  H18Y 6375   1.053   4.510   8.726  1.3516  1.4326 -0.3224
   72SLPC  H18Z 6376   0.995   4.442   8.885  1.0258  0.4571 -0.3786
   73SLPC     N 6377   1.124   3.074  11.351 -0.5806 -0.2088 -0.0029
   73SLPC   C13 6378   1.096   2.926  11.354  1.0023 -0.0751  1.1969
   73SLPC  H13A 6379   1.100   2.883  11.254  1.7987 -1.3792  1.7571
   73SLPC  H13B 6380   1.170   2.873  11.412  2.3079  0.0244 -0.2993
   73SLPC  H13C 6381   0.993   2.906  11.377  0.9334 -1.6943 -0.2474
   73SLPC   C14 6382   1.133   3.138  11.487  0.4120  0.0392  0.2050
   73SLPC  H14A 6383   1.212   3.089  11.542 -1.1534 -1.8230  0.8836
   73SLPC  H14B 6384   1.143   3.245  11.472 -3.9765  0.5512 -0.3682
   73SLPC  H14C 6385   1.046   3.115  11.546 -0.7356  1.8822 -0.6932
   73SLPC   C15 6386   1.010   3.136  11.283  0.6112  0.0492 -0.1490
   73SLPC  H15A 6387   1.025   3.241  11.265  1.4659 -0.2009 -0.9814
   73SLPC  H15B 6388   0.994   3.073  11.196  2.1482  1.0232 -1.1764
   73SLPC  H15C 6389   0.919   3.130  11.341 -0.6297 -0.1252 -2.0045
   73SLPC   C12 6390   1.241   3.111  11.272  0.3060 -0.7873 -0.3165
   73SLPC  H12A 6391   1.326   3.086  11.333  0.3554  3.2702  1.6680
   73SLPC  H12B 6392   1.243   3.219  11.272 -3.5100 -0.5656  0.9362
   73SLPC   C11 6393   1.261   3.060  11.129 -0.1688 -0.2107  0.4483
   73SLPC  H11A 6394   1.341   3.117  11.078  0.4222 -1.7955 -0.4890
   73SLPC  H11B 6395   1.167   3.081  11.073 -0.3766  0.1564  0.9331
   73SLPC     P 6396   1.262   2.847  11.004 -0.0070 -0.2549  0.2919
   73SLPC   O13 6397   1.327   2.720  11.008 -0.2592  0.1754 -0.2048
   73SLPC   O14 6398   1.116   2.847  11.000  0.0114 -0.0117  0.4545
   73SLPC   O12 6399   1.302   2.924  11.132  0.7215  0.1891 -0.5753
   73SLPC   O11 6400   1.319   2.942  10.889 -0.8547 -0.0849 -0.4598
   73SLPC    C1 6401   1.461   2.930  10.855  0.0688 -1.0083 -0.0540
   73SLPC    HA 6402   1.516   2.956  10.949  0.0837  1.4940 -0.6746
   73SLPC    HB 6403   1.490   2.828  10.824  2.0944 -0.5082  0.0217
   73SLPC    C2 6404   1.503   3.029  10.748 -0.4945 -0.5463 -0.5033
   73SLPC    HS 6405   1.469   3.130  10.780  0.3909 -0.8373  1.4930
   73SLPC   O21 6406   1.439   2.999  10.625 -0.0022  0.0969 -0.3162
   73SLPC   C21 6407   1.405   3.100  10.550 -0.1447 -0.2660  0.2762
   73SLPC   O22 6408   1.433   3.217  10.569  0.2882 -0.3928  0.1201
   73SLPC   C22 6409   1.331   3.046  10.430 -0.0984  0.2768 -1.0633
   73SLPC   H2R 6410   1.386   2.954  10.404  0.7046  0.3067  0.4008
   73SLPC   H2S 6411   1.230   3.014  10.465  1.1727 -2.5510  0.4113
   73SLPC    C3 6412   1.658   3.035  10.733 -0.0967  0.9760 -0.4767
   73SLPC    HX 6413   1.702   3.085  10.822 -1.6668  2.0863 -0.2919
   73SLPC    HY 6414   1.681   3.104  10.650  0.3960  0.4302 -0.8034
   73SLPC   O31 6415   1.706   2.904  10.724 -0.6191  0.3324 -0.4785
   73SLPC   C31 6416   1.802   2.878  10.638 -0.7159 -0.2217  0.2188
   73SLPC   O32 6417   1.860   2.952  10.555  0.3637 -0.0761 -0.1665
   73SLPC   C32 6418   1.822   2.726  10.642 -0.3253  0.0509  0.2792
   73SLPC   H2X 6419   1.734   2.674  10.686 -0.4438  0.3106  0.3520
   73SLPC   H2Y 6420   1.902   2.715  10.718 -0.0996  2.2744  0.4366
   73SLPC   C23 6421   1.321   3.139  10.305  0.1882 -0.2601  0.3224
   73SLPC   H3R 6422   1.279   3.074  10.225  1.1907  0.3333 -0.7093
   73SLPC   H3S 6423   1.420   3.180  10.277 -0.4047  0.5935 -0.6141
   73SLPC   C24 6424   1.229   3.266  10.326 -0.5219 -0.3812  0.3013
   73SLPC   H4R 6425   1.254   3.319  10.420  1.9953  0.5532 -0.8036
   73SLPC   H4S 6426   1.121   3.243  10.343 -1.3132  1.6046 -1.4937
   73SLPC   C25 6427   1.244   3.362  10.216 -0.9446 -0.1986 -0.1115
   73SLPC   H5R 6428   1.346   3.356  10.173 -0.2038 -0.0080  1.5391
   73SLPC   H5S 6429   1.224   3.465  10.254  0.1003 -0.2051  0.4626
   73SLPC   C26 6430   1.145   3.343  10.101 -0.7191 -0.0736  0.5101
   73SLPC   H6R 6431   1.043   3.342  10.146 -1.4316 -0.8908 -1.0237
   73SLPC   H6S 6432   1.146   3.237  10.069  2.1084  0.2098 -0.6002
   73SLPC   C27 6433   1.140   3.444   9.981  0.1672  0.4844 -0.5966
   73SLPC   H7R 6434   1.186   3.536  10.022  0.4344 -0.0526  0.3247
   73SLPC   H7S 6435   1.030   3.459   9.971 -0.2346 -0.4752  1.7767
   73SLPC   C28 6436   1.202   3.388   9.854 -0.2281 -0.0388 -0.6660
   73SLPC   H8R 6437   1.149   3.299   9.813 -0.5184 -0.2580  0.1649
   73SLPC   H8S 6438   1.297   3.338   9.883  0.2499  0.8333 -0.7006
   73SLPC   C29 6439   1.246   3.495   9.761 -0.2774 -0.7727 -0.5094
   73SLPC   H9R 6440   1.317   3.564   9.807 -2.5417  0.5429  1.2258
   73SLPC  C210 6441   1.196   3.509   9.635 -1.4984  0.6939  0.2013
   73SLPC  H10R 6442   1.232   3.595   9.577 -0.3256 -1.1361 -1.9560
   73SLPC  C211 6443   1.098   3.422   9.561 -0.1341 -0.1564 -0.3395
   73SLPC  H11R 6444   1.059   3.341   9.626  2.4277 -0.2845  1.1901
   73SLPC  H11S 6445   1.153   3.377   9.475 -0.5947  0.5161 -0.9974
   73SLPC  C212 6446   0.982   3.498   9.505 -0.0580  0.7239 -0.5306
   73SLPC  H12R 6447   1.010   3.598   9.470  1.2774  1.1837  1.6475
   73SLPC  C213 6448   0.853   3.452   9.492 -0.3141 -0.3612 -0.2911
   73SLPC  H13R 6449   0.774   3.516   9.449 -1.5691  0.7560  3.3319
   73SLPC  C214 6450   0.807   3.310   9.517 -0.0665  0.5957 -0.0342
   73SLPC  H14R 6451   0.893   3.247   9.484  0.1033  1.9513 -2.4202
   73SLPC  H14S 6452   0.722   3.272   9.458  0.9838 -2.3962  0.2289
   73SLPC  C215 6453   0.775   3.279   9.665 -0.3844  0.4527 -0.9257
   73SLPC  H15R 6454   0.864   3.270   9.731 -1.2288  0.9367  0.3238
   73SLPC  H15S 6455   0.731   3.177   9.673  1.1909 -0.1036  2.5502
   73SLPC  C216 6456   0.683   3.375   9.737  0.4998 -0.3609 -0.2106
   73SLPC  H16R 6457   0.721   3.479   9.735 -0.2616 -0.0217  1.0870
   73SLPC  H16S 6458   0.673   3.345   9.844 -0.8761 -0.9844 -0.4859
   73SLPC  C217 6459   0.539   3.368   9.684  0.0894 -0.6596  0.8344
   73SLPC  H17R 6460   0.484   3.273   9.703 -0.3591 -0.6170 -0.2205
   73SLPC  H17S 6461   0.550   3.382   9.575 -0.8402 -3.3048  0.3311
   73SLPC  C218 6462   0.453   3.487   9.733 -0.0715 -0.3805  0.1220
   73SLPC  H18R 6463   0.514   3.572   9.771  0.1481 -0.1839 -0.6524
   73SLPC  H18S 6464   0.395   3.462   9.825 -1.3682 -2.6064 -1.2162
   73SLPC  H18T 6465   0.398   3.519   9.642  1.9943  2.3616 -0.3066
   73SLPC   C33 6466   1.866   2.665  10.510  0.3000 -0.2820  0.4974
   73SLPC   H3X 6467   1.883   2.555  10.517 -2.9217 -0.9860 -0.7150
   73SLPC   H3Y 6468   1.961   2.714  10.480 -0.0276 -0.3680 -0.7649
   73SLPC   C34 6469   1.750   2.692  10.418 -0.7924 -0.5387 -0.3860
   73SLPC   H4X 6470   1.720   2.799  10.415 -0.8689 -0.4862  1.1718
   73SLPC   H4Y 6471   1.654   2.650  10.457 -1.1677  0.9501  0.3788
   73SLPC   C35 6472   1.777   2.652  10.274 -0.1220  0.5504  0.2504
   73SLPC   H5X 6473   1.808   2.545  10.278 -1.7937  0.0514  3.9928
   73SLPC   H5Y 6474   1.863   2.715  10.243  1.4712 -0.7375  1.8016
   73SLPC   C36 6475   1.676   2.689  10.168 -0.4921  0.0665  0.2145
   73SLPC   H6X 6476   1.576   2.641  10.178 -0.0904 -0.5055  1.6299
   73SLPC   H6Y 6477   1.710   2.668  10.064 -2.0567  3.7293 -1.2449
   73SLPC   C37 6478   1.648   2.838  10.160 -0.0109  0.0553 -0.2916
   73SLPC   H7X 6479   1.751   2.880  10.165 -0.6908  1.7118  0.5602
   73SLPC   H7Y 6480   1.592   2.860  10.254  0.1850 -1.6896  0.2774
   73SLPC   C38 6481   1.580   2.888  10.032 -0.1082  0.1238  0.2241
   73SLPC   H8X 6482   1.476   2.849  10.027 -0.3979  0.6990  1.3177
   73SLPC   H8Y 6483   1.624   2.847   9.939  0.1377  2.3510 -0.7058
   73SLPC   C39 6484   1.574   3.043  10.018  0.5896 -0.1412  0.0504
   73SLPC   H9X 6485   1.682   3.067  10.013  0.7467 -0.8827 -0.1891
   73SLPC   H9Y 6486   1.531   3.098  10.104  0.6498 -1.8007  1.1977
   73SLPC  C310 6487   1.496   3.059   9.888  0.5418  0.7074 -0.0291
   73SLPC  H10X 6488   1.388   3.067   9.913  0.7623  0.4256  1.0581
   73SLPC  H10Y 6489   1.508   2.979   9.812 -1.0982 -0.1921  0.5945
   73SLPC  C311 6490   1.528   3.194   9.837  0.8576 -0.0073 -0.0031
   73SLPC  H11X 6491   1.637   3.216   9.845  0.8240  1.1545 -2.0189
   73SLPC  H11Y 6492   1.485   3.280   9.893 -0.1826  0.5443 -1.5763
   73SLPC  C312 6493   1.471   3.210   9.692  0.0661  0.4920 -0.3867
   73SLPC  H12X 6494   1.476   3.319   9.672  0.1594  0.6986  0.7174
   73SLPC  H12Y 6495   1.367   3.173   9.688 -0.0890  0.2757  2.9983
   73SLPC  C313 6496   1.547   3.140   9.579 -0.2880 -0.4251 -0.2305
   73SLPC  H13X 6497   1.550   3.029   9.582  2.9999 -0.3955  0.6525
   73SLPC  H13Y 6498   1.644   3.188   9.555 -0.1740 -0.4800  0.1161
   73SLPC  C314 6499   1.480   3.155   9.443  0.1501 -0.1299  0.2419
   73SLPC  H14X 6500   1.374   3.123   9.452  0.1647  0.0490  1.2597
   73SLPC  H14Y 6501   1.538   3.088   9.377 -1.8662 -0.8335 -0.8961
   73SLPC  C315 6502   1.481   3.296   9.374  0.2925 -0.3422 -0.4085
   73SLPC  H15X 6503   1.577   3.350   9.359 -0.6205  1.5827  0.2809
   73SLPC  H15Y 6504   1.413   3.356   9.439 -0.0092  0.8765 -1.7971
   73SLPC  C316 6505   1.413   3.298   9.233 -0.9214 -0.2429 -0.5330
   73SLPC  H16X 6506   1.444   3.203   9.185  0.2292  0.8598 -2.1169
   73SLPC  H16Y 6507   1.458   3.382   9.175 -0.4265 -0.7160 -0.8460
   73SLPC  C317 6508   1.261   3.311   9.234  1.0289 -0.6202  0.1258
   73SLPC  H17X 6509   1.234   3.402   9.292 -0.8676 -0.3801 -1.0832
   73SLPC  H17Y 6510   1.231   3.214   9.280 -0.3287 -0.2038  0.1655
   73SLPC  C318 6511   1.199   3.327   9.092  1.0085 -0.5781 -0.4121
   73SLPC  H18X 6512   1.242   3.420   9.047 -1.2037  1.9460  2.2749
   73SLPC  H18Y 6513   1.088   3.339   9.095  1.0482 -0.1931 -0.3806
   73SLPC  H18Z 6514   1.218   3.231   9.040 -0.1046 -1.0327 -0.0043
   74SLPC     N 6515   1.591   5.449  11.076  0.1170 -0.1561 -1.2653
   74SLPC   C13 6516   1.592   5.573  11.153  0.0629  0.1754 -0.3148
   74SLPC  H13A 6517   1.575   5.666  11.101 -2.1228  0.3562  0.5915
   74SLPC  H13B 6518   1.519   5.581  11.232  0.3212  0.3720 -0.0961
   74SLPC  H13C 6519   1.690   5.584  11.198  0.3813  0.0353 -0.9653
   74SLPC   C14 6520   1.471   5.452  10.980  0.3518  0.6452 -0.2194
   74SLPC  H14A 6521   1.373   5.460  11.026 -0.4394  0.1005 -1.7330
   74SLPC  H14B 6522   1.484   5.522  10.898 -0.1140  0.5237 -0.4039
   74SLPC  H14C 6523   1.467   5.363  10.919 -0.4439  1.0768 -0.8287
   74SLPC   C15 6524   1.571   5.326  11.158 -0.2107  0.7840 -0.2717
   74SLPC  H15A 6525   1.651   5.310  11.229 -0.2715 -0.0484 -0.3715
   74SLPC  H15B 6526   1.480   5.339  11.214 -2.0697  2.9118 -3.4281
   74SLPC  H15C 6527   1.575   5.233  11.102  0.0150  0.2726  0.5687
   74SLPC   C12 6528   1.724   5.435  11.005 -0.6103  0.2206 -0.1375
   74SLPC  H12A 6529   1.800   5.448  11.081 -2.7173  1.5243  1.9076
   74SLPC  H12B 6530   1.733   5.514  10.932  0.6666 -0.9598 -1.3063
   74SLPC   C11 6531   1.753   5.294  10.936  0.3082 -0.3171 -0.3373
   74SLPC  H11A 6532   1.749   5.213  11.012  2.7049  1.0204  1.3500
   74SLPC  H11B 6533   1.860   5.296  10.906  0.7842 -1.5956  1.1487
   74SLPC     P 6534   1.709   5.330  10.679 -0.0431 -0.0132 -0.4145
   74SLPC   O13 6535   1.716   5.477  10.688 -0.2430  0.0975  0.5787
   74SLPC   O14 6536   1.840   5.265  10.645  0.3644  1.3147  0.2642
   74SLPC   O12 6537   1.666   5.270  10.821 -0.1322 -0.0489 -0.7711
   74SLPC   O11 6538   1.589   5.273  10.593 -0.1450 -0.7377 -0.1446
   74SLPC    C1 6539   1.633   5.199  10.475 -0.1223  0.7163 -0.2931
   74SLPC    HA 6540   1.723   5.139  10.502 -1.8717 -1.8296  0.2687
   74SLPC    HB 6541   1.555   5.124  10.450  0.3571  0.5017 -1.1766
   74SLPC    C2 6542   1.665   5.278  10.348 -0.1426  0.0202 -0.1578
   74SLPC    HS 6543   1.739   5.352  10.384  1.7852 -2.3038  0.9648
   74SLPC   O21 6544   1.541   5.334  10.301 -0.6407  0.2180 -0.0892
   74SLPC   C21 6545   1.561   5.452  10.240  0.3292  0.3144  0.1663
   74SLPC   O22 6546   1.660   5.520  10.247 -0.7928 -0.3346  0.7014
   74SLPC   C22 6547   1.439   5.494  10.161 -0.5505 -0.1436 -0.1193
   74SLPC   H2R 6548   1.366   5.410  10.157 -1.7123  0.7240  1.7605
   74SLPC   H2S 6549   1.377   5.561  10.224  1.3949  1.7164 -0.0947
   74SLPC    C3 6550   1.723   5.177  10.244 -0.1254  0.2565  0.5949
   74SLPC    HX 6551   1.652   5.094  10.226  1.5525 -1.1813  0.2378
   74SLPC    HY 6552   1.815   5.140  10.294 -0.4172  1.2132  1.8806
   74SLPC   O31 6553   1.756   5.234  10.116 -0.0389 -0.1603  0.3400
   74SLPC   C31 6554   1.876   5.291  10.112 -0.6997  0.0859 -0.5650
   74SLPC   O32 6555   1.964   5.281  10.195  0.0546 -0.1085 -0.0994
   74SLPC   C32 6556   1.884   5.374   9.983 -0.0227  0.0358 -0.4321
   74SLPC   H2X 6557   1.825   5.465  10.007 -1.3087 -0.8017 -0.3293
   74SLPC   H2Y 6558   1.833   5.316   9.904  2.1907 -1.4446 -0.8737
   74SLPC   C23 6559   1.462   5.561  10.023 -0.6680 -0.2531 -0.5708
   74SLPC   H3R 6560   1.524   5.652  10.036  0.8812 -1.4097  0.7246
   74SLPC   H3S 6561   1.361   5.584   9.985 -1.2702 -1.9243 -0.0801
   74SLPC   C24 6562   1.544   5.473   9.933  0.2695 -0.3370  0.4701
   74SLPC   H4R 6563   1.462   5.406   9.898  0.5241 -0.0122 -0.8028
   74SLPC   H4S 6564   1.619   5.418   9.993 -0.4406 -1.3423  0.4637
   74SLPC   C25 6565   1.606   5.554   9.816  0.3989  0.0335 -0.7498
   74SLPC   H5R 6566   1.695   5.606   9.855  1.8053 -3.4494  1.1720
   74SLPC   H5S 6567   1.525   5.621   9.780 -1.1926 -0.6326  1.3977
   74SLPC   C26 6568   1.651   5.473   9.691  0.8854 -0.0476 -0.2778
   74SLPC   H6R 6569   1.561   5.422   9.652  0.5249 -0.5092  1.0905
   74SLPC   H6S 6570   1.723   5.395   9.721 -1.0457 -1.5829  0.6359
   74SLPC   C27 6571   1.711   5.554   9.580  0.2663  0.6171  1.1025
   74SLPC   H7R 6572   1.805   5.595   9.622  1.4204 -1.6827  0.9747
   74SLPC   H7S 6573   1.647   5.643   9.566 -1.4917 -0.7244  0.1111
   74SLPC   C28 6574   1.727   5.479   9.448  0.0510  0.6397  0.2241
   74SLPC   H8R 6575   1.627   5.465   9.401  0.3499  1.6424 -0.7553
   74SLPC   H8S 6576   1.761   5.377   9.477  1.5269  1.1831  0.4809
   74SLPC   C29 6577   1.821   5.543   9.358  0.3649 -0.1216  0.3470
   74SLPC   H9R 6578   1.924   5.509   9.377  0.1013  0.4920  3.4284
   74SLPC  C210 6579   1.786   5.621   9.252 -0.3942  0.0188  0.4704
   74SLPC  H10R 6580   1.869   5.651   9.186 -1.1233 -0.1867 -0.5626
   74SLPC  C211 6581   1.641   5.666   9.218 -0.2145 -0.1298 -0.0183
   74SLPC  H11R 6582   1.634   5.776   9.230  0.6864 -0.1025  0.3815
   74SLPC  H11S 6583   1.576   5.634   9.302 -1.1405  1.0486 -0.2654
   74SLPC  C212 6584   1.599   5.623   9.078 -0.2116  0.0636 -0.2282
   74SLPC  H12R 6585   1.549   5.525   9.078  0.2148 -0.1571 -0.2420
   74SLPC  C213 6586   1.632   5.682   8.961  0.5417  0.1771 -0.4035
   74SLPC  H13R 6587   1.594   5.644   8.865 -1.0902  0.9626 -0.1107
   74SLPC  C214 6588   1.735   5.792   8.949 -0.0638  0.0107  0.3491
   74SLPC  H14R 6589   1.813   5.768   8.874  0.6150  2.7470  0.0892
   74SLPC  H14S 6590   1.776   5.819   9.049  0.8498  0.6300 -0.1755
   74SLPC  C215 6591   1.659   5.922   8.904  0.7440 -0.4384 -0.3890
   74SLPC  H15R 6592   1.728   6.008   8.907 -0.1847  0.5604 -3.6918
   74SLPC  H15S 6593   1.574   5.955   8.968  0.8542 -1.3163  0.2296
   74SLPC  C216 6594   1.612   5.926   8.757  0.0146  0.4996 -0.4616
   74SLPC  H16R 6595   1.528   5.854   8.761  0.2166  0.3132  2.2956
   74SLPC  H16S 6596   1.694   5.896   8.688 -0.9919 -1.8900 -0.7018
   74SLPC  C217 6597   1.541   6.059   8.720  0.6604  0.5534 -0.2994
   74SLPC  H17R 6598   1.620   6.136   8.704  1.4875  0.2482  1.9119
   74SLPC  H17S 6599   1.469   6.088   8.800 -0.4674 -0.4663 -0.9113
   74SLPC  C218 6600   1.466   6.045   8.589  0.6952  0.4006  0.6798
   74SLPC  H18R 6601   1.541   6.029   8.508  0.1202 -0.3321  0.2817
   74SLPC  H18S 6602   1.413   6.142   8.575  0.3621  0.2147  0.6389
   74SLPC  H18T 6603   1.390   5.964   8.592  0.8601  0.2391  3.7680
   74SLPC   C33 6604   2.032   5.388   9.933  0.2888  0.0504  0.0615
   74SLPC   H3X 6605   2.070   5.286   9.908 -3.0835 -0.9805 -1.4849
   74SLPC   H3Y 6606   2.093   5.441  10.008  1.5110 -0.3996 -0.5942
   74SLPC   C34 6607   2.032   5.470   9.808  0.5065 -0.8595 -0.4241
   74SLPC   H4X 6608   2.001   5.576   9.818  0.6403 -0.8815  0.2238
   74SLPC   H4Y 6609   1.959   5.423   9.738  2.7763 -2.2180 -2.0293
   74SLPC   C35 6610   2.169   5.472   9.744 -0.3555 -0.1815 -0.2384
   74SLPC   H5X 6611   2.198   5.371   9.706  2.2395 -0.3007  1.7543
   74SLPC   H5Y 6612   2.248   5.508   9.814 -1.3576 -1.4838  1.6726
   74SLPC   C36 6613   2.162   5.561   9.614  0.0954 -0.1873 -0.3860
   74SLPC   H6X 6614   2.126   5.659   9.652  0.3710  0.1634 -1.0195
   74SLPC   H6Y 6615   2.088   5.514   9.545  0.5336  1.1912 -1.8177
   74SLPC   C37 6616   2.299   5.571   9.545  0.9542 -0.1626 -0.1978
   74SLPC   H7X 6617   2.327   5.472   9.503 -2.8203 -1.9071  0.9581
   74SLPC   H7Y 6618   2.375   5.591   9.624  0.3427 -0.2175  0.4125
   74SLPC   C38 6619   2.305   5.677   9.434 -0.5933 -0.0477 -0.0434
   74SLPC   H8X 6620   2.407   5.684   9.390 -0.6577 -1.2565 -0.4148
   74SLPC   H8Y 6621   2.294   5.780   9.475  0.2751  0.2523 -0.5135
   74SLPC   C39 6622   2.218   5.658   9.313 -0.0367  0.0790  0.8701
   74SLPC   H9X 6623   2.115   5.672   9.351  0.6259  1.4941  2.2462
   74SLPC   H9Y 6624   2.238   5.551   9.289  1.3606  0.6835 -0.9218
   74SLPC  C310 6625   2.246   5.748   9.194 -0.7639 -0.9110  1.0009
   74SLPC  H10X 6626   2.348   5.734   9.154 -1.6117 -0.9949 -1.2858
   74SLPC  H10Y 6627   2.229   5.854   9.224 -2.4931 -1.4946  2.3522
   74SLPC  C311 6628   2.147   5.728   9.079  0.2235 -0.0718 -0.1900
   74SLPC  H11X 6629   2.187   5.786   8.993  3.8585  0.0381  1.4062
   74SLPC  H11Y 6630   2.046   5.771   9.099  1.1371  3.4504 -2.2546
   74SLPC  C312 6631   2.123   5.579   9.045  0.0704  0.1070 -0.1095
   74SLPC  H12X 6632   2.059   5.542   9.129  0.5658  0.9184  0.6416
   74SLPC  H12Y 6633   2.215   5.517   9.054 -0.5484 -0.5795  1.9775
   74SLPC  C313 6634   2.053   5.545   8.905  0.1546  0.5232 -0.0093
   74SLPC  H13X 6635   1.969   5.615   8.885  0.4965  0.7050 -0.8500
   74SLPC  H13Y 6636   2.003   5.445   8.904 -0.5912  0.8520  1.3978
   74SLPC  C314 6637   2.155   5.562   8.793 -0.6302 -0.3977  0.3904
   74SLPC  H14X 6638   2.242   5.495   8.807  0.1075  0.6208  0.7121
   74SLPC  H14Y 6639   2.196   5.665   8.795 -1.8835  0.1223  0.3792
   74SLPC  C315 6640   2.108   5.519   8.651 -0.3026 -0.0449 -0.2666
   74SLPC  H15X 6641   2.094   5.410   8.665 -0.8268 -0.3739 -2.7844
   74SLPC  H15Y 6642   2.191   5.522   8.577 -1.8534  0.4988 -2.0732
   74SLPC  C316 6643   1.990   5.599   8.601  0.1155  0.5997  0.1059
   74SLPC  H16X 6644   2.020   5.694   8.551 -0.0867 -0.2532 -1.7020
   74SLPC  H16Y 6645   1.920   5.620   8.685 -1.4217 -0.8270 -0.7611
   74SLPC  C317 6646   1.907   5.521   8.499  0.2851 -0.4038 -0.6796
   74SLPC  H17X 6647   1.889   5.430   8.560 -0.3288  0.9313  1.2261
   74SLPC  H17Y 6648   1.965   5.498   8.408 -0.3475 -0.2444 -1.1312
   74SLPC  C318 6649   1.771   5.595   8.465 -0.2073 -0.2041 -0.2087
   74SLPC  H18X 6650   1.735   5.665   8.543 -1.5350 -3.5570  2.4070
   74SLPC  H18Y 6651   1.690   5.522   8.444 -1.2020  0.9358 -0.4320
   74SLPC  H18Z 6652   1.781   5.642   8.364 -0.5249  2.7869  1.0369
   75SLPC     N 6653   3.832   1.969   6.547  0.4424 -0.3463  0.0886
   75SLPC   C13 6654   3.756   1.880   6.636 -0.5076  1.0381 -1.0718
   75SLPC  H13A 6655   3.653   1.862   6.609 -1.4115 -0.4325  2.6421
   75SLPC  H13B 6656   3.809   1.788   6.653 -3.2715 -0.2997  1.2374
   75SLPC  H13C 6657   3.742   1.918   6.736  0.4063 -0.1121 -0.4806
   75SLPC   C14 6658   3.763   2.108   6.550 -1.2056 -0.2972 -0.0824
   75SLPC  H14A 6659   3.810   2.177   6.481 -1.6585 -1.1594 -1.2798
   75SLPC  H14B 6660   3.657   2.108   6.528 -1.6573 -1.2281  1.9464
   75SLPC  H14C 6661   3.768   2.146   6.651 -1.4538 -2.5465  0.8204
   75SLPC   C15 6662   3.803   1.913   6.417 -0.1229  0.2234 -0.0052
   75SLPC  H15A 6663   3.699   1.890   6.402  0.2081 -2.0102  0.7979
   75SLPC  H15B 6664   3.836   1.983   6.341  3.2103 -0.7377  0.4039
   75SLPC  H15C 6665   3.854   1.819   6.400  0.2910  0.6646 -1.3605
   75SLPC   C12 6666   3.981   1.970   6.579  0.3910  0.4304  0.5067
   75SLPC  H12A 6667   3.985   2.034   6.666 -0.2205 -1.0540  1.6665
   75SLPC  H12B 6668   4.031   2.027   6.502 -0.9765  1.2848  0.2234
   75SLPC   C11 6669   4.051   1.841   6.590  0.6324  0.1497  0.2516
   75SLPC  H11A 6670   3.994   1.779   6.663 -1.7366 -1.4701 -2.7593
   75SLPC  H11B 6671   4.157   1.865   6.614  0.6495  1.7278 -1.2243
   75SLPC     P 6672   4.117   1.626   6.470  0.0343 -0.4059 -0.1049
   75SLPC   O13 6673   4.123   1.581   6.607 -0.6633 -0.1222  0.2191
   75SLPC   O14 6674   4.053   1.541   6.372  0.0913 -0.0038 -0.5964
   75SLPC   O12 6675   4.054   1.777   6.464 -0.1515  0.1874 -0.2658
   75SLPC   O11 6676   4.260   1.675   6.419 -0.0857  0.0469 -0.1249
   75SLPC    C1 6677   4.377   1.605   6.477 -0.3433  0.3021 -0.3252
   75SLPC    HA 6678   4.351   1.500   6.505  1.2813 -0.3597 -1.1652
   75SLPC    HB 6679   4.451   1.602   6.395 -1.7973 -1.1227 -1.6668
   75SLPC    C2 6680   4.428   1.674   6.599 -0.2002 -0.0527 -0.0193
   75SLPC    HS 6681   4.342   1.690   6.668  0.4218 -0.0466  0.7702
   75SLPC   O21 6682   4.471   1.803   6.555  0.2247  0.1561  0.1843
   75SLPC   C21 6683   4.462   1.899   6.643  0.1020 -0.2500  0.8046
   75SLPC   O22 6684   4.397   1.903   6.743 -0.3472  0.0175  0.1342
   75SLPC   C22 6685   4.555   2.010   6.577  0.2779  0.4733  0.3020
   75SLPC   H2R 6686   4.642   1.960   6.529  0.1390 -0.1800  0.7210
   75SLPC   H2S 6687   4.502   2.082   6.511  3.7430  3.2321  0.2598
   75SLPC    C3 6688   4.540   1.597   6.676 -0.2942 -0.1893 -0.3236
   75SLPC    HX 6689   4.625   1.603   6.605  0.7156 -1.8297  0.6792
   75SLPC    HY 6690   4.510   1.491   6.696  0.6480 -0.3901  0.0513
   75SLPC   O31 6691   4.583   1.661   6.803  0.6442  0.9744 -0.2987
   75SLPC   C31 6692   4.504   1.633   6.909 -0.5459  0.4591 -0.3208
   75SLPC   O32 6693   4.416   1.551   6.921  0.4850 -0.0708  0.5443
   75SLPC   C32 6694   4.548   1.728   7.022 -0.0683 -0.7875 -1.3529
   75SLPC   H2X 6695   4.481   1.815   7.005 -0.8063 -1.1623 -0.4375
   75SLPC   H2Y 6696   4.653   1.763   7.020  0.0130 -0.6799  1.2138
   75SLPC   C23 6697   4.608   2.100   6.696  0.0158 -0.4065 -0.5125
   75SLPC   H3R 6698   4.519   2.137   6.752 -1.2412 -1.1022 -2.0021
   75SLPC   H3S 6699   4.659   2.191   6.656  1.0448 -0.7976 -0.1317
   75SLPC   C24 6700   4.704   2.026   6.791  0.4937 -0.2725  0.3909
   75SLPC   H4R 6701   4.793   1.985   6.739  2.3863  2.8785  0.8621
   75SLPC   H4S 6702   4.649   1.943   6.839  1.5800 -0.3618  1.5172
   75SLPC   C25 6703   4.769   2.133   6.889 -0.2397 -0.3682  0.1902
   75SLPC   H5R 6704   4.689   2.187   6.944  0.0692  0.7554 -0.4285
   75SLPC   H5S 6705   4.827   2.206   6.828 -0.0432 -2.4061 -2.2170
   75SLPC   C26 6706   4.869   2.073   6.979  0.6897  0.0645 -0.5232
   75SLPC   H6R 6707   4.935   2.012   6.912  1.4031 -0.6947  0.8258
   75SLPC   H6S 6708   4.827   2.000   7.050  0.5535 -0.9611 -1.6207
   75SLPC   C27 6709   4.945   2.184   7.056  0.5663  0.0313 -0.0250
   75SLPC   H7R 6710   4.873   2.223   7.132  0.3273 -0.8745  0.2264
   75SLPC   H7S 6711   4.989   2.262   6.990 -1.1228  1.1716  0.1185
   75SLPC   C28 6712   5.038   2.103   7.149 -0.3579 -0.6937 -0.2771
   75SLPC   H8R 6713   5.099   2.043   7.077  0.2920  0.0167 -0.3373
   75SLPC   H8S 6714   4.975   2.038   7.212 -0.2555 -0.2901  0.2554
   75SLPC   C29 6715   5.123   2.201   7.228  0.0062  0.6058 -0.5409
   75SLPC   H9R 6716   5.139   2.299   7.179  1.0861  1.0561  0.6523
   75SLPC  C210 6717   5.167   2.192   7.356 -0.2591  0.4111 -0.9958
   75SLPC  H10R 6718   5.223   2.279   7.393  1.2631 -0.7441 -0.4961
   75SLPC  C211 6719   5.166   2.083   7.456 -0.1165  0.3340  0.2314
   75SLPC  H11R 6720   5.265   2.064   7.503 -0.5556 -0.1249  1.0042
   75SLPC  H11S 6721   5.145   1.985   7.408 -1.8357  0.2993  0.9781
   75SLPC  C212 6722   5.055   2.125   7.551 -0.2924 -0.1285  0.0055
   75SLPC  H12R 6723   4.954   2.096   7.516 -0.4936  1.9197 -1.2802
   75SLPC  C213 6724   5.063   2.192   7.666 -0.6138 -0.5765 -0.7978
   75SLPC  H13R 6725   4.966   2.215   7.713  0.4378 -0.2896  1.3227
   75SLPC  C214 6726   5.184   2.253   7.728  0.1026 -0.5753 -0.3663
   75SLPC  H14R 6727   5.165   2.359   7.759  0.9811 -1.2261  2.8335
   75SLPC  H14S 6728   5.272   2.245   7.662  0.5121 -0.2515  0.1300
   75SLPC  C215 6729   5.218   2.186   7.859  0.2726  0.7243 -0.3085
   75SLPC  H15R 6730   5.314   2.227   7.896  1.5995 -2.4431  0.0633
   75SLPC  H15S 6731   5.242   2.078   7.845 -0.4297  0.3957  0.8585
   75SLPC  C216 6732   5.114   2.182   7.963  0.4100  0.5277 -0.5884
   75SLPC  H16R 6733   5.022   2.125   7.937 -0.1242  1.6170 -1.1614
   75SLPC  H16S 6734   5.092   2.291   7.964  1.5310  0.7639 -0.3566
   75SLPC  C217 6735   5.172   2.140   8.101  0.2657 -0.6780 -0.1032
   75SLPC  H17R 6736   5.266   2.196   8.121  0.6406 -2.1626  2.8501
   75SLPC  H17S 6737   5.203   2.035   8.082 -0.6669 -0.9638 -0.0813
   75SLPC  C218 6738   5.086   2.144   8.230  0.4110 -0.2166  0.6679
   75SLPC  H18R 6739   4.998   2.212   8.226  0.8102  0.2398 -0.7471
   75SLPC  H18S 6740   5.151   2.173   8.315 -1.4510  1.4315  1.6315
   75SLPC  H18T 6741   5.040   2.046   8.256  1.9616 -0.7717  1.4170
   75SLPC   C33 6742   4.525   1.676   7.167  0.0074 -0.3457  0.0229
   75SLPC   H3X 6743   4.416   1.666   7.186 -0.3273  1.9332 -0.4087
   75SLPC   H3Y 6744   4.571   1.578   7.189 -2.2005 -1.0546  1.8837
   75SLPC   C34 6745   4.589   1.775   7.274 -0.0586 -0.8067 -1.3109
   75SLPC   H4X 6746   4.555   1.874   7.236 -0.0099 -1.5434 -3.4463
   75SLPC   H4Y 6747   4.700   1.781   7.267 -0.0960  0.4403 -1.0056
   75SLPC   C35 6748   4.537   1.740   7.415 -0.0612  0.1547 -0.0414
   75SLPC   H5X 6749   4.559   1.633   7.432  0.2115  0.2795  0.3818
   75SLPC   H5Y 6750   4.428   1.757   7.403  0.3978  2.3646 -1.8021
   75SLPC   C36 6751   4.592   1.835   7.521 -0.2288 -0.7061 -0.2055
   75SLPC   H6X 6752   4.585   1.936   7.475  3.5378 -1.5459 -3.0596
   75SLPC   H6Y 6753   4.702   1.820   7.521 -0.4068 -2.1913 -1.3589
   75SLPC   C37 6754   4.538   1.827   7.665 -0.7744  0.5204  0.6546
   75SLPC   H7X 6755   4.599   1.896   7.728  0.1991 -0.9555  1.3947
   75SLPC   H7Y 6756   4.555   1.725   7.706 -0.2741  1.0583  1.8257
   75SLPC   C38 6757   4.398   1.872   7.688  0.3592 -0.1650  0.5427
   75SLPC   H8X 6758   4.332   1.800   7.634  0.3401  0.0851  0.2325
   75SLPC   H8Y 6759   4.392   1.970   7.637  1.2303 -0.0332  0.6806
   75SLPC   C39 6760   4.362   1.891   7.837 -0.1375  0.5290  0.4287
   75SLPC   H9X 6761   4.253   1.911   7.841 -0.4557 -0.7560 -0.6815
   75SLPC   H9Y 6762   4.406   1.989   7.864 -1.6144  2.2790 -2.8983
   75SLPC  C310 6763   4.416   1.785   7.939 -0.1259 -0.1339 -0.1484
   75SLPC  H10X 6764   4.526   1.792   7.940 -0.1398  0.6041 -1.5297
   75SLPC  H10Y 6765   4.388   1.683   7.904 -1.9650 -0.2088  1.3815
   75SLPC  C311 6766   4.365   1.801   8.088 -1.2521  0.4983 -0.3010
   75SLPC  H11X 6767   4.255   1.786   8.084 -1.3445  1.2768 -0.6217
   75SLPC  H11Y 6768   4.384   1.905   8.120  2.5825 -0.5607  1.4258
   75SLPC  C312 6769   4.415   1.689   8.183 -0.0686  0.8080 -0.6448
   75SLPC  H12X 6770   4.401   1.589   8.137  0.9701  0.5197 -0.3619
   75SLPC  H12Y 6771   4.340   1.692   8.265 -0.2629  0.4462 -0.8056
   75SLPC  C313 6772   4.558   1.714   8.233 -0.4458 -0.5286 -0.2851
   75SLPC  H13X 6773   4.574   1.818   8.268  1.0517  0.2297 -2.9594
   75SLPC  H13Y 6774   4.633   1.699   8.152  3.8626  2.7773  2.5883
   75SLPC  C314 6775   4.591   1.614   8.346 -0.1603  0.1634  0.2654
   75SLPC  H14X 6776   4.595   1.516   8.294 -0.4677  1.1454 -1.6906
   75SLPC  H14Y 6777   4.509   1.605   8.421 -0.4448  0.3393 -0.0260
   75SLPC  C315 6778   4.720   1.635   8.428 -0.1840 -0.5192 -0.0485
   75SLPC  H15X 6779   4.709   1.719   8.500 -0.1039 -1.8832  1.6215
   75SLPC  H15Y 6780   4.801   1.663   8.357  0.5999 -0.3644  0.8750
   75SLPC  C316 6781   4.778   1.512   8.517 -0.1946  0.3259  0.1189
   75SLPC  H16X 6782   4.804   1.433   8.442  1.8511  1.0550 -0.0168
   75SLPC  H16Y 6783   4.690   1.478   8.575 -0.0767 -1.0702 -0.4756
   75SLPC  C317 6784   4.887   1.547   8.614 -0.8651  0.3200  0.5659
   75SLPC  H17X 6785   4.958   1.602   8.549 -1.7158 -1.5311 -2.0822
   75SLPC  H17Y 6786   4.937   1.457   8.655 -1.9585 -1.1495 -1.1459
   75SLPC  C318 6787   4.830   1.629   8.730  0.1814 -0.5874  0.3717
   75SLPC  H18X 6788   4.735   1.580   8.759  0.7209 -1.2533  1.0751
   75SLPC  H18Y 6789   4.812   1.731   8.691  0.3213 -0.4847  0.5734
   75SLPC  H18Z 6790   4.901   1.641   8.815  1.8125 -1.7095 -0.7573
   76SLPC     N 6791   0.308   1.492   6.075  0.0834  0.4727  0.1703
   76SLPC   C13 6792   0.270   1.361   6.010 -0.3874  0.2025  0.4281
   76SLPC  H13A 6793   0.162   1.353   6.011 -0.4279  0.1301 -1.0509
   76SLPC  H13B 6794   0.312   1.349   5.911  0.2789 -1.9594  0.9120
   76SLPC  H13C 6795   0.320   1.281   6.062 -0.1928  0.5701  0.8049
   76SLPC   C14 6796   0.455   1.500   6.087  0.3225  0.0230 -0.2458
   76SLPC  H14A 6797   0.503   1.413   6.129 -0.7406 -0.3063  0.3027
   76SLPC  H14B 6798   0.507   1.534   5.998 -2.7617  0.3901 -2.0747
   76SLPC  H14C 6799   0.469   1.583   6.155 -1.4108  0.4408 -0.3602
   76SLPC   C15 6800   0.250   1.492   6.211 -0.3433  0.4094 -0.2321
   76SLPC  H15A 6801   0.142   1.500   6.214 -0.7399 -2.5260 -1.9923
   76SLPC  H15B 6802   0.279   1.411   6.276  0.4909  0.2157 -0.8326
   76SLPC  H15C 6803   0.283   1.587   6.251 -0.0468 -0.0065  0.5361
   76SLPC   C12 6804   0.244   1.607   5.997 -0.4048  0.2179 -0.0760
   76SLPC  H12A 6805   0.136   1.598   6.001 -0.7579  3.1700 -0.8676
   76SLPC  H12B 6806   0.263   1.584   5.893 -1.4698 -0.2384 -0.1861
   76SLPC   C11 6807   0.283   1.744   6.039  0.2221 -0.4325  0.2964
   76SLPC  H11A 6808   0.208   1.804   5.983 -1.4400 -1.2542  1.5545
   76SLPC  H11B 6809   0.386   1.769   6.006  0.9278 -1.4600  1.6168
   76SLPC     P 6810   0.378   1.820   6.276  0.4159  0.2065 -0.1608
   76SLPC   O13 6811   0.466   1.703   6.310  0.1643  0.1775 -0.2265
   76SLPC   O14 6812   0.448   1.941   6.233 -0.6506 -0.6934  0.2310
   76SLPC   O12 6813   0.264   1.774   6.174 -0.8969 -0.2604  0.1828
   76SLPC   O11 6814   0.275   1.842   6.400 -0.1988  0.1166 -0.0339
   76SLPC    C1 6815   0.192   1.733   6.441  0.5106 -0.6966  0.2176
   76SLPC    HA 6816   0.115   1.716   6.363  1.0017 -1.8288 -0.0400
   76SLPC    HB 6817   0.248   1.637   6.450  0.9112 -0.3613  1.5545
   76SLPC    C2 6818   0.142   1.738   6.591 -0.6098 -0.2068  0.4774
   76SLPC    HS 6819   0.068   1.820   6.587 -0.6402 -0.2846 -1.8174
   76SLPC   O21 6820   0.257   1.771   6.675  0.1890  0.0640 -0.5500
   76SLPC   C21 6821   0.227   1.836   6.784 -0.1388  0.0041  0.4412
   76SLPC   O22 6822   0.120   1.880   6.814  0.6079  0.1023 -0.2120
   76SLPC   C22 6823   0.341   1.830   6.883  0.5121  1.2739  0.1342
   76SLPC   H2R 6824   0.307   1.761   6.964 -1.3835  1.2000 -0.6975
   76SLPC   H2S 6825   0.427   1.782   6.831 -1.6057 -0.9027 -1.6249
   76SLPC    C3 6826   0.080   1.603   6.633 -0.2083 -0.3415 -0.6067
   76SLPC    HX 6827   0.170   1.538   6.621  1.0392  0.9015  1.4086
   76SLPC    HY 6828   0.002   1.566   6.563  1.1571 -2.5116 -1.0875
   76SLPC   O31 6829   0.046   1.589   6.773  0.3834 -0.1867 -0.4264
   76SLPC   C31 6830  -0.073   1.644   6.810 -0.2021 -0.4784  0.5684
   76SLPC   O32 6831  -0.151   1.693   6.732  0.0384 -0.4990 -0.3525
   76SLPC   C32 6832  -0.081   1.638   6.970  0.3097 -0.5168  0.0980
   76SLPC   H2X 6833  -0.023   1.725   7.009  1.2651 -1.3106  0.4767
   76SLPC   H2Y 6834  -0.024   1.548   7.002  1.9208  0.3697 -0.1425
   76SLPC   C23 6835   0.395   1.963   6.939  0.0614  0.4793  0.6999
   76SLPC   H3R 6836   0.308   2.025   6.970 -0.7727  1.3815 -3.0477
   76SLPC   H3S 6837   0.461   2.018   6.869  0.1036 -0.0585  0.3084
   76SLPC   C24 6838   0.472   1.940   7.071 -0.4055 -0.1215 -0.5555
   76SLPC   H4R 6839   0.412   1.885   7.147  1.7710 -1.8071  0.0430
   76SLPC   H4S 6840   0.505   2.035   7.117  2.4563 -1.2945  0.0034
   76SLPC   C25 6841   0.608   1.869   7.049 -0.2369 -0.2145  0.4254
   76SLPC   H5R 6842   0.604   1.763   7.017 -0.4666 -1.3369  3.7286
   76SLPC   H5S 6843   0.661   1.860   7.147  0.1173  0.3066  0.2889
   76SLPC   C26 6844   0.697   1.941   6.951  0.2047  0.3838 -0.3182
   76SLPC   H6R 6845   0.714   2.045   6.987 -0.3297 -0.3469  2.2905
   76SLPC   H6S 6846   0.651   1.947   6.850 -1.2542 -1.6652  0.1679
   76SLPC   C27 6847   0.837   1.876   6.939 -0.6502  0.8600  0.0162
   76SLPC   H7R 6848   0.889   1.905   6.846  0.7460 -0.1317  0.4599
   76SLPC   H7S 6849   0.826   1.766   6.942  1.5108  0.5794 -0.6353
   76SLPC   C28 6850   0.938   1.918   7.052 -0.4838  0.6472 -0.3979
   76SLPC   H8R 6851   0.884   1.920   7.149  1.1240  1.7769  0.5303
   76SLPC   H8S 6852   1.022   1.847   7.062 -3.0095 -2.4260  0.8435
   76SLPC   C29 6853   0.999   2.059   7.029  0.6294  0.4913 -0.3297
   76SLPC   H9R 6854   1.078   2.070   6.954  0.6116  4.1125  0.0137
   76SLPC  C210 6855   0.972   2.168   7.104  0.2932 -0.2353  0.1628
   76SLPC  H10R 6856   1.020   2.263   7.080  1.9609 -0.8217  1.0036
   76SLPC  C211 6857   0.892   2.176   7.232 -0.0800  0.2634  0.3484
   76SLPC  H11R 6858   0.829   2.085   7.238  0.4587 -0.0876  0.6751
   76SLPC  H11S 6859   0.827   2.267   7.233 -2.4021 -1.2656 -1.4398
   76SLPC  C212 6860   0.994   2.184   7.336  0.5019  0.3241 -0.1351
   76SLPC  H12R 6861   1.080   2.246   7.304  1.1771 -0.7435 -0.4423
   76SLPC  C213 6862   0.989   2.130   7.456  0.3912  0.5084 -0.3689
   76SLPC  H13R 6863   1.068   2.155   7.528 -1.4834  0.6655  1.7533
   76SLPC  C214 6864   0.880   2.036   7.503 -0.3936 -1.0919 -0.0406
   76SLPC  H14R 6865   0.855   1.967   7.420  0.3560 -1.9913  0.4588
   76SLPC  H14S 6866   0.795   2.102   7.530 -0.0783  0.3043 -2.2279
   76SLPC  C215 6867   0.917   1.948   7.624 -0.3678 -0.2844 -0.0854
   76SLPC  H15R 6868   1.013   1.892   7.622 -0.3039 -0.2827  1.3813
   76SLPC  H15S 6869   0.839   1.870   7.629  0.2860 -0.8866  1.2687
   76SLPC  C216 6870   0.917   2.028   7.762 -0.3095  0.3792 -0.8110
   76SLPC  H16R 6871   0.829   2.095   7.772 -0.3501  0.5039 -1.8341
   76SLPC  H16S 6872   1.005   2.096   7.769 -0.6841  0.6965  2.3653
   76SLPC  C217 6873   0.931   1.937   7.887  0.0101  1.1674 -0.4390
   76SLPC  H17R 6874   0.947   2.007   7.971 -0.2519  2.3911 -1.3787
   76SLPC  H17S 6875   1.016   1.867   7.877 -0.5530  0.5218 -0.7754
   76SLPC  C218 6876   0.801   1.852   7.910  0.6947  0.1920 -0.2151
   76SLPC  H18R 6877   0.805   1.789   8.002 -1.5374 -1.3878 -1.0836
   76SLPC  H18S 6878   0.782   1.771   7.837  1.5394  1.3681 -1.7781
   76SLPC  H18T 6879   0.709   1.912   7.925 -0.3158 -1.1964 -0.5604
   76SLPC   C33 6880  -0.231   1.647   7.012 -0.6666 -0.4708 -0.3782
   76SLPC   H3X 6881  -0.292   1.554   7.011 -1.3920 -0.0124 -1.6047
   76SLPC   H3Y 6882  -0.287   1.716   6.946 -2.9846 -0.9525  0.9693
   76SLPC   C34 6883  -0.226   1.709   7.159 -0.4456 -0.0333  0.4659
   76SLPC   H4X 6884  -0.334   1.736   7.171 -0.8512 -1.9834  1.6329
   76SLPC   H4Y 6885  -0.160   1.798   7.161  1.0829 -1.1295  2.5751
   76SLPC   C35 6886  -0.180   1.603   7.259  0.4130  0.3452  0.3443
   76SLPC   H5X 6887  -0.077   1.587   7.222 -0.3672  1.6177 -2.6546
   76SLPC   H5Y 6888  -0.248   1.516   7.249 -0.6536  1.1145  0.6901
   76SLPC   C36 6889  -0.207   1.648   7.400 -0.2159 -0.1282  0.6744
   76SLPC   H6X 6890  -0.316   1.658   7.418 -0.4602  1.1765 -1.3149
   76SLPC   H6Y 6891  -0.177   1.753   7.420 -0.9453 -0.2762  2.8920
   76SLPC   C37 6892  -0.169   1.543   7.504 -0.4651 -0.5027 -0.2575
   76SLPC   H7X 6893  -0.063   1.509   7.496 -1.1158 -2.2909 -2.1762
   76SLPC   H7Y 6894  -0.222   1.448   7.480 -2.3556  0.9548 -2.1439
   76SLPC   C38 6895  -0.188   1.597   7.639 -0.0716 -0.9157 -0.3914
   76SLPC   H8X 6896  -0.293   1.635   7.648 -0.4512 -1.8956 -0.5769
   76SLPC   H8Y 6897  -0.118   1.682   7.658  0.7099 -1.7760  0.7044
   76SLPC   C39 6898  -0.157   1.492   7.748 -0.8673  0.2246 -0.4309
   76SLPC   H9X 6899  -0.049   1.466   7.742 -1.3067 -1.7555 -0.2632
   76SLPC   H9Y 6900  -0.216   1.406   7.711 -1.2399  0.6123 -0.7441
   76SLPC  C310 6901  -0.193   1.539   7.887 -0.0560  0.0145 -0.7831
   76SLPC  H10X 6902  -0.301   1.560   7.900  0.3266  0.0867  4.4526
   76SLPC  H10Y 6903  -0.139   1.630   7.921 -2.4740  0.4699  2.3366
   76SLPC  C311 6904  -0.166   1.437   7.999  0.3070  0.8230 -0.2375
   76SLPC  H11X 6905  -0.058   1.414   8.013 -0.4464 -2.6885  0.9302
   76SLPC  H11Y 6906  -0.220   1.347   7.962  2.4763 -0.2899 -0.8874
   76SLPC  C312 6907  -0.222   1.485   8.131  0.1737  0.6825 -0.8414
   76SLPC  H12X 6908  -0.318   1.539   8.117  0.7773  2.2994  0.8292
   76SLPC  H12Y 6909  -0.150   1.563   8.163 -0.4398  1.3593 -1.0851
   76SLPC  C313 6910  -0.246   1.367   8.227 -0.2241 -0.3242 -0.7465
   76SLPC  H13X 6911  -0.328   1.307   8.182  1.1262 -0.8785 -2.6515
   76SLPC  H13Y 6912  -0.286   1.407   8.322  2.2677 -3.6307  1.9570
   76SLPC  C314 6913  -0.122   1.283   8.253  0.4905  1.1809 -0.6800
   76SLPC  H14X 6914  -0.077   1.233   8.165  1.0688  0.5429 -0.0380
   76SLPC  H14Y 6915  -0.166   1.212   8.326 -0.5807 -0.4037 -2.7438
   76SLPC  C315 6916  -0.002   1.354   8.318 -0.3462 -0.0076 -0.1527
   76SLPC  H15X 6917  -0.033   1.380   8.421 -0.9832 -0.1357 -0.3117
   76SLPC  H15Y 6918   0.026   1.446   8.262 -1.9867 -1.1112 -3.0319
   76SLPC  C316 6919   0.125   1.277   8.333  0.7210  0.4351 -1.1398
   76SLPC  H16X 6920   0.171   1.237   8.240  0.2533  0.5056 -1.4021
   76SLPC  H16Y 6921   0.092   1.205   8.411  1.1941  1.5490  0.1349
   76SLPC  C317 6922   0.236   1.350   8.403 -0.8446  0.3388 -0.0565
   76SLPC  H17X 6923   0.189   1.403   8.489  0.6250  1.2151  0.2415
   76SLPC  H17Y 6924   0.277   1.426   8.334 -2.0109  0.0711 -1.0812
   76SLPC  C318 6925   0.343   1.249   8.444 -0.0871  0.2527 -0.2015
   76SLPC  H18X 6926   0.434   1.300   8.484 -0.2332  1.2173 -1.0744
   76SLPC  H18Y 6927   0.385   1.205   8.351 -0.5305  0.7834 -0.6563
   76SLPC  H18Z 6928   0.305   1.171   8.513 -1.2506 -0.5772 -1.7355
   77SLPC     N 6929   1.667   0.858   6.247  0.3136 -0.9200  0.8674
   77SLPC   C13 6930   1.645   0.884   6.101 -0.2470  0.3733 -0.0021
   77SLPC  H13A 6931   1.709   0.951   6.045 -1.6020  0.5792 -1.3536
   77SLPC  H13B 6932   1.645   0.791   6.046 -0.2143 -0.6753  1.6793
   77SLPC  H13C 6933   1.546   0.925   6.089  0.2576  1.6806  0.1345
   77SLPC   C14 6934   1.581   0.738   6.284  0.3068 -0.2308  0.0854
   77SLPC  H14A 6935   1.607   0.691   6.378 -0.0969 -0.9043 -0.1280
   77SLPC  H14B 6936   1.478   0.772   6.289  0.2143 -0.6390  3.7716
   77SLPC  H14C 6937   1.590   0.660   6.210  0.1647 -2.5105  2.3283
   77SLPC   C15 6938   1.627   0.979   6.320 -0.0551 -0.1823 -0.5521
   77SLPC  H15A 6939   1.629   0.968   6.427 -0.5513  1.5499 -0.3323
   77SLPC  H15B 6940   1.684   1.064   6.286 -1.2933 -0.6278 -4.3162
   77SLPC  H15C 6941   1.523   1.009   6.311 -0.2454 -1.1050 -1.6670
   77SLPC   C12 6942   1.817   0.834   6.261  0.0836  0.3806 -0.2397
   77SLPC  H12A 6943   1.865   0.922   6.221  1.1295  0.0737  0.3135
   77SLPC  H12B 6944   1.848   0.746   6.206  1.4114 -0.8181  2.2653
   77SLPC   C11 6945   1.875   0.813   6.407 -0.3231 -0.2615  0.7262
   77SLPC  H11A 6946   1.875   0.909   6.463  2.2343 -0.9937  2.1373
   77SLPC  H11B 6947   1.980   0.777   6.403 -0.7058 -1.4924  1.2183
   77SLPC     P 6948   1.836   0.564   6.498 -0.7127 -0.2795 -0.3281
   77SLPC   O13 6949   1.718   0.495   6.548  0.5929  0.1504  0.3711
   77SLPC   O14 6950   1.891   0.515   6.374 -0.1049  0.2684 -0.5166
   77SLPC   O12 6951   1.800   0.718   6.483  0.5656  0.0910  0.1672
   77SLPC   O11 6952   1.949   0.554   6.614 -0.1917 -0.3111 -0.0575
   77SLPC    C1 6953   1.926   0.639   6.730  0.4583  0.5163 -0.2337
   77SLPC    HA 6954   1.982   0.734   6.726  1.7104 -0.2029 -0.3641
   77SLPC    HB 6955   1.818   0.662   6.745  1.0065  1.9311  1.9984
   77SLPC    C2 6956   1.960   0.554   6.854 -0.1688  0.0924 -0.3513
   77SLPC    HS 6957   1.941   0.617   6.944 -2.5065  0.5476 -1.1065
   77SLPC   O21 6958   2.100   0.516   6.850  0.3173 -0.1454 -0.4232
   77SLPC   C21 6959   2.185   0.612   6.880 -0.6929 -0.0679  0.2812
   77SLPC   O22 6960   2.151   0.724   6.918  0.1012 -0.2060 -0.1084
   77SLPC   C22 6961   2.329   0.550   6.878  0.2945  0.1912  0.5043
   77SLPC   H2R 6962   2.346   0.491   6.785 -1.2665 -0.3871  0.5638
   77SLPC   H2S 6963   2.400   0.634   6.892  0.6977 -0.2511  1.1559
   77SLPC    C3 6964   1.865   0.433   6.881 -0.6665  0.3851  0.0301
   77SLPC    HX 6965   1.864   0.364   6.794  0.8323 -0.8933  0.9762
   77SLPC    HY 6966   1.758   0.460   6.888 -0.9378 -0.6431  0.0636
   77SLPC   O31 6967   1.912   0.369   7.008 -0.4278 -0.1872  0.2356
   77SLPC   C31 6968   1.988   0.258   6.995  0.2049 -0.2711  0.2962
   77SLPC   O32 6969   2.028   0.216   6.886  0.2439 -1.0656  0.4828
   77SLPC   C32 6970   2.000   0.193   7.118 -0.1170  0.3313  0.0771
   77SLPC   H2X 6971   1.896   0.173   7.153  0.8467 -0.3463  2.8533
   77SLPC   H2Y 6972   2.044   0.259   7.196 -0.7089 -1.2167  1.8022
   77SLPC   C23 6973   2.360   0.445   6.994  0.6753  0.5009 -0.2144
   77SLPC   H3R 6974   2.458   0.397   6.975  0.2653  0.1865 -1.6524
   77SLPC   H3S 6975   2.285   0.363   6.989  0.3030  0.7646  0.7159
   77SLPC   C24 6976   2.370   0.511   7.137 -0.3228  0.6640  0.8811
   77SLPC   H4R 6977   2.414   0.612   7.140 -0.5069  0.8088 -0.6038
   77SLPC   H4S 6978   2.426   0.437   7.198  0.6723 -0.9011 -1.7617
   77SLPC   C25 6979   2.231   0.545   7.200 -0.2250  0.2926  0.9822
   77SLPC   H5R 6980   2.178   0.448   7.209  0.3308 -0.2519 -1.0267
   77SLPC   H5S 6981   2.169   0.614   7.139  0.4269 -1.3143 -1.6772
   77SLPC   C26 6982   2.247   0.618   7.337 -0.3818  0.2291 -0.4413
   77SLPC   H6R 6983   2.264   0.724   7.308  0.0734 -0.3474 -2.4651
   77SLPC   H6S 6984   2.327   0.570   7.398 -1.9489 -0.5530  1.0953
   77SLPC   C27 6985   2.114   0.618   7.423  0.4749  0.1329 -0.2726
   77SLPC   H7R 6986   2.038   0.683   7.375  0.6098 -0.4717 -1.3401
   77SLPC   H7S 6987   2.129   0.668   7.521  0.1834  0.5021 -0.4158
   77SLPC   C28 6988   2.072   0.474   7.457  0.3548  1.0663 -0.5737
   77SLPC   H8R 6989   2.058   0.410   7.367 -0.8744  0.1305  0.2393
   77SLPC   H8S 6990   1.978   0.481   7.516  1.9315  0.0512  2.3002
   77SLPC   C29 6991   2.167   0.408   7.558  0.2482 -0.1407  0.2133
   77SLPC   H9R 6992   2.244   0.342   7.515  0.4198  0.2175 -0.0336
   77SLPC  C210 6993   2.170   0.433   7.692 -0.1385  0.6328  0.6361
   77SLPC  H10R 6994   2.244   0.389   7.760 -0.3581  1.1620  1.2227
   77SLPC  C211 6995   2.067   0.518   7.765 -0.4848 -0.8883 -0.1189
   77SLPC  H11R 6996   2.020   0.592   7.697  0.2097  0.2169  0.5734
   77SLPC  H11S 6997   2.121   0.578   7.842  0.1616 -2.7574  0.9635
   77SLPC  C212 6998   1.963   0.446   7.830  0.7991  0.7657  0.1840
   77SLPC  H12R 6999   1.877   0.427   7.765  1.7932  0.6305 -1.1159
   77SLPC  C213 7000   1.946   0.418   7.960 -0.9381 -0.1262 -0.4142
   77SLPC  H13R 7001   1.849   0.386   8.001 -1.0652  0.6168 -0.1155
   77SLPC  C214 7002   2.051   0.450   8.056  0.1206  0.0483  0.3919
   77SLPC  H14R 7003   2.063   0.560   8.064 -0.9696  0.1728  0.4516
   77SLPC  H14S 7004   2.151   0.413   8.024  0.6060  0.6369  1.1847
   77SLPC  C215 7005   2.030   0.395   8.194 -0.2754  0.6193  0.1258
   77SLPC  H15R 7006   2.022   0.285   8.198  1.8798  0.4420  1.2177
   77SLPC  H15S 7007   1.935   0.426   8.243  0.5749  0.7566  1.7456
   77SLPC  C216 7008   2.134   0.439   8.302  0.5158  0.5322  0.3449
   77SLPC  H16R 7009   2.081   0.464   8.397 -2.9054  1.2486 -1.5758
   77SLPC  H16S 7010   2.181   0.535   8.273 -1.3645  0.8306 -1.9715
   77SLPC  C217 7011   2.244   0.333   8.323 -0.8004 -0.2050 -0.1577
   77SLPC  H17R 7012   2.277   0.298   8.223 -0.2979  0.7906 -0.3477
   77SLPC  H17S 7013   2.193   0.254   8.382 -0.5731 -1.0703 -1.0837
   77SLPC  C218 7014   2.380   0.385   8.393  1.1992  0.3947  0.2992
   77SLPC  H18R 7015   2.434   0.446   8.317  0.8478 -1.0105 -1.1259
   77SLPC  H18S 7016   2.444   0.296   8.411  1.1550 -0.0854 -1.7031
   77SLPC  H18T 7017   2.362   0.445   8.485  0.8274 -2.1117  1.9827
   77SLPC   C33 7018   2.087   0.059   7.106 -1.4620 -0.6558  0.6647
   77SLPC   H3X 7019   2.049   0.002   7.018 -1.2579  0.2300 -0.0065
   77SLPC   H3Y 7020   2.073   0.003   7.201  2.5598 -4.8151 -0.8192
   77SLPC   C34 7021   2.238   0.076   7.103 -0.3546 -0.2398 -0.4089
   77SLPC   H4X 7022   2.271   0.122   7.008 -1.4010  2.8356  0.6062
   77SLPC   H4Y 7023   2.281  -0.027   7.105  0.5685  0.1325 -0.6205
   77SLPC   C35 7024   2.304   0.134   7.238  1.0760 -1.1385  0.5846
   77SLPC   H5X 7025   2.271   0.062   7.315  0.6913 -1.9868 -0.3533
   77SLPC   H5Y 7026   2.259   0.231   7.270  2.1409 -0.5895  0.4659
   77SLPC   C36 7027   2.454   0.137   7.225 -0.0332  0.0239 -1.3133
   77SLPC   H6X 7028   2.471   0.208   7.142 -0.0369  2.5738  0.7444
   77SLPC   H6Y 7029   2.504   0.040   7.204  1.0309  0.2497  0.0481
   77SLPC   C37 7030   2.518   0.192   7.358  0.3477 -0.4685 -0.2576
   77SLPC   H7X 7031   2.476   0.293   7.380 -1.9700 -1.5943  0.9242
   77SLPC   H7Y 7032   2.628   0.207   7.365  0.2851 -0.4762  0.9719
   77SLPC   C38 7033   2.485   0.122   7.486  0.4762  0.0266 -0.4263
   77SLPC   H8X 7034   2.545   0.029   7.483 -1.0751 -1.0875  1.1380
   77SLPC   H8Y 7035   2.377   0.095   7.486  0.1932  0.6045 -3.9614
   77SLPC   C39 7036   2.518   0.211   7.604  0.4987  0.9052  0.6400
   77SLPC   H9X 7037   2.486   0.318   7.599 -0.4354  0.6670  1.4159
   77SLPC   H9Y 7038   2.628   0.221   7.617  0.3266  1.3419  1.8648
   77SLPC  C310 7039   2.464   0.143   7.728 -0.2498  0.2044 -0.3357
   77SLPC  H10X 7040   2.475   0.034   7.715 -0.0573  0.2911 -0.9467
   77SLPC  H10Y 7041   2.354   0.160   7.723 -0.3245 -0.6251 -2.9985
   77SLPC  C311 7042   2.527   0.205   7.856  0.1304 -0.1066  0.1945
   77SLPC  H11X 7043   2.514   0.315   7.865  1.1934 -0.0382  1.1594
   77SLPC  H11Y 7044   2.632   0.173   7.868  0.2750  0.3582  0.2063
   77SLPC  C312 7045   2.446   0.153   7.972 -0.3127  0.0520  0.0099
   77SLPC  H12X 7046   2.337   0.156   7.954 -0.0501  1.0536 -1.6799
   77SLPC  H12Y 7047   2.485   0.220   8.052 -0.4305  0.3371 -0.1701
   77SLPC  C313 7048   2.504   0.007   8.021  0.3399 -0.4626 -0.0286
   77SLPC  H13X 7049   2.610   0.029   8.048 -0.0467 -0.1544  1.2764
   77SLPC  H13Y 7050   2.489  -0.069   7.940  0.6966 -0.9163  0.3236
   77SLPC  C314 7051   2.432  -0.059   8.141 -0.0839  0.1453 -0.5748
   77SLPC  H14X 7052   2.461  -0.166   8.139 -3.0069 -1.0568  3.9967
   77SLPC  H14Y 7053   2.322  -0.065   8.123  0.0572 -3.1906 -0.9238
   77SLPC  C315 7054   2.459   0.017   8.269 -0.7928  0.0144 -0.5946
   77SLPC  H15X 7055   2.432   0.123   8.251 -1.4569 -0.4861 -2.8376
   77SLPC  H15Y 7056   2.567   0.017   8.291 -1.0378 -0.6781  0.6938
   77SLPC  C316 7057   2.387  -0.039   8.395  0.1619 -0.7657 -0.2535
   77SLPC  H16X 7058   2.393   0.043   8.469  1.0225 -0.3880 -0.7290
   77SLPC  H16Y 7059   2.441  -0.125   8.439 -1.7857 -0.3902  3.2135
   77SLPC  C317 7060   2.239  -0.082   8.383 -0.5045 -0.5516  0.3857
   77SLPC  H17X 7061   2.229  -0.163   8.308 -0.5497 -0.2808  0.0965
   77SLPC  H17Y 7062   2.182  -0.001   8.334  0.4524 -0.7100 -1.0723
   77SLPC  C318 7063   2.183  -0.126   8.519 -0.1999 -0.7794  0.1918
   77SLPC  H18X 7064   2.124  -0.218   8.501 -1.2648  0.0235 -0.5186
   77SLPC  H18Y 7065   2.122  -0.041   8.556 -1.4248 -1.1484 -0.8972
   77SLPC  H18Z 7066   2.272  -0.148   8.582  0.8009 -2.3609 -1.6409
   78SLPC     N 7067   5.117   1.750   5.768  0.7940  0.0889  0.0823
   78SLPC   C13 7068   5.227   1.836   5.712 -0.0229  0.1753  0.5066
   78SLPC  H13A 7069   5.283   1.791   5.632  0.0847 -1.0692  1.2601
   78SLPC  H13B 7070   5.174   1.918   5.665  1.0150  0.5094 -0.1138
   78SLPC  H13C 7071   5.300   1.868   5.785  0.8763 -1.0144  0.1571
   78SLPC   C14 7072   5.163   1.614   5.808  0.1536 -0.0995  0.2145
   78SLPC  H14A 7073   5.219   1.617   5.900 -0.6333 -3.8916  0.9604
   78SLPC  H14B 7074   5.082   1.552   5.842 -0.1611 -0.3760 -0.9899
   78SLPC  H14C 7075   5.220   1.563   5.732  0.5620  0.0707  0.4021
   78SLPC   C15 7076   5.011   1.729   5.667 -0.3468  0.1668  0.8194
   78SLPC  H15A 7077   5.054   1.684   5.579 -1.4236  0.2089  0.2472
   78SLPC  H15B 7078   4.936   1.669   5.716  0.1463 -0.7491  0.4745
   78SLPC  H15C 7079   4.958   1.822   5.649  0.2467  0.1583 -1.3406
   78SLPC   C12 7080   5.057   1.830   5.890  0.4674  0.4964 -0.2472
   78SLPC  H12A 7081   4.998   1.910   5.849 -3.2419 -1.4207  0.8697
   78SLPC  H12B 7082   5.125   1.887   5.951 -0.8914  1.1360  0.7233
   78SLPC   C11 7083   4.952   1.756   5.987  0.0220 -0.1656  0.0002
   78SLPC  H11A 7084   4.874   1.708   5.924 -0.5074  1.3389 -0.5403
   78SLPC  H11B 7085   4.897   1.834   6.044 -0.0252 -0.2233  0.0342
   78SLPC     P 7086   4.941   1.546   6.149  0.7468 -0.0644 -0.4301
   78SLPC   O13 7087   4.813   1.578   6.222  0.5466  0.2286 -0.2868
   78SLPC   O14 7088   4.926   1.439   6.042  0.0525 -0.0942  0.5719
   78SLPC   O12 7089   5.008   1.670   6.083  0.0215 -0.4450  0.4686
   78SLPC   O11 7090   5.061   1.506   6.258  0.0445  0.1894  0.2007
   78SLPC    C1 7091   5.096   1.604   6.355 -0.0328 -0.9949 -0.8545
   78SLPC    HA 7092   5.206   1.622   6.355 -0.1877  0.0270 -0.3992
   78SLPC    HB 7093   5.045   1.702   6.342  1.0951 -0.3912 -0.9430
   78SLPC    C2 7094   5.059   1.560   6.504 -0.0178  0.6431  0.3905
   78SLPC    HS 7095   5.114   1.619   6.580  1.0586 -0.2910  0.3676
   78SLPC   O21 7096   5.083   1.418   6.524  0.8582 -0.4729  0.1958
   78SLPC   C21 7097   5.212   1.381   6.515  0.3001  0.3920 -0.0002
   78SLPC   O22 7098   5.306   1.455   6.499 -0.2947  0.0777 -0.3468
   78SLPC   C22 7099   5.230   1.224   6.538  0.6312 -0.4569 -0.4491
   78SLPC   H2R 7100   5.133   1.182   6.571 -0.9758  3.8071  0.8813
   78SLPC   H2S 7101   5.266   1.187   6.439  0.7685  3.3846 -1.9920
   78SLPC    C3 7102   4.913   1.589   6.528  0.5481 -0.2734  1.1338
   78SLPC    HX 7103   4.864   1.534   6.445  2.0146  0.4875 -0.2930
   78SLPC    HY 7104   4.895   1.698   6.515 -0.9326 -0.7148 -1.1349
   78SLPC   O31 7105   4.869   1.547   6.659 -0.1078  0.5023 -0.4407
   78SLPC   C31 7106   4.910   1.629   6.760 -0.1251 -0.0978 -0.0748
   78SLPC   O32 7107   4.953   1.742   6.745  0.3275  0.6223  0.3066
   78SLPC   C32 7108   4.890   1.557   6.890 -0.1299 -0.3709 -0.6277
   78SLPC   H2X 7109   4.830   1.464   6.877  3.3000 -3.1677  1.5974
   78SLPC   H2Y 7110   4.842   1.635   6.953  0.8234 -1.7523  1.9896
   78SLPC   C23 7111   5.329   1.190   6.651  0.1818 -0.0865  0.1360
   78SLPC   H3R 7112   5.433   1.216   6.620 -0.3679 -1.2640 -3.1275
   78SLPC   H3S 7113   5.317   1.081   6.668 -1.8429  0.2638  1.1593
   78SLPC   C24 7114   5.287   1.252   6.790 -0.2959 -0.4247  0.7476
   78SLPC   H4R 7115   5.180   1.224   6.806 -1.0807  1.2851 -0.9961
   78SLPC   H4S 7116   5.286   1.363   6.785 -0.5706 -0.4554 -2.7728
   78SLPC   C25 7117   5.375   1.187   6.903 -0.7320  0.0576  0.3630
   78SLPC   H5R 7118   5.483   1.194   6.877 -0.5970 -3.6515 -0.6490
   78SLPC   H5S 7119   5.348   1.079   6.900 -0.6802  0.0467 -2.1985
   78SLPC   C26 7120   5.351   1.245   7.038  0.2122 -0.5159 -0.5632
   78SLPC   H6R 7121   5.268   1.195   7.091  1.0601 -1.6327 -0.2477
   78SLPC   H6S 7122   5.357   1.356   7.047  0.5061 -0.6080  0.4901
   78SLPC   C27 7123   5.475   1.207   7.121  0.2585  0.6641 -0.5567
   78SLPC   H7R 7124   5.564   1.242   7.065  0.0343  2.5597  0.1780
   78SLPC   H7S 7125   5.471   1.098   7.139  0.1446  1.0320  1.9698
   78SLPC   C28 7126   5.484   1.270   7.259 -0.4558 -0.2768  0.6747
   78SLPC   H8R 7127   5.493   1.380   7.246  0.6438 -0.4637 -0.3213
   78SLPC   H8S 7128   5.581   1.251   7.309 -0.9374 -2.6031  0.8347
   78SLPC   C29 7129   5.372   1.229   7.351  0.0702 -0.1308  0.3244
   78SLPC   H9R 7130   5.338   1.125   7.363 -2.3380  0.3571 -1.5296
   78SLPC  C210 7131   5.309   1.326   7.419 -0.4304 -0.4426 -0.2906
   78SLPC  H10R 7132   5.231   1.290   7.488  0.6495 -3.7095 -0.6239
   78SLPC  C211 7133   5.319   1.477   7.427  0.3400 -0.3737  1.1070
   78SLPC  H11R 7134   5.247   1.521   7.498  1.1945  0.6776  1.3628
   78SLPC  H11S 7135   5.294   1.522   7.328 -1.2784 -0.7079  1.3460
   78SLPC  C212 7136   5.454   1.523   7.466  1.0500  0.0900 -0.2152
   78SLPC  H12R 7137   5.508   1.445   7.521  0.9991 -0.4718 -0.9341
   78SLPC  C213 7138   5.517   1.643   7.457 -0.3815 -0.1890 -0.3001
   78SLPC  H13R 7139   5.620   1.651   7.494 -0.2659 -0.9351 -0.4423
   78SLPC  C214 7140   5.466   1.776   7.401  0.1278  0.2382 -0.4278
   78SLPC  H14R 7141   5.490   1.856   7.474  0.5511  0.5026 -0.8530
   78SLPC  H14S 7142   5.355   1.774   7.411  0.0663  0.0211 -1.0500
   78SLPC  C215 7143   5.506   1.800   7.259 -0.0239  0.8359 -0.8199
   78SLPC  H15R 7144   5.615   1.788   7.241 -0.1132  0.0127 -0.8069
   78SLPC  H15S 7145   5.468   1.900   7.229  0.3737  1.3764  0.4305
   78SLPC  C216 7146   5.440   1.701   7.163  0.5542 -0.5111  0.2558
   78SLPC  H16R 7147   5.334   1.693   7.195  0.5498 -1.0894  0.0992
   78SLPC  H16S 7148   5.475   1.597   7.171 -0.2663 -0.8364 -0.1672
   78SLPC  C217 7149   5.453   1.743   7.018  0.0113 -0.2144  0.4268
   78SLPC  H17R 7150   5.557   1.730   6.979  0.5205  2.3184  0.7069
   78SLPC  H17S 7151   5.430   1.852   7.014 -0.4289 -0.3262 -0.0305
   78SLPC  C218 7152   5.355   1.684   6.908  0.2574  1.3769 -0.5429
   78SLPC  H18R 7153   5.393   1.720   6.811 -2.8890  0.2686 -2.3340
   78SLPC  H18S 7154   5.246   1.704   6.922 -0.6501 -0.5452 -3.8045
   78SLPC  H18T 7155   5.380   1.577   6.895  0.8559  1.6899 -2.0867
   78SLPC   C33 7156   5.020   1.521   6.969  0.4218 -0.4109 -0.1518
   78SLPC   H3X 7157   5.048   1.619   7.014 -2.5080 -0.8904  3.0656
   78SLPC   H3Y 7158   5.090   1.478   6.894  0.8554  1.5922 -0.9618
   78SLPC   C34 7159   4.998   1.432   7.093  0.3201 -0.2462  0.5583
   78SLPC   H4X 7160   5.094   1.429   7.150  0.8950  0.3793 -0.3521
   78SLPC   H4Y 7161   4.974   1.334   7.049  0.6140  0.7069 -1.8542
   78SLPC   C35 7162   4.893   1.476   7.191  0.6793  0.3694 -0.4010
   78SLPC   H5X 7163   4.811   1.510   7.125 -0.4197 -1.5061 -0.0613
   78SLPC   H5Y 7164   4.940   1.564   7.240  0.6599 -0.6099  1.4707
   78SLPC   C36 7165   4.851   1.376   7.308 -0.3880 -0.3986  0.2085
   78SLPC   H6X 7166   4.879   1.280   7.260  0.7173  0.3172 -0.6348
   78SLPC   H6Y 7167   4.742   1.359   7.326 -0.4870 -0.9009 -0.7857
   78SLPC   C37 7168   4.910   1.411   7.441  0.3384 -0.0710 -0.3791
   78SLPC   H7X 7169   5.020   1.423   7.439  0.4032 -0.2313  1.0354
   78SLPC   H7Y 7170   4.881   1.330   7.512 -0.7447 -0.2381 -0.9933
   78SLPC   C38 7171   4.861   1.545   7.498  0.1065  0.3930  0.5127
   78SLPC   H8X 7172   4.750   1.537   7.492  0.1444 -0.9136  1.2130
   78SLPC   H8Y 7173   4.893   1.634   7.439  0.0517  0.7264  0.9800
   78SLPC   C39 7174   4.896   1.567   7.647 -0.5232 -0.3175  0.2974
   78SLPC   H9X 7175   4.869   1.474   7.702  2.4138 -2.2805 -1.2964
   78SLPC   H9Y 7176   4.839   1.652   7.689 -0.5902 -0.6182  0.8318
   78SLPC  C310 7177   5.052   1.599   7.671  0.0677  0.1990  0.0023
   78SLPC  H10X 7178   5.086   1.658   7.583  0.2222 -0.5143 -0.4153
   78SLPC  H10Y 7179   5.105   1.503   7.656  0.4415  0.6707 -2.0264
   78SLPC  C311 7180   5.084   1.677   7.796 -0.2092 -0.4368  0.0845
   78SLPC  H11X 7181   5.054   1.619   7.885  0.1058  0.0366  0.5014
   78SLPC  H11Y 7182   5.010   1.759   7.790 -0.2626 -0.5079 -0.2765
   78SLPC  C312 7183   5.222   1.742   7.807 -0.1782  0.0844 -0.4703
   78SLPC  H12X 7184   5.214   1.808   7.896 -0.8990 -1.9222  1.0372
   78SLPC  H12Y 7185   5.252   1.807   7.722  0.0191 -0.6429 -0.9712
   78SLPC  C313 7186   5.343   1.650   7.825 -0.1790  0.3365 -0.3031
   78SLPC  H13X 7187   5.361   1.589   7.734  2.6228 -0.2427  0.5419
   78SLPC  H13Y 7188   5.312   1.576   7.902 -0.3149 -1.4504 -1.9988
   78SLPC  C314 7189   5.470   1.738   7.870  0.3554  0.5153  0.7298
   78SLPC  H14X 7190   5.442   1.793   7.962 -0.7050  0.2388  0.5805
   78SLPC  H14Y 7191   5.498   1.805   7.786  1.4796 -0.1527  0.5427
   78SLPC  C315 7192   5.598   1.658   7.918 -0.2932 -0.2692 -0.3859
   78SLPC  H15X 7193   5.678   1.727   7.954 -1.3899 -0.0898  1.8842
   78SLPC  H15Y 7194   5.637   1.606   7.828 -0.8118 -0.3224 -0.5816
   78SLPC  C316 7195   5.572   1.573   8.037  0.5727  0.9345 -0.1680
   78SLPC  H16X 7196   5.531   1.477   7.998  1.7656  0.5163 -0.4136
   78SLPC  H16Y 7197   5.495   1.607   8.109  1.7938  1.0118  1.1309
   78SLPC  C317 7198   5.704   1.548   8.117 -0.1095  0.4904 -0.1877
   78SLPC  H17X 7199   5.737   1.645   8.161 -0.5000 -0.7812  3.2096
   78SLPC  H17Y 7200   5.777   1.503   8.048  1.0050 -1.2756  2.0041
   78SLPC  C318 7201   5.695   1.451   8.241  0.2653 -0.2144  0.4776
   78SLPC  H18X 7202   5.799   1.431   8.276  0.2674 -3.1329 -0.9107
   78SLPC  H18Y 7203   5.641   1.361   8.206  1.5079  0.3105 -3.2893
   78SLPC  H18Z 7204   5.634   1.488   8.326  1.5819  1.4145  0.7715
   79SLPC     N 7205   2.437   2.839   5.910  1.2147  0.2996  0.4651
   79SLPC   C13 7206   2.306   2.778   5.860 -0.3943  0.1016  1.0757
   79SLPC  H13A 7207   2.227   2.812   5.925  0.3407  1.8096  1.1496
   79SLPC  H13B 7208   2.298   2.813   5.758  2.8129  0.6117  0.9130
   79SLPC  H13C 7209   2.300   2.671   5.866 -1.7685  0.1870  1.6576
   79SLPC   C14 7210   2.425   2.985   5.939 -1.3198 -0.3167 -0.1436
   79SLPC  H14A 7211   2.523   3.020   5.970 -1.8806  3.0822 -1.6745
   79SLPC  H14B 7212   2.404   3.049   5.855  0.0770  1.6088  0.8858
   79SLPC  H14C 7213   2.355   3.016   6.015 -0.1587  0.5583  0.6044
   79SLPC   C15 7214   2.545   2.809   5.817  0.3541  0.4650  0.2923
   79SLPC  H15A 7215   2.555   2.704   5.792  2.9424  0.3881  1.3686
   79SLPC  H15B 7216   2.518   2.850   5.720  0.7524 -1.7670 -0.8252
   79SLPC  H15C 7217   2.642   2.840   5.851  1.4502 -0.3664 -1.8926
   79SLPC   C12 7218   2.459   2.771   6.041 -0.3475  0.5974  0.1485
   79SLPC  H12A 7219   2.469   2.664   6.028  2.6667  0.9302 -1.1682
   79SLPC  H12B 7220   2.376   2.785   6.108 -0.1440  0.3904  0.4497
   79SLPC   C11 7221   2.569   2.819   6.138 -0.5625  0.0976 -0.3260
   79SLPC  H11A 7222   2.662   2.821   6.076 -1.1923 -0.5901 -1.3160
   79SLPC  H11B 7223   2.589   2.754   6.225 -1.2457 -0.1093 -0.3237
   79SLPC     P 7224   2.452   2.988   6.305  0.2137 -0.1051  0.2340
   79SLPC   O13 7225   2.463   3.129   6.339 -0.0637 -0.2675  0.0992
   79SLPC   O14 7226   2.316   2.941   6.266  0.0572 -0.1176 -0.2900
   79SLPC   O12 7227   2.553   2.955   6.194  0.1500  0.1316  0.8429
   79SLPC   O11 7228   2.507   2.912   6.426  0.0379 -0.7101 -0.3290
   79SLPC    C1 7229   2.437   2.797   6.470  0.3434 -0.0489 -0.0336
   79SLPC    HA 7230   2.374   2.750   6.391  0.7654  1.0584 -1.0577
   79SLPC    HB 7231   2.518   2.727   6.502  0.9577  0.6399 -0.0686
   79SLPC    C2 7232   2.353   2.812   6.590 -0.0692  0.4496 -0.0726
   79SLPC    HS 7233   2.293   2.905   6.581 -0.5340  0.2944  1.1127
   79SLPC   O21 7234   2.438   2.795   6.706 -0.0504 -0.4886  0.0457
   79SLPC   C21 7235   2.496   2.898   6.757 -0.2229  0.3327 -0.2240
   79SLPC   O22 7236   2.499   3.011   6.713 -0.2752 -0.4735  0.4720
   79SLPC   C22 7237   2.577   2.867   6.891  0.1989  0.1830  0.6145
   79SLPC   H2R 7238   2.634   2.772   6.875 -1.5006 -0.7752  0.0473
   79SLPC   H2S 7239   2.640   2.955   6.916  2.1783 -0.9146 -0.2060
   79SLPC    C3 7240   2.248   2.707   6.601  0.2743  0.5723 -0.1856
   79SLPC    HX 7241   2.309   2.620   6.569 -1.8956 -0.2563 -2.4480
   79SLPC    HY 7242   2.170   2.721   6.523  0.3123  0.3169 -0.2719
   79SLPC   O31 7243   2.181   2.690   6.728  0.5136 -0.1047 -0.4606
   79SLPC   C31 7244   2.093   2.784   6.752  0.1069  0.8270  0.2971
   79SLPC   O32 7245   2.053   2.869   6.677 -0.1227 -0.0513 -0.3214
   79SLPC   C32 7246   2.018   2.760   6.883  0.2883 -0.6147 -0.3994
   79SLPC   H2X 7247   1.994   2.652   6.887 -0.1390 -0.5547 -1.1292
   79SLPC   H2Y 7248   1.919   2.808   6.865 -0.0820 -1.2284 -0.0565
   79SLPC   C23 7249   2.483   2.850   7.007  0.1502 -0.4391 -0.4787
   79SLPC   H3R 7250   2.412   2.764   7.005  0.4718 -0.7217  0.0511
   79SLPC   H3S 7251   2.420   2.941   7.000  1.2627  0.3505 -0.4172
   79SLPC   C24 7252   2.552   2.851   7.145  0.0031  0.0714  0.3341
   79SLPC   H4R 7253   2.466   2.869   7.213 -0.7882  0.0205 -0.6285
   79SLPC   H4S 7254   2.625   2.933   7.160  0.3221  0.0504 -0.9841
   79SLPC   C25 7255   2.615   2.717   7.189 -0.1627 -1.0870  0.0906
   79SLPC   H5R 7256   2.709   2.698   7.133 -0.8997 -0.5895 -1.3446
   79SLPC   H5S 7257   2.548   2.632   7.163 -1.0836 -0.3347 -0.0270
   79SLPC   C26 7258   2.642   2.706   7.338  0.5365  0.4016  0.8621
   79SLPC   H6R 7259   2.552   2.743   7.391 -0.2114 -1.5125  1.0069
   79SLPC   H6S 7260   2.723   2.776   7.369  0.3631  1.8960 -1.7488
   79SLPC   C27 7261   2.679   2.555   7.367  0.3136  0.1712  1.0867
   79SLPC   H7R 7262   2.758   2.519   7.297 -0.0765  0.7506  0.3304
   79SLPC   H7S 7263   2.586   2.499   7.342  1.8007 -2.0261  0.1556
   79SLPC   C28 7264   2.722   2.526   7.513 -0.7028 -0.1943 -0.0818
   79SLPC   H8R 7265   2.739   2.416   7.519  0.7988  0.1077  2.4871
   79SLPC   H8S 7266   2.631   2.552   7.571 -0.9705  0.9307 -0.9772
   79SLPC   C29 7267   2.851   2.600   7.566  0.1243  0.9655  0.2823
   79SLPC   H9R 7268   2.931   2.602   7.490 -1.1280  1.7061 -1.0692
   79SLPC  C210 7269   2.865   2.671   7.678 -0.3045 -0.5507 -0.8060
   79SLPC  H10R 7270   2.964   2.717   7.693 -0.9221  0.3150  1.0623
   79SLPC  C211 7271   2.756   2.684   7.792  0.1818  0.3595 -0.3865
   79SLPC  H11R 7272   2.683   2.600   7.791 -2.0097  2.1552 -0.6851
   79SLPC  H11S 7273   2.691   2.774   7.788  0.7446  0.7132 -2.7780
   79SLPC  C212 7274   2.830   2.683   7.922  0.4557 -0.2338 -0.3973
   79SLPC  H12R 7275   2.921   2.622   7.926  1.6703  1.6014  1.5782
   79SLPC  C213 7276   2.808   2.770   8.026 -0.3354  0.3240  0.0545
   79SLPC  H13R 7277   2.859   2.751   8.122  0.3842  1.0911 -0.1638
   79SLPC  C214 7278   2.702   2.879   8.034 -0.6403  0.1972 -0.0571
   79SLPC  H14R 7279   2.619   2.845   7.969 -0.2335  1.0739 -1.0567
   79SLPC  H14S 7280   2.736   2.971   7.984 -0.4721  0.5036  0.6112
   79SLPC  C215 7281   2.643   2.904   8.169  0.5852  0.1224 -0.0285
   79SLPC  H15R 7282   2.576   2.821   8.200 -1.0967  1.3122 -0.2854
   79SLPC  H15S 7283   2.569   2.985   8.150  0.2555 -0.3833 -0.9572
   79SLPC  C216 7284   2.753   2.953   8.268 -0.3386  0.2611  0.3158
   79SLPC  H16R 7285   2.781   3.055   8.233  0.7518 -1.1839 -3.4649
   79SLPC  H16S 7286   2.843   2.889   8.251 -1.4639 -1.3982  0.4381
   79SLPC  C217 7287   2.700   2.931   8.405  0.1711  0.7872  0.1015
   79SLPC  H17R 7288   2.793   2.925   8.466 -1.2171  0.6423  2.3471
   79SLPC  H17S 7289   2.663   2.827   8.420  2.6556 -0.1343  0.2847
   79SLPC  C218 7290   2.618   3.048   8.463 -0.2579  0.8861  0.2704
   79SLPC  H18R 7291   2.509   3.034   8.447  0.0985 -2.3867 -0.0297
   79SLPC  H18S 7292   2.646   3.145   8.416  3.1927 -0.4031 -0.6624
   79SLPC  H18T 7293   2.637   3.061   8.572 -1.5893  2.2813  0.3696
   79SLPC   C33 7294   2.107   2.815   6.995  0.1860  0.0100 -0.4769
   79SLPC   H3X 7295   2.159   2.911   6.974  0.5952  0.0127  0.5024
   79SLPC   H3Y 7296   2.184   2.742   7.027  0.2192  1.1867  2.4597
   79SLPC   C34 7297   2.017   2.855   7.115  0.1205  0.0721 -0.5598
   79SLPC   H4X 7298   1.953   2.768   7.138  0.3792  0.5495  2.2457
   79SLPC   H4Y 7299   1.946   2.938   7.094 -2.1174 -1.6477 -0.1703
   79SLPC   C35 7300   2.089   2.881   7.246  0.1025  0.5271  0.6485
   79SLPC   H5X 7301   2.011   2.901   7.323 -1.4202 -0.5868 -0.5378
   79SLPC   H5Y 7302   2.165   2.961   7.234  2.8163 -1.9684 -0.0292
   79SLPC   C36 7303   2.162   2.756   7.315 -0.6654 -0.1890 -0.8312
   79SLPC   H6X 7304   2.235   2.709   7.246 -1.4654 -1.7109 -0.7006
   79SLPC   H6Y 7305   2.084   2.679   7.332 -0.2333 -0.4297  0.1793
   79SLPC   C37 7306   2.232   2.792   7.448 -0.5602  0.0077  0.1351
   79SLPC   H7X 7307   2.287   2.885   7.421 -0.9301  0.4295  0.8163
   79SLPC   H7Y 7308   2.304   2.709   7.468 -0.2644  0.1872 -0.1676
   79SLPC   C38 7309   2.137   2.824   7.559  0.1789 -0.3947  0.1328
   79SLPC   H8X 7310   2.081   2.733   7.589  2.6248 -2.0404  0.0356
   79SLPC   H8Y 7311   2.074   2.907   7.521  0.7422  0.5365  1.1965
   79SLPC   C39 7312   2.216   2.856   7.683 -0.7436  0.2578  0.0481
   79SLPC   H9X 7313   2.257   2.957   7.663  1.5538 -0.4618  0.8986
   79SLPC   H9Y 7314   2.295   2.778   7.689 -1.3096 -0.8647 -3.9857
   79SLPC  C310 7315   2.137   2.856   7.810  0.3521 -0.3578  0.1753
   79SLPC  H10X 7316   2.094   2.754   7.813 -0.6761  0.0674  2.9370
   79SLPC  H10Y 7317   2.054   2.930   7.801  0.2103 -0.2474  2.0779
   79SLPC  C311 7318   2.217   2.883   7.940  0.1260  0.0293  0.0449
   79SLPC  H11X 7319   2.274   2.979   7.940  0.5815 -0.2388 -0.1252
   79SLPC  H11Y 7320   2.296   2.805   7.940 -1.7257 -1.9373 -0.5700
   79SLPC  C312 7321   2.131   2.881   8.067 -1.0833 -0.2508  0.4524
   79SLPC  H12X 7322   2.090   2.779   8.079  2.3040 -2.1667 -2.4153
   79SLPC  H12Y 7323   2.033   2.933   8.059 -1.2185 -0.7720 -2.1229
   79SLPC  C313 7324   2.206   2.922   8.199 -0.1522  0.8797  0.1906
   79SLPC  H13X 7325   2.188   3.029   8.220 -4.5827  0.2316  0.7667
   79SLPC  H13Y 7326   2.314   2.899   8.191 -0.4747 -0.5109 -0.7020
   79SLPC  C314 7327   2.152   2.828   8.313  0.3223  0.0396  0.1247
   79SLPC  H14X 7328   2.148   2.730   8.261  0.5908 -0.1947  0.5427
   79SLPC  H14Y 7329   2.044   2.850   8.329 -0.4555 -1.3863 -2.4532
   79SLPC  C315 7330   2.244   2.834   8.434  0.3318  0.6140  0.0229
   79SLPC  H15X 7331   2.293   2.934   8.439  0.6499  0.4498  0.2192
   79SLPC  H15Y 7332   2.323   2.761   8.406  0.7859  1.4502 -0.9340
   79SLPC  C316 7333   2.171   2.798   8.559  0.1432 -0.3116 -0.8037
   79SLPC  H16X 7334   2.141   2.691   8.563  0.1785 -0.2967 -0.0264
   79SLPC  H16Y 7335   2.081   2.864   8.564 -1.0999 -2.0383  2.2016
   79SLPC  C317 7336   2.250   2.823   8.690 -0.1354  0.7735  0.4088
   79SLPC  H17X 7337   2.262   2.933   8.704 -0.7675  1.1539 -1.6795
   79SLPC  H17Y 7338   2.352   2.780   8.677 -0.1823  0.8391 -0.2005
   79SLPC  C318 7339   2.175   2.761   8.812 -0.3563 -0.0406 -0.3010
   79SLPC  H18X 7340   2.067   2.785   8.804  0.0214  1.2145 -2.4290
   79SLPC  H18Y 7341   2.215   2.816   8.900  1.8258 -0.3627 -1.0222
   79SLPC  H18Z 7342   2.195   2.653   8.824 -1.1488 -0.2953 -1.1463
   80SLPC     N 7343   3.675   6.720   6.196 -0.0008  0.1702  0.1209
   80SLPC   C13 7344   3.615   6.718   6.337  0.5256  1.0301  0.3776
   80SLPC  H13A 7345   3.649   6.809   6.384 -0.0985  1.9339 -0.8724
   80SLPC  H13B 7346   3.507   6.720   6.330  0.2472 -2.5306  1.4602
   80SLPC  H13C 7347   3.646   6.637   6.402 -0.8669 -0.9597 -1.3305
   80SLPC   C14 7348   3.661   6.588   6.141 -0.2564  0.0219 -0.0165
   80SLPC  H14A 7349   3.726   6.563   6.059  0.0711 -2.1127  0.8284
   80SLPC  H14B 7350   3.687   6.517   6.218  0.6326  1.4361  1.0262
   80SLPC  H14C 7351   3.556   6.568   6.125 -0.5664 -0.1491  2.0071
   80SLPC   C15 7352   3.826   6.758   6.215  0.9057 -0.2589  0.1392
   80SLPC  H15A 7353   3.873   6.693   6.289  2.4540  1.5474  0.8157
   80SLPC  H15B 7354   3.872   6.741   6.119 -1.6011 -1.5989 -0.9217
   80SLPC  H15C 7355   3.829   6.860   6.250 -1.5558 -0.1033  0.0839
   80SLPC   C12 7356   3.611   6.820   6.101  0.0877  0.6428  0.0340
   80SLPC  H12A 7357   3.669   6.811   6.011 -0.1159  0.1365 -0.0466
   80SLPC  H12B 7358   3.638   6.918   6.139 -1.1104  1.4672 -1.1580
   80SLPC   C11 7359   3.461   6.808   6.077 -0.4337  0.2443  0.1735
   80SLPC  H11A 7360   3.432   6.707   6.043 -0.5962  0.1715  0.5312
   80SLPC  H11B 7361   3.439   6.881   5.996  0.5706  1.0651  0.6065
   80SLPC     P 7362   3.331   6.987   6.222 -0.1456 -0.2046  0.1391
   80SLPC   O13 7363   3.421   7.093   6.161  0.0068  0.1162  0.0990
   80SLPC   O14 7364   3.187   7.013   6.182 -0.0449  0.2041 -0.8418
   80SLPC   O12 7365   3.377   6.841   6.190 -0.8248 -0.3024  0.1505
   80SLPC   O11 7366   3.348   6.992   6.383  0.1331 -0.3139  0.2309
   80SLPC    C1 7367   3.299   6.881   6.460  0.2471  0.5084  0.1729
   80SLPC    HA 7368   3.188   6.886   6.459  0.2296  0.3626 -1.6896
   80SLPC    HB 7369   3.330   6.786   6.411  2.8739  0.7182  1.2182
   80SLPC    C2 7370   3.350   6.884   6.607 -0.4485  0.7526  0.0922
   80SLPC    HS 7371   3.315   6.980   6.651  1.0121  2.0334 -1.4133
   80SLPC   O21 7372   3.496   6.867   6.612 -0.4036 -0.0327 -0.4247
   80SLPC   C21 7373   3.550   6.913   6.721 -0.0880  0.7028 -0.1630
   80SLPC   O22 7374   3.498   6.993   6.796 -0.2002  0.4610 -0.2205
   80SLPC   C22 7375   3.694   6.859   6.745  0.5197  0.3614  0.1478
   80SLPC   H2R 7376   3.735   6.872   6.643  0.1222  0.8188  0.0434
   80SLPC   H2S 7377   3.750   6.924   6.816  3.3312  0.3644 -1.9083
   80SLPC    C3 7378   3.272   6.776   6.692  0.1778  0.2113  0.6935
   80SLPC    HX 7379   3.312   6.683   6.646  1.2896  0.9988  0.0267
   80SLPC    HY 7380   3.164   6.787   6.667  0.0902 -1.6815  0.0962
   80SLPC   O31 7381   3.311   6.788   6.827  0.0291 -0.0128 -0.4738
   80SLPC   C31 7382   3.242   6.859   6.910  0.5143  1.1098  0.2887
   80SLPC   O32 7383   3.147   6.926   6.881  0.6638  0.2114 -0.4616
   80SLPC   C32 7384   3.307   6.850   7.054  0.0280 -0.0212  0.0897
   80SLPC   H2X 7385   3.412   6.812   7.049 -0.4413 -1.2369 -1.5350
   80SLPC   H2Y 7386   3.250   6.765   7.098  0.6139  0.3130  1.5543
   80SLPC   C23 7387   3.690   6.712   6.786 -0.3655 -0.7928 -0.0256
   80SLPC   H3R 7388   3.776   6.657   6.741 -0.1864 -0.8827  0.4222
   80SLPC   H3S 7389   3.600   6.656   6.754 -1.0930  0.5676 -0.4163
   80SLPC   C24 7390   3.706   6.695   6.938  0.7350 -0.1746 -0.0882
   80SLPC   H4R 7391   3.620   6.746   6.987  0.7795  0.1134 -0.3048
   80SLPC   H4S 7392   3.788   6.761   6.973 -1.9315  1.8776  2.9373
   80SLPC   C25 7393   3.722   6.563   6.991  0.4956 -0.0320 -0.2266
   80SLPC   H5R 7394   3.786   6.498   6.928  0.6996  0.5361 -0.6153
   80SLPC   H5S 7395   3.620   6.518   6.985  0.7219 -0.4692 -1.0474
   80SLPC   C26 7396   3.774   6.564   7.134  0.3765  0.7071  0.3235
   80SLPC   H6R 7397   3.716   6.645   7.183  0.9531  1.9505 -0.9722
   80SLPC   H6S 7398   3.882   6.589   7.138  0.6251  0.1863 -1.7785
   80SLPC   C27 7399   3.734   6.441   7.215 -0.3310 -0.4927 -0.0586
   80SLPC   H7R 7400   3.777   6.351   7.166 -0.5712 -0.8683  0.4143
   80SLPC   H7S 7401   3.624   6.424   7.216 -0.9503  2.7844 -0.5096
   80SLPC   C28 7402   3.786   6.432   7.359  0.7227 -0.1901  0.1394
   80SLPC   H8R 7403   3.755   6.335   7.402  2.3890 -0.7417  0.1470
   80SLPC   H8S 7404   3.738   6.511   7.421 -1.9952 -1.2535 -0.4813
   80SLPC   C29 7405   3.935   6.432   7.371  0.3068 -0.6245 -0.1108
   80SLPC   H9R 7406   3.989   6.382   7.289  0.5140  1.5214 -1.3398
   80SLPC  C210 7407   4.001   6.481   7.468 -0.6095 -0.2991 -0.6822
   80SLPC  H10R 7408   4.109   6.459   7.465 -0.5274 -0.0746  0.3474
   80SLPC  C211 7409   3.959   6.539   7.601 -0.1094 -0.0468 -0.0813
   80SLPC  H11R 7410   3.890   6.625   7.595  0.6143  0.5172 -0.4412
   80SLPC  H11S 7411   4.048   6.585   7.649 -1.0616 -0.0771  1.7786
   80SLPC  C212 7412   3.909   6.424   7.688  0.5966  0.2770  0.1150
   80SLPC  H12R 7413   3.955   6.326   7.670  1.0095  0.4996 -0.0468
   80SLPC  C213 7414   3.826   6.432   7.793  0.1394 -0.0764  0.8466
   80SLPC  H13R 7415   3.785   6.347   7.848 -0.7964 -0.1977 -0.0156
   80SLPC  C214 7416   3.768   6.562   7.852 -0.0074  0.0048  0.3979
   80SLPC  H14R 7417   3.677   6.604   7.803  0.6894  0.0524 -0.8998
   80SLPC  H14S 7418   3.849   6.637   7.843  0.5345 -0.7663 -1.8982
   80SLPC  C215 7419   3.724   6.546   8.010 -0.1044  0.2525 -0.1555
   80SLPC  H15R 7420   3.657   6.457   8.012  1.3995 -1.0077 -1.7501
   80SLPC  H15S 7421   3.671   6.641   8.029  0.1668  0.2384  0.6970
   80SLPC  C216 7422   3.849   6.536   8.100 -0.7494 -0.3501  0.3178
   80SLPC  H16R 7423   3.918   6.618   8.073 -1.1384 -0.5695 -1.4178
   80SLPC  H16S 7424   3.906   6.444   8.076 -3.6426 -1.6204 -2.4453
   80SLPC  C217 7425   3.811   6.534   8.250 -0.5329 -0.2484  0.6682
   80SLPC  H17R 7426   3.894   6.496   8.314 -0.5830 -1.8355 -0.1585
   80SLPC  H17S 7427   3.727   6.464   8.270 -1.3514  1.2527  2.9217
   80SLPC  C218 7428   3.774   6.668   8.316  0.0555 -0.6015  0.4122
   80SLPC  H18R 7429   3.749   6.668   8.425  1.7028 -1.0218  0.8137
   80SLPC  H18S 7430   3.680   6.699   8.266  0.8745  2.2422  0.4980
   80SLPC  H18T 7431   3.852   6.743   8.294 -0.8247  0.4824  0.9237
   80SLPC   C33 7432   3.309   6.980   7.113  0.3264 -0.5671 -0.5063
   80SLPC   H3X 7433   3.215   7.038   7.105  2.4323  3.3817  0.7466
   80SLPC   H3Y 7434   3.380   7.050   7.064  0.4312  0.3817  0.9328
   80SLPC   C34 7435   3.372   6.977   7.262  0.0727  0.2051  0.2569
   80SLPC   H4X 7436   3.404   7.081   7.286  1.4081 -0.2038  0.3065
   80SLPC   H4Y 7437   3.471   6.927   7.256  0.8358  1.7087 -0.3200
   80SLPC   C35 7438   3.287   6.907   7.374 -0.2220  0.2021  0.1079
   80SLPC   H5X 7439   3.355   6.831   7.418  0.5015 -0.1457 -1.5257
   80SLPC   H5Y 7440   3.202   6.861   7.319  0.4756 -1.5260  0.4166
   80SLPC   C36 7441   3.240   7.003   7.484 -0.2341  0.1521 -0.2399
   80SLPC   H6X 7442   3.201   7.094   7.436 -0.5211  1.3225  2.0731
   80SLPC   H6Y 7443   3.337   7.030   7.532  0.4048 -0.1862 -1.3064
   80SLPC   C37 7444   3.129   6.960   7.583 -0.0909  0.0733 -0.0528
   80SLPC   H7X 7445   3.054   6.911   7.517  0.0045  0.6301 -0.5795
   80SLPC   H7Y 7446   3.089   7.052   7.631  2.7945  1.8223 -0.7821
   80SLPC   C38 7447   3.166   6.859   7.690  0.6355  0.0231 -0.0305
   80SLPC   H8X 7448   3.196   6.765   7.639 -0.2141  0.2486 -0.9721
   80SLPC   H8Y 7449   3.070   6.831   7.740  0.6016 -0.8222 -0.5340
   80SLPC   C39 7450   3.267   6.901   7.796  0.2576 -0.2440  0.2082
   80SLPC   H9X 7451   3.258   7.006   7.830  3.6847  0.9255 -1.9363
   80SLPC   H9Y 7452   3.363   6.892   7.740  0.5914  0.7038  0.6207
   80SLPC  C310 7453   3.268   6.802   7.916  0.1246 -0.4228  0.0843
   80SLPC  H10X 7454   3.256   6.701   7.871 -2.4392 -1.1506  2.1704
   80SLPC  H10Y 7455   3.177   6.809   7.979  1.0537 -0.0314  1.4265
   80SLPC  C311 7456   3.395   6.818   8.006 -0.4373 -0.3670  0.1306
   80SLPC  H11X 7457   3.477   6.822   7.931 -0.4198  0.5490  0.1917
   80SLPC  H11Y 7458   3.397   6.731   8.076  2.5956  0.0621  0.7165
   80SLPC  C312 7459   3.416   6.938   8.094  0.1943 -0.0831 -0.7803
   80SLPC  H12X 7460   3.432   7.037   8.047 -1.8105 -0.6170 -2.8055
   80SLPC  H12Y 7461   3.515   6.916   8.139 -0.0412  1.5625  0.6412
   80SLPC  C313 7462   3.305   6.962   8.202 -0.0812 -0.4063 -0.7491
   80SLPC  H13X 7463   3.331   6.881   8.274 -1.7221  1.4886  2.1777
   80SLPC  H13Y 7464   3.203   6.940   8.164 -0.8692 -0.6033  1.3578
   80SLPC  C314 7465   3.319   7.084   8.288  0.3967  0.7658  0.1344
   80SLPC  H14X 7466   3.240   7.080   8.366 -0.8647 -0.0914 -1.1466
   80SLPC  H14Y 7467   3.288   7.170   8.225 -1.1539  0.8105  0.9112
   80SLPC  C315 7468   3.459   7.098   8.348 -0.5424  0.0316 -0.2094
   80SLPC  H15X 7469   3.463   7.195   8.403  1.0358 -1.3445  2.2906
   80SLPC  H15Y 7470   3.530   7.092   8.262 -0.8341  0.5328 -0.4906
   80SLPC  C316 7471   3.480   6.985   8.449 -0.0735  0.7185  1.3481
   80SLPC  H16X 7472   3.500   6.887   8.399 -1.4439 -0.8857  3.7397
   80SLPC  H16Y 7473   3.388   6.980   8.511 -0.9188  2.7359  0.3409
   80SLPC  C317 7474   3.601   7.014   8.542  0.3747  0.6292  0.1306
   80SLPC  H17X 7475   3.595   7.102   8.610  0.5454  0.7652 -0.0296
   80SLPC  H17Y 7476   3.686   7.030   8.472  0.2121 -1.6904 -0.6823
   80SLPC  C318 7477   3.643   6.891   8.620  0.6443  0.0189 -0.2542
   80SLPC  H18X 7478   3.730   6.915   8.684  1.3338 -0.0565 -1.1560
   80SLPC  H18Y 7479   3.666   6.801   8.560  5.4744  1.2380 -0.6092
   80SLPC  H18Z 7480   3.558   6.874   8.691 -0.8144  0.2250 -1.8829
   81SAPS     N 7481   5.743   2.621  10.963 -0.0626  0.4642  0.5892
   81SAPS   HN1 7482   5.779   2.714  10.934 -1.9196  0.6896 -1.2125
   81SAPS   HN2 7483   5.685   2.600  10.879  1.4068  0.1001 -0.3711
   81SAPS   HN3 7484   5.688   2.631  11.050  1.3402 -0.5382  1.6444
   81SAPS   C12 7485   5.846   2.508  10.959  0.2231  0.3948  0.1820
   81SAPS  H12A 7486   5.880   2.495  10.858 -0.1918 -0.3973  0.1309
   81SAPS   C13 7487   5.969   2.532  11.046 -0.5599  0.5075 -0.6230
   81SAPS  O13A 7488   5.975   2.631  11.126 -0.4410 -0.0539 -0.0899
   81SAPS  O13B 7489   6.064   2.446  11.042  0.3776 -0.2329  0.0618
   81SAPS   C11 7490   5.771   2.386  11.008  0.5061 -0.3711  0.0005
   81SAPS  H11A 7491   5.732   2.414  11.109  2.5550  0.3885  0.6535
   81SAPS  H11B 7492   5.829   2.291  11.013 -0.4522 -1.1184 -2.1094
   81SAPS     P 7493   5.550   2.264  10.952  0.1290 -0.1923 -0.2623
   81SAPS   O13 7494   5.599   2.145  11.020 -0.4233  0.0915  0.5965
   81SAPS   O14 7495   5.437   2.335  11.020 -0.2652  0.5175  0.5221
   81SAPS   O12 7496   5.673   2.359  10.908  0.1646  0.1301  0.1698
   81SAPS   O11 7497   5.503   2.222  10.803  0.2058 -0.0006 -0.1060
   81SAPS    C1 7498   5.486   2.338  10.720  0.4525  0.4085  0.5509
   81SAPS    HA 7499   5.386   2.387  10.724  0.8817  1.3572 -0.2241
   81SAPS    HB 7500   5.548   2.427  10.744 -1.5203  1.8681  0.4659
   81SAPS    C2 7501   5.532   2.311  10.578  0.3569  0.0101  0.3071
   81SAPS    HS 7502   5.520   2.403  10.516  0.1157 -0.7117 -0.7428
   81SAPS   O21 7503   5.463   2.203  10.522  0.1259 -0.0887 -0.3629
   81SAPS   C21 7504   5.330   2.205  10.497  0.6702 -0.2109  0.5680
   81SAPS   O22 7505   5.255   2.300  10.534 -0.2664 -0.0395 -0.4103
   81SAPS   C22 7506   5.274   2.091  10.414 -0.4020  0.1963  0.2509
   81SAPS   H2R 7507   5.309   1.998  10.464 -0.3756 -0.3516 -0.7626
   81SAPS   H2S 7508   5.163   2.082  10.414 -0.3981 -0.2832 -1.7714
   81SAPS    C3 7509   5.681   2.273  10.571 -0.4727  0.3044 -0.4089
   81SAPS    HX 7510   5.710   2.203  10.652 -0.7333  0.3212 -0.3007
   81SAPS    HY 7511   5.729   2.367  10.603 -0.1066 -0.3939  1.1894
   81SAPS   O31 7512   5.718   2.236  10.433 -0.4022  0.3982 -0.2645
   81SAPS   C31 7513   5.740   2.106  10.423  0.2128  0.1806 -0.4397
   81SAPS   O32 7514   5.731   2.024  10.509 -0.0265  0.4606 -0.2720
   81SAPS   C32 7515   5.789   2.074  10.281  0.7448 -0.4516 -0.0520
   81SAPS   H2X 7516   5.899   2.065  10.284  1.0421  2.4631 -0.0661
   81SAPS   H2Y 7517   5.756   2.158  10.217 -0.7376  0.4741  1.8356
   81SAPS   C23 7518   5.321   2.101  10.268  0.0893 -0.1952  0.2044
   81SAPS   H3R 7519   5.282   2.009  10.219 -1.3152  0.2214  0.5023
   81SAPS   H3S 7520   5.432   2.089  10.261  0.1908  1.0512 -0.6216
   81SAPS   C24 7521   5.262   2.216  10.186  0.3966  0.0936  0.7438
   81SAPS   H4R 7522   5.157   2.224  10.221  0.8921 -0.6834  2.5475
   81SAPS   H4S 7523   5.282   2.181  10.082  0.5599 -1.4399  1.2626
   81SAPS   C25 7524   5.331   2.350  10.202  0.2963 -0.1781  0.2436
   81SAPS   H5R 7525   5.294   2.428  10.271 -1.7734  0.8528 -1.8796
   81SAPS   C26 7526   5.427   2.404  10.126  0.3099 -0.5285  0.4431
   81SAPS   H6R 7527   5.468   2.504  10.151  0.9515 -1.1744  2.1257
   81SAPS   C27 7528   5.502   2.330  10.013  0.2242 -0.8336  0.1877
   81SAPS   H7R 7529   5.459   2.230   9.994  2.5864 -2.2901  1.9211
   81SAPS   H7S 7530   5.600   2.299  10.058  0.6238  0.0349 -0.0627
   81SAPS   C28 7531   5.526   2.399   9.882 -0.0718 -0.4733 -0.3404
   81SAPS   H8R 7532   5.631   2.422   9.860 -0.0315  0.4113  0.6722
   81SAPS   C29 7533   5.438   2.411   9.778  0.9712  0.8315 -0.1928
   81SAPS   H9R 7534   5.464   2.461   9.683 -1.9502  3.2693  0.1357
   81SAPS  C210 7535   5.302   2.353   9.776  0.1246  0.8870 -0.1697
   81SAPS  H10R 7536   5.241   2.416   9.707 -0.7648 -0.0420 -0.2451
   81SAPS  H10S 7537   5.257   2.362   9.877 -1.7449 -2.3772 -0.5884
   81SAPS  C211 7538   5.292   2.206   9.737  0.4180 -1.1172  0.7851
   81SAPS  H11R 7539   5.261   2.135   9.815 -0.8751 -1.1498  0.2612
   81SAPS  C212 7540   5.326   2.161   9.611  1.3092  0.5920 -0.3465
   81SAPS  H12R 7541   5.315   2.053   9.595 -1.1324  0.7157  0.0621
   81SAPS  C213 7542   5.371   2.239   9.489 -0.0353  0.1487  0.2433
   81SAPS  H13R 7543   5.439   2.323   9.513 -0.6775  0.2637  1.7307
   81SAPS  H13S 7544   5.283   2.294   9.449 -0.7768 -0.4138  1.0641
   81SAPS  C214 7545   5.430   2.158   9.382 -1.1260 -0.5915  0.0019
   81SAPS  H14R 7546   5.539   2.149   9.387 -1.1370 -0.7387 -0.0074
   81SAPS  C215 7547   5.362   2.082   9.294 -0.2212 -0.2686 -0.1299
   81SAPS  H15R 7548   5.418   2.038   9.210 -1.2858 -1.5763 -0.2075
   81SAPS  C216 7549   5.211   2.081   9.277 -0.5080 -0.4621  0.2135
   81SAPS  H16R 7550   5.164   2.138   9.359  0.7113  0.9866 -0.0613
   81SAPS  H16S 7551   5.180   1.974   9.286 -1.3925 -0.3390 -1.0508
   81SAPS  C217 7552   5.153   2.137   9.141 -0.0390  0.1043  0.3130
   81SAPS  H17R 7553   5.043   2.146   9.152  0.1458 -0.1565  2.9614
   81SAPS  H17S 7554   5.165   2.056   9.066  2.7693  1.7134 -1.1694
   81SAPS  C218 7555   5.206   2.274   9.099 -0.1872 -1.2112 -0.1037
   81SAPS  H18R 7556   5.317   2.270   9.092  0.3295 -1.0136  4.7816
   81SAPS  H18S 7557   5.183   2.350   9.176  2.4652  1.1110 -1.4010
   81SAPS  C219 7558   5.155   2.334   8.966  0.2728  0.5209 -0.2161
   81SAPS  H19R 7559   5.044   2.323   8.969  0.3120 -0.6748 -1.5732
   81SAPS  H19S 7560   5.198   2.273   8.883  1.5007 -0.0191  0.7805
   81SAPS  C220 7561   5.215   2.473   8.952  0.6338 -0.2553  0.9931
   81SAPS  H20R 7562   5.325   2.470   8.971  1.1273  1.3358 -1.2812
   81SAPS  H20S 7563   5.160   2.544   9.017  0.0379  0.3877 -0.1898
   81SAPS  H20T 7564   5.204   2.515   8.850 -0.9882 -0.5027  1.0462
   81SAPS   C33 7565   5.727   1.939  10.238  0.2748 -0.2304 -0.1344
   81SAPS   H3X 7566   5.631   1.948  10.183 -1.0853 -3.6304  1.3751
   81SAPS   H3Y 7567   5.716   1.867  10.323 -1.0387 -0.4447 -0.4604
   81SAPS   C34 7568   5.821   1.865  10.130  0.5018 -0.0929  0.1693
   81SAPS   H4X 7569   5.767   1.771  10.107 -0.5328  0.2852  0.9686
   81SAPS   H4Y 7570   5.921   1.850  10.176  0.4975 -0.2793  0.1158
   81SAPS   C35 7571   5.843   1.953   9.997  0.2087  0.6292  0.2306
   81SAPS   H5X 7572   5.929   1.904   9.947  1.2413  2.4085  0.1609
   81SAPS   H5Y 7573   5.874   2.053  10.034 -0.1134  1.3151 -1.2499
   81SAPS   C36 7574   5.732   1.962   9.893  0.0975 -0.6181 -0.0917
   81SAPS   H6X 7575   5.748   2.049   9.825 -0.5742 -3.3096 -4.0617
   81SAPS   H6Y 7576   5.637   1.987   9.945  0.5428  3.2756 -0.7977
   81SAPS   C37 7577   5.739   1.844   9.801  0.1634  0.1580 -0.0792
   81SAPS   H7X 7578   5.734   1.753   9.864 -1.9653  0.5996  0.4829
   81SAPS   H7Y 7579   5.837   1.844   9.749  0.1725  0.5738 -0.0682
   81SAPS   C38 7580   5.632   1.861   9.693 -0.2563 -0.7782 -0.6885
   81SAPS   H8X 7581   5.658   1.950   9.632 -1.6308  1.0720  1.2682
   81SAPS   H8Y 7582   5.537   1.875   9.749  0.1789 -0.3458 -0.0414
   81SAPS   C39 7583   5.623   1.741   9.599 -0.1530  0.8243  0.2894
   81SAPS   H9X 7584   5.600   1.647   9.653 -0.8289  0.9819  0.2855
   81SAPS   H9Y 7585   5.718   1.715   9.546 -0.4906 -1.7437  0.8209
   81SAPS  C310 7586   5.522   1.758   9.483  0.4040 -0.1125  0.3542
   81SAPS  H10X 7587   5.537   1.855   9.430  0.9105  0.1792  1.0029
   81SAPS  H10Y 7588   5.424   1.760   9.535  1.3535  1.7127  2.2757
   81SAPS  C311 7589   5.519   1.646   9.380 -0.3859 -0.5785 -0.1602
   81SAPS  H11X 7590   5.491   1.550   9.428 -0.1714  0.6260  2.5291
   81SAPS  H11Y 7591   5.619   1.652   9.332 -0.2735  2.6135  0.2755
   81SAPS  C312 7592   5.409   1.666   9.268 -0.1691  0.8431  0.0651
   81SAPS  H12X 7593   5.426   1.767   9.224  1.1562 -0.4598 -2.6115
   81SAPS  H12Y 7594   5.314   1.671   9.325 -0.8008  2.2710 -1.0554
   81SAPS  C313 7595   5.402   1.563   9.153  0.1222 -0.4653 -0.2121
   81SAPS  H13X 7596   5.393   1.460   9.195  1.4746 -0.1750  0.8482
   81SAPS  H13Y 7597   5.500   1.578   9.103  0.0171 -3.2900 -1.4522
   81SAPS  C314 7598   5.291   1.600   9.053 -0.4716 -0.1996  0.4710
   81SAPS  H14X 7599   5.200   1.595   9.115 -1.1494 -0.0290 -0.4837
   81SAPS  H14Y 7600   5.310   1.516   8.983  1.3579  0.4973  0.0612
   81SAPS  C315 7601   5.316   1.738   8.988 -0.4673  0.2024  0.3478
   81SAPS  H15X 7602   5.424   1.745   8.965 -0.1454 -0.4110  1.6117
   81SAPS  H15Y 7603   5.286   1.820   9.056  0.1635  0.6433  0.1019
   81SAPS  C316 7604   5.234   1.759   8.859  0.5996 -0.3110 -0.5082
   81SAPS  H16X 7605   5.124   1.751   8.877  0.7618  1.0369  1.3897
   81SAPS  H16Y 7606   5.260   1.683   8.783 -1.3226 -0.9534 -0.5855
   81SAPS  C317 7607   5.235   1.901   8.800 -0.1735 -1.1353  0.6874
   81SAPS  H17X 7608   5.340   1.930   8.782 -0.9915  1.7518 -0.0216
   81SAPS  H17Y 7609   5.187   1.967   8.876 -1.2036  1.2002 -1.8030
   81SAPS  C318 7610   5.162   1.916   8.663  0.2085  0.4960 -0.0256
   81SAPS  H18X 7611   5.055   1.944   8.677  0.4608  0.8039  1.3729
   81SAPS  H18Y 7612   5.169   1.818   8.610 -2.4477  0.3410 -0.2299
   81SAPS  H18Z 7613   5.204   1.999   8.604 -0.8843  1.6945  0.8276
   82SAPS     N 7614   4.287   1.426  10.751 -0.5848 -0.1329  0.8713
   82SAPS   HN1 7615   4.326   1.334  10.723 -1.5141 -0.6677  1.2864
   82SAPS   HN2 7616   4.186   1.427  10.726  0.2821  1.8047 -3.3851
   82SAPS   HN3 7617   4.326   1.503  10.694  0.8126 -0.0733  1.8660
   82SAPS   C12 7618   4.327   1.453  10.890 -0.9158  0.3429  0.2690
   82SAPS  H12A 7619   4.291   1.375  10.954  0.2667  1.2601  2.1423
   82SAPS   C13 7620   4.481   1.461  10.917 -0.4938 -0.3199  1.0359
   82SAPS  O13A 7621   4.561   1.475  10.821 -0.3442 -0.0725  0.0491
   82SAPS  O13B 7622   4.523   1.454  11.036 -0.3600  0.4575 -0.0181
   82SAPS   C11 7623   4.255   1.582  10.939  0.9267  0.3464 -0.2789
   82SAPS  H11A 7624   4.283   1.670  10.877  2.6948 -1.6405 -2.5002
   82SAPS  H11B 7625   4.293   1.605  11.041 -2.7965  0.9453  1.1070
   82SAPS     P 7626   4.027   1.633  11.063  0.1364 -0.3007 -0.0867
   82SAPS   O13 7627   3.920   1.539  11.109  0.7806 -0.2325 -0.3101
   82SAPS   O14 7628   4.117   1.676  11.170 -0.3387 -0.3719 -0.4434
   82SAPS   O12 7629   4.113   1.557  10.952 -0.1114 -0.3493 -0.1515
   82SAPS   O11 7630   3.952   1.751  10.995 -0.2242  0.6268 -0.4310
   82SAPS    C1 7631   3.843   1.721  10.898 -0.4025 -0.3589 -0.6906
   82SAPS    HA 7632   3.773   1.646  10.941  1.8439 -1.0667  2.1130
   82SAPS    HB 7633   3.798   1.822  10.888  0.9655  0.2471 -0.9802
   82SAPS    C2 7634   3.889   1.674  10.756  0.2106 -0.2176 -0.3903
   82SAPS    HS 7635   3.944   1.578  10.763 -0.1979 -0.5812 -1.8189
   82SAPS   O21 7636   3.978   1.772  10.697 -0.0672  0.1179 -0.0131
   82SAPS   C21 7637   4.082   1.725  10.629  0.2760 -0.0143 -0.0601
   82SAPS   O22 7638   4.113   1.610  10.613 -0.2348  0.2175 -0.0451
   82SAPS   C22 7639   4.162   1.848  10.575  0.1273 -0.4995 -0.3989
   82SAPS   H2R 7640   4.095   1.935  10.564 -0.6044 -0.7159  1.7404
   82SAPS   H2S 7641   4.233   1.884  10.652 -0.5334  0.7250 -0.3305
   82SAPS    C3 7642   3.769   1.646  10.660 -0.0933 -0.4804 -0.0707
   82SAPS    HX 7643   3.707   1.735  10.682  2.0859  0.6963  1.7999
   82SAPS    HY 7644   3.724   1.553  10.701 -1.2926  0.4755  0.8573
   82SAPS   O31 7645   3.804   1.651  10.524  0.1405 -0.5580 -0.4997
   82SAPS   C31 7646   3.800   1.535  10.463 -0.5959  0.3450  0.2410
   82SAPS   O32 7647   3.763   1.432  10.514 -0.3218  0.3144 -0.3829
   82SAPS   C32 7648   3.834   1.549  10.319  0.0092  0.2934  1.3465
   82SAPS   H2X 7649   3.752   1.610  10.275 -0.6217 -0.5931  1.2671
   82SAPS   H2Y 7650   3.835   1.449  10.270 -0.8858 -0.0837  2.0524
   82SAPS   C23 7651   4.231   1.824  10.441 -0.2832  0.5562  0.0278
   82SAPS   H3R 7652   4.158   1.793  10.363  0.1623  0.8386 -0.5040
   82SAPS   H3S 7653   4.302   1.743  10.466  0.6295  1.6790  1.2094
   82SAPS   C24 7654   4.305   1.943  10.386 -0.9475  0.4436 -0.5908
   82SAPS   H4R 7655   4.359   1.990  10.472 -1.7939  0.7159 -0.2005
   82SAPS   H4S 7656   4.240   2.023  10.346 -2.1573 -0.2256 -0.0162
   82SAPS   C25 7657   4.401   1.875  10.286  0.0416 -0.5757 -0.2111
   82SAPS   H5R 7658   4.492   1.839  10.335  0.5786  0.8500 -0.1316
   82SAPS   C26 7659   4.382   1.847  10.158  0.6554 -0.3220 -0.0111
   82SAPS   H6R 7660   4.464   1.792  10.108  1.0992 -0.3287  0.7151
   82SAPS   C27 7661   4.259   1.896  10.085  0.1685  0.6330  0.2088
   82SAPS   H7R 7662   4.179   1.927  10.156 -0.6588  1.9567 -1.2451
   82SAPS   H7S 7663   4.203   1.812  10.038  2.0745 -0.2027 -0.6857
   82SAPS   C28 7664   4.290   2.021  10.003 -0.1883 -0.0855  0.4042
   82SAPS   H8R 7665   4.345   2.089  10.069  1.1418 -2.4546  1.8843
   82SAPS   C29 7666   4.269   2.046   9.875  0.5582  0.0777  0.3667
   82SAPS   H9R 7667   4.313   2.143   9.848  0.0827 -0.6118 -3.5835
   82SAPS  C210 7668   4.212   1.971   9.754 -0.7771 -0.8080  0.0600
   82SAPS  H10R 7669   4.202   1.865   9.786  0.8047 -0.7384  0.8588
   82SAPS  H10S 7670   4.301   1.962   9.689  0.7621  0.9551  1.7986
   82SAPS  C211 7671   4.089   2.026   9.684  0.3466 -0.5910  0.1333
   82SAPS  H11R 7672   4.011   2.056   9.756 -0.4395 -1.7170 -0.2256
   82SAPS  C212 7673   4.075   2.042   9.554  0.1812  0.5032  0.5199
   82SAPS  H12R 7674   3.983   2.091   9.520 -1.5183 -2.4548  0.4520
   82SAPS  C213 7675   4.178   2.011   9.451  0.1166  0.3187  0.2778
   82SAPS  H13R 7676   4.284   2.009   9.485  0.2751 -1.3657 -0.1955
   82SAPS  H13S 7677   4.171   2.099   9.383  1.4856 -1.1265 -1.8621
   82SAPS  C214 7678   4.151   1.884   9.369 -0.5719 -0.5146  0.2744
   82SAPS  H14R 7679   4.120   1.802   9.435 -2.1208  0.6296  1.0497
   82SAPS  C215 7680   4.172   1.873   9.239  0.8599  0.5024 -0.0783
   82SAPS  H15R 7681   4.151   1.780   9.184  2.7932 -0.1079  0.1393
   82SAPS  C216 7682   4.213   1.977   9.149 -0.1513  0.8933  0.2675
   82SAPS  H16R 7683   4.264   1.926   9.065  2.3993 -1.0037  2.7744
   82SAPS  H16S 7684   4.286   2.049   9.193  2.6609 -2.7371  2.1143
   82SAPS  C217 7685   4.093   2.054   9.095  0.4625  0.5802 -0.0426
   82SAPS  H17R 7686   4.059   2.126   9.173  2.9236 -2.9396  4.8014
   82SAPS  H17S 7687   4.015   1.979   9.072  1.9068 -0.8720 -0.4054
   82SAPS  C218 7688   4.123   2.150   8.971  0.1715 -0.2367  1.2514
   82SAPS  H18R 7689   4.160   2.073   8.899 -1.3165 -2.5453  2.8309
   82SAPS  H18S 7690   4.196   2.232   8.990 -0.2422  0.5858 -0.4695
   82SAPS  C219 7691   3.996   2.219   8.908 -0.3598  0.6539 -0.2259
   82SAPS  H19R 7692   3.962   2.287   8.989  2.1921  1.8161 -0.0304
   82SAPS  H19S 7693   3.915   2.144   8.894  0.8394 -1.0766  1.6003
   82SAPS  C220 7694   4.026   2.299   8.783 -0.4419  0.2612  0.5193
   82SAPS  H20R 7695   4.088   2.391   8.790 -0.6028  0.5839 -1.6843
   82SAPS  H20S 7696   3.934   2.338   8.735 -0.4558  0.0593  0.3803
   82SAPS  H20T 7697   4.077   2.240   8.704 -0.8725  2.1477 -1.2337
   82SAPS   C33 7698   3.973   1.602  10.301 -0.6571  0.3500  0.3804
   82SAPS   H3X 7699   4.054   1.547  10.352 -0.8868  0.4351  0.8534
   82SAPS   H3Y 7700   3.969   1.705  10.344  0.8249  0.7349 -0.3574
   82SAPS   C34 7701   4.019   1.596  10.156  0.9373  0.3123  0.1576
   82SAPS   H4X 7702   4.027   1.491  10.122  3.5523  0.3289  0.4850
   82SAPS   H4Y 7703   4.120   1.641  10.148  0.9076  0.0208 -3.8859
   82SAPS   C35 7704   3.925   1.671  10.058  0.0781 -0.0974  0.0968
   82SAPS   H5X 7705   3.895   1.771  10.095  0.7271  0.1499 -0.0245
   82SAPS   H5Y 7706   3.829   1.615  10.060 -0.6287  1.0567 -0.6462
   82SAPS   C36 7707   3.981   1.661   9.918 -0.4626 -0.0937  0.1777
   82SAPS   H6X 7708   4.053   1.581   9.893 -1.3628 -0.4299 -1.5524
   82SAPS   H6Y 7709   4.039   1.755   9.906 -0.0815 -0.1262  1.6734
   82SAPS   C37 7710   3.872   1.644   9.805  0.6695 -0.2325 -0.9473
   82SAPS   H7X 7711   3.810   1.737   9.808  2.5623  1.0736 -0.4901
   82SAPS   H7Y 7712   3.810   1.556   9.833 -2.3994  1.6073 -1.4944
   82SAPS   C38 7713   3.935   1.641   9.669  0.3640  0.0066  0.4876
   82SAPS   H8X 7714   4.017   1.565   9.670  0.8591  0.5396  1.8382
   82SAPS   H8Y 7715   3.975   1.742   9.647 -0.5699  0.7172  1.9841
   82SAPS   C39 7716   3.827   1.611   9.564 -0.2384  0.0152  0.2088
   82SAPS   H9X 7717   3.755   1.693   9.539 -0.2206  0.0664  0.3267
   82SAPS   H9Y 7718   3.761   1.530   9.600  1.0015 -1.4296 -0.6473
   82SAPS  C310 7719   3.885   1.563   9.428  0.0863 -0.3778  0.2320
   82SAPS  H10X 7720   3.956   1.478   9.441  0.0697 -0.9192 -2.6394
   82SAPS  H10Y 7721   3.934   1.652   9.381 -2.0679  0.0257 -1.4000
   82SAPS  C311 7722   3.781   1.518   9.324 -0.4479  0.4926  0.4678
   82SAPS  H11X 7723   3.714   1.605   9.309 -0.5497  0.1270 -1.4046
   82SAPS  H11Y 7724   3.736   1.431   9.376  1.7489 -1.3531 -0.5809
   82SAPS  C312 7725   3.825   1.477   9.184 -0.1286 -0.2237 -0.0421
   82SAPS  H12X 7726   3.739   1.445   9.122  1.2944  0.0953 -2.2771
   82SAPS  H12Y 7727   3.891   1.388   9.191  1.1294  0.7866  1.8180
   82SAPS  C313 7728   3.908   1.589   9.118 -1.0937  0.2250 -0.1787
   82SAPS  H13X 7729   4.011   1.587   9.158 -1.5297  0.3802  0.9804
   82SAPS  H13Y 7730   3.868   1.692   9.135 -2.6253 -0.1870 -1.0444
   82SAPS  C314 7731   3.923   1.570   8.963  0.2723 -0.0323 -0.4153
   82SAPS  H14X 7732   3.919   1.461   8.942 -0.2856 -0.1190  0.1128
   82SAPS  H14Y 7733   4.024   1.600   8.928  0.7981  1.8357  2.3597
   82SAPS  C315 7734   3.811   1.641   8.879  0.0262 -0.2571  0.1877
   82SAPS  H15X 7735   3.804   1.749   8.903 -2.9088 -0.4467  0.6073
   82SAPS  H15Y 7736   3.712   1.593   8.894  1.2825 -4.3299 -2.8049
   82SAPS  C316 7737   3.833   1.624   8.725  0.1246  0.3166  0.2309
   82SAPS  H16X 7738   3.815   1.521   8.687  3.0377 -0.3440  0.3637
   82SAPS  H16Y 7739   3.940   1.651   8.711  0.8722 -1.5136  1.9614
   82SAPS  C317 7740   3.761   1.736   8.640  0.0325 -0.0659 -0.1977
   82SAPS  H17X 7741   3.812   1.830   8.670  1.2084 -0.0708 -2.0188
   82SAPS  H17Y 7742   3.653   1.733   8.663  0.7310 -2.5974  3.5670
   82SAPS  C318 7743   3.783   1.706   8.491 -0.1943  0.1123 -0.4068
   82SAPS  H18X 7744   3.730   1.623   8.439 -0.0554 -0.3108  0.1262
   82SAPS  H18Y 7745   3.888   1.677   8.472 -0.8420 -1.6199 -1.6537
   82SAPS  H18Z 7746   3.762   1.791   8.422  1.3070  0.5005 -0.4237
   83SAPS     N 7747   6.750   2.766  11.016  0.7174  0.5872  0.0880
   83SAPS   HN1 7748   6.738   2.860  10.974 -4.9888  0.6526  0.9817
   83SAPS   HN2 7749   6.851   2.742  11.025  0.1305 -2.8441 -0.7875
   83SAPS   HN3 7750   6.712   2.691  10.954  0.6426  1.3887 -0.8590
   83SAPS   C12 7751   6.693   2.758  11.149  0.1673  0.3285 -0.6108
   83SAPS  H12A 7752   6.590   2.724  11.150  0.3352 -0.1809 -0.4868
   83SAPS   C13 7753   6.763   2.662  11.252  0.2506 -0.7068  0.4181
   83SAPS  O13A 7754   6.840   2.570  11.206 -0.4633 -0.0791  0.4579
   83SAPS  O13B 7755   6.711   2.649  11.360  0.1420  0.2270 -0.1212
   83SAPS   C11 7756   6.695   2.906  11.213 -0.1820  0.3912 -0.2896
   83SAPS  H11A 7757   6.654   2.901  11.316 -0.1666 -2.7766 -0.3352
   83SAPS  H11B 7758   6.615   2.957  11.155  0.2935 -1.0764 -2.3558
   83SAPS     P 7759   6.828   3.083  11.098  0.2869 -0.0384  0.5047
   83SAPS   O13 7760   6.719   3.178  11.132  0.5587  0.1327  0.0888
   83SAPS   O14 7761   6.960   3.138  11.071 -0.3358 -0.0589  0.5663
   83SAPS   O12 7762   6.820   2.962  11.207  0.2903 -0.0676 -0.2834
   83SAPS   O11 7763   6.777   3.010  10.964  0.1467  0.2170  0.4923
   83SAPS    C1 7764   6.789   3.090  10.841  0.6775 -0.4071 -0.1555
   83SAPS    HA 7765   6.818   3.197  10.853  1.6775 -0.6591 -0.2270
   83SAPS    HB 7766   6.862   3.043  10.772 -0.2535 -1.9086 -0.1659
   83SAPS    C2 7767   6.653   3.113  10.771  0.8240  0.8775  0.2794
   83SAPS    HS 7768   6.592   3.186  10.829 -1.5619 -1.4416  0.8344
   83SAPS   O21 7769   6.589   2.982  10.765  0.6040 -0.0424 -0.2867
   83SAPS   C21 7770   6.460   2.985  10.805  0.7432 -0.2647 -0.0032
   83SAPS   O22 7771   6.388   3.082  10.839  0.1908 -0.0603 -0.2631
   83SAPS   C22 7772   6.409   2.848  10.777 -0.0691  1.0069  0.3685
   83SAPS   H2R 7773   6.478   2.786  10.716 -0.7606 -1.1448  1.6832
   83SAPS   H2S 7774   6.396   2.797  10.874  2.2226  2.3989  1.4881
   83SAPS    C3 7775   6.678   3.167  10.626  0.4477 -0.1335 -0.0399
   83SAPS    HX 7776   6.748   3.093  10.582  2.0843  1.2173  0.1820
   83SAPS    HY 7777   6.733   3.261  10.647 -2.6195  2.0806 -1.2212
   83SAPS   O31 7778   6.567   3.185  10.530  0.0905  0.3094 -0.0969
   83SAPS   C31 7779   6.499   3.296  10.548  0.0104  0.0844  1.2087
   83SAPS   O32 7780   6.513   3.379  10.636  0.8953  0.5198 -0.2343
   83SAPS   C32 7781   6.399   3.301  10.428  0.1829  0.9484  0.4512
   83SAPS   H2X 7782   6.313   3.240  10.463  3.1401 -2.2624  2.9116
   83SAPS   H2Y 7783   6.448   3.249  10.342 -0.9103  2.6255 -1.2746
   83SAPS   C23 7784   6.263   2.844  10.720 -0.4193 -0.0371  0.5736
   83SAPS   H3R 7785   6.185   2.871  10.794 -0.8035 -1.3153  0.6680
   83SAPS   H3S 7786   6.238   2.737  10.701 -3.0272  0.5705  0.1385
   83SAPS   C24 7787   6.235   2.942  10.605  0.7726  0.0240 -0.0082
   83SAPS   H4R 7788   6.317   2.933  10.531 -0.6075  1.9224 -1.8549
   83SAPS   H4S 7789   6.247   3.048  10.637 -1.9918 -0.4316  3.0877
   83SAPS   C25 7790   6.107   2.909  10.537  0.0211 -0.3614  0.1288
   83SAPS   H5R 7791   6.026   2.880  10.605 -1.9785 -0.1011 -2.0038
   83SAPS   C26 7792   6.061   2.930  10.414 -0.5846  0.2278 -0.0348
   83SAPS   H6R 7793   5.954   2.924  10.392 -0.4189  1.7710 -1.4880
   83SAPS   C27 7794   6.144   2.994  10.301 -0.4444 -0.1049 -0.7819
   83SAPS   H7R 7795   6.136   2.923  10.217 -2.1422 -1.0578  0.1463
   83SAPS   H7S 7796   6.251   3.006  10.331 -0.3226 -1.9992 -0.3633
   83SAPS   C28 7797   6.092   3.122  10.250  0.2465  0.5117 -0.0085
   83SAPS   H8R 7798   6.093   3.203  10.325  0.8473  0.9888 -0.5253
   83SAPS   C29 7799   6.014   3.147  10.143  0.1707  0.2079  0.3710
   83SAPS   H9R 7800   5.966   3.245  10.131 -0.4552  0.1727  2.2854
   83SAPS  C210 7801   5.973   3.058  10.035 -0.7128 -0.2551  0.0057
   83SAPS  H10R 7802   5.881   3.096   9.987 -0.1936  1.1164  0.0432
   83SAPS  H10S 7803   5.943   2.964  10.086 -0.2576  0.3912  1.5292
   83SAPS  C211 7804   6.074   3.022   9.928 -0.7490 -0.8623  0.0652
   83SAPS  H11R 7805   6.178   3.010   9.960 -0.4508  1.3361  0.1185
   83SAPS  C212 7806   6.071   3.032   9.795  0.4920 -0.4058 -0.0510
   83SAPS  H12R 7807   6.164   3.004   9.745  0.8217  1.0953 -0.3500
   83SAPS  C213 7808   5.951   3.068   9.711 -0.0443  0.7935  0.2912
   83SAPS  H13R 7809   5.970   3.148   9.636  1.0242 -1.7510 -2.3636
   83SAPS  H13S 7810   5.871   3.113   9.775 -1.0957 -1.9947  1.0707
   83SAPS  C214 7811   5.901   2.946   9.642 -0.3980 -0.1652  0.1099
   83SAPS  H14R 7812   5.830   2.885   9.700  0.9032 -1.4714  0.3854
   83SAPS  C215 7813   5.937   2.903   9.525 -0.2211  0.2576  0.6324
   83SAPS  H15R 7814   5.875   2.823   9.483 -1.5929  1.5984 -0.0321
   83SAPS  C216 7815   6.037   2.972   9.430  0.4921  0.6027  0.5891
   83SAPS  H16R 7816   6.105   2.894   9.388 -1.8107 -1.0777 -0.2100
   83SAPS  H16S 7817   6.098   3.050   9.481  2.4147 -0.0853 -0.5157
   83SAPS  C217 7818   5.973   3.052   9.324  1.2163  0.6520  0.2282
   83SAPS  H17R 7819   6.040   3.105   9.253 -0.1331  2.7003  0.3820
   83SAPS  H17S 7820   5.918   3.135   9.373 -0.9085 -0.9245  0.6643
   83SAPS  C218 7821   5.882   2.965   9.232  0.1166  0.6933  0.3662
   83SAPS  H18R 7822   5.801   2.924   9.296  1.4295  0.2091  1.7943
   83SAPS  H18S 7823   5.943   2.879   9.200  0.7666 -0.1225  3.4636
   83SAPS  C219 7824   5.806   3.033   9.115  0.6231  0.0493  0.1753
   83SAPS  H19R 7825   5.793   2.959   9.033 -0.6360 -0.6862  1.0014
   83SAPS  H19S 7826   5.867   3.115   9.071 -0.4149 -1.0268 -3.6629
   83SAPS  C220 7827   5.673   3.087   9.162 -0.2952 -0.1023  0.0284
   83SAPS  H20R 7828   5.695   3.181   9.217  0.2920  0.5664 -1.3063
   83SAPS  H20S 7829   5.620   3.017   9.230  1.8825  1.4697  3.6349
   83SAPS  H20T 7830   5.612   3.124   9.077  2.1682 -0.3287 -1.9674
   83SAPS   C33 7831   6.370   3.443  10.384  0.4667  0.5712  0.4888
   83SAPS   H3X 7832   6.464   3.504  10.380  1.0589 -0.3742 -0.3374
   83SAPS   H3Y 7833   6.306   3.489  10.463  0.0833 -0.5471  0.8403
   83SAPS   C34 7834   6.320   3.453  10.235 -0.1791 -0.1327 -0.5099
   83SAPS   H4X 7835   6.217   3.413  10.229  0.4048 -1.6746 -0.8697
   83SAPS   H4Y 7836   6.394   3.405  10.167 -0.4287 -0.2037 -0.7303
   83SAPS   C35 7837   6.311   3.599  10.179  0.0765 -0.2435  0.1493
   83SAPS   H5X 7838   6.402   3.646  10.222  1.2451 -1.5887 -0.7372
   83SAPS   H5Y 7839   6.223   3.649  10.225 -0.5814 -2.4169  1.3816
   83SAPS   C36 7840   6.285   3.601  10.024  0.3387 -0.3356 -0.1314
   83SAPS   H6X 7841   6.207   3.523  10.016  0.0532 -0.1845  0.9904
   83SAPS   H6Y 7842   6.384   3.587   9.975  1.3573  1.2848  1.3350
   83SAPS   C37 7843   6.232   3.741   9.979 -0.0099 -0.3853  0.3030
   83SAPS   H7X 7844   6.301   3.825  10.000 -1.7154  0.4033  3.3248
   83SAPS   H7Y 7845   6.133   3.769  10.020  0.5477  1.6495  0.3201
   83SAPS   C38 7846   6.216   3.748   9.832 -0.1562  0.2650 -0.2610
   83SAPS   H8X 7847   6.314   3.744   9.780  0.0662 -4.2000  0.0948
   83SAPS   H8Y 7848   6.152   3.839   9.820 -1.1082  0.1206  2.9370
   83SAPS   C39 7849   6.135   3.623   9.778  0.7714 -0.3913  0.1007
   83SAPS   H9X 7850   6.035   3.617   9.825  0.5716  0.2753 -0.2316
   83SAPS   H9Y 7851   6.189   3.529   9.802  0.4931 -0.6120 -0.1353
   83SAPS  C310 7852   6.117   3.627   9.625 -0.3983  1.1420 -0.5621
   83SAPS  H10X 7853   6.213   3.610   9.571  0.4719 -1.6020  1.6204
   83SAPS  H10Y 7854   6.077   3.725   9.592 -2.5781  0.5361  0.1065
   83SAPS  C311 7855   6.021   3.519   9.570 -0.3899 -0.3773 -0.3041
   83SAPS  H11X 7856   5.926   3.545   9.623 -0.4430  0.6731 -0.8808
   83SAPS  H11Y 7857   6.055   3.418   9.599 -0.6804 -0.9544 -1.8976
   83SAPS  C312 7858   5.999   3.521   9.418  0.0751  0.7344 -0.3377
   83SAPS  H12X 7859   5.976   3.627   9.391 -3.2924  0.6912  1.7681
   83SAPS  H12Y 7860   5.906   3.462   9.406  0.6977 -1.4529  3.7904
   83SAPS  C313 7861   6.112   3.462   9.340 -0.2119  0.3231 -0.6833
   83SAPS  H13X 7862   6.140   3.360   9.377  1.8329  1.4304  1.0926
   83SAPS  H13Y 7863   6.201   3.525   9.363 -0.3241 -0.9445  4.5431
   83SAPS  C314 7864   6.092   3.430   9.188  0.7105  0.4745 -0.1824
   83SAPS  H14X 7865   5.988   3.392   9.192  1.2709 -1.0169  1.4604
   83SAPS  H14Y 7866   6.167   3.355   9.156 -0.5823 -1.2186  0.6474
   83SAPS  C315 7867   6.117   3.552   9.103 -0.2712  0.3364 -0.4833
   83SAPS  H15X 7868   6.225   3.572   9.086 -0.1190  0.6518  0.7481
   83SAPS  H15Y 7869   6.086   3.642   9.160 -1.0058 -1.1017  1.4870
   83SAPS  C316 7870   6.048   3.549   8.964  0.5478  0.4972 -0.8144
   83SAPS  H16X 7871   6.091   3.633   8.905 -0.3984  0.9183 -0.9303
   83SAPS  H16Y 7872   5.940   3.567   8.981  0.8768  0.3678  1.9212
   83SAPS  C317 7873   6.069   3.416   8.889  0.3639  0.5327 -0.5312
   83SAPS  H17X 7874   6.023   3.418   8.788  1.3546 -3.1144 -1.1822
   83SAPS  H17Y 7875   6.016   3.336   8.946  1.6639  0.4809  0.6807
   83SAPS  C318 7876   6.222   3.382   8.861  0.3014  0.9728  0.7660
   83SAPS  H18X 7877   6.268   3.339   8.952  0.8700 -1.2359 -0.5044
   83SAPS  H18Y 7878   6.272   3.477   8.833 -0.9781  1.7117  0.8987
   83SAPS  H18Z 7879   6.222   3.319   8.769 -1.3705  1.2246  0.5502
   84SAPS     N 7880   2.815   2.116  11.261 -0.3731  0.0128  0.5707
   84SAPS   HN1 7881   2.899   2.075  11.216  0.7616  0.7169  1.9927
   84SAPS   HN2 7882   2.802   2.095  11.362  0.7213  1.6760  1.0900
   84SAPS   HN3 7883   2.730   2.093  11.205  0.8844 -0.1631 -1.3404
   84SAPS   C12 7884   2.821   2.269  11.252  0.7301  0.8650  0.1070
   84SAPS  H12A 7885   2.734   2.297  11.309  0.1762  1.0750 -0.8167
   84SAPS   C13 7886   2.945   2.324  11.314 -0.2655 -1.2457 -0.0412
   84SAPS  O13A 7887   3.043   2.250  11.350 -0.0107  0.6911 -0.4266
   84SAPS  O13B 7888   2.952   2.448  11.342  0.2735  0.1437 -0.2971
   84SAPS   C11 7889   2.794   2.308  11.106 -0.6766 -0.2696  0.2277
   84SAPS  H11A 7890   2.873   2.256  11.048  0.7584  0.6870  1.2606
   84SAPS  H11B 7891   2.805   2.417  11.087 -3.0072 -0.2528 -1.6485
   84SAPS     P 7892   2.520   2.326  11.083  0.4149 -0.5019  0.1601
   84SAPS   O13 7893   2.426   2.210  11.106 -0.0696 -0.6220  0.0445
   84SAPS   O14 7894   2.536   2.407  11.207  0.3962 -0.0010  0.1056
   84SAPS   O12 7895   2.664   2.267  11.056  0.2544 -0.1201 -0.1156
   84SAPS   O11 7896   2.480   2.416  10.958 -0.1276 -0.2127 -0.1161
   84SAPS    C1 7897   2.495   2.360  10.826  0.1974  0.0202  0.1822
   84SAPS    HA 7898   2.494   2.249  10.825  0.2545  0.0168  0.5562
   84SAPS    HB 7899   2.405   2.386  10.766  0.3120 -1.1114 -0.5024
   84SAPS    C2 7900   2.624   2.408  10.761  0.3829  0.4095 -0.0913
   84SAPS    HS 7901   2.695   2.401  10.846  0.9706  1.8631 -0.4396
   84SAPS   O21 7902   2.603   2.549  10.724 -0.2604  0.0832 -0.1953
   84SAPS   C21 7903   2.705   2.610  10.670  0.0644  0.2279 -0.0085
   84SAPS   O22 7904   2.822   2.566  10.680  0.2538  0.4659 -0.1693
   84SAPS   C22 7905   2.659   2.744  10.611  0.5331  0.4149 -0.0155
   84SAPS   H2R 7906   2.549   2.758  10.604  0.6202  1.2521  0.1330
   84SAPS   H2S 7907   2.686   2.824  10.683  1.5482  2.0711 -2.1315
   84SAPS    C3 7908   2.660   2.308  10.648 -0.2059 -0.4151 -0.1318
   84SAPS    HX 7909   2.669   2.216  10.709  1.4741  0.2209  0.6509
   84SAPS    HY 7910   2.759   2.335  10.605  0.3787 -3.5244 -1.0381
   84SAPS   O31 7911   2.566   2.299  10.540 -0.6955 -0.5803  0.4918
   84SAPS   C31 7912   2.508   2.183  10.514  0.0723  0.1036 -0.6199
   84SAPS   O32 7913   2.510   2.087  10.590  0.0708 -0.3655  0.3213
   84SAPS   C32 7914   2.460   2.182  10.370  0.2945 -0.5573  0.0431
   84SAPS   H2X 7915   2.349   2.182  10.371  0.2613  0.9415 -0.9426
   84SAPS   H2Y 7916   2.500   2.089  10.323 -2.2909 -0.4139 -2.7532
   84SAPS   C23 7917   2.706   2.757  10.464  0.0444 -0.0689  0.0870
   84SAPS   H3R 7918   2.668   2.681  10.392  0.0241  0.5413 -0.5479
   84SAPS   H3S 7919   2.817   2.752  10.457  0.0212  1.0936 -1.7909
   84SAPS   C24 7920   2.678   2.892  10.406  0.1982  0.1248  0.3395
   84SAPS   H4R 7921   2.735   2.900  10.311  2.4326  1.4232  1.6856
   84SAPS   H4S 7922   2.720   2.975  10.468  0.4626  0.7974 -0.7220
   84SAPS   C25 7923   2.526   2.915  10.380  0.3024 -0.6357  0.6353
   84SAPS   H5R 7924   2.472   2.967  10.460  2.8917  2.5015  0.5477
   84SAPS   C26 7925   2.465   2.883  10.263 -0.1661 -0.1178  0.0051
   84SAPS   H6R 7926   2.357   2.902  10.256 -0.0834  0.1093 -0.6808
   84SAPS   C27 7927   2.516   2.818  10.140 -0.3716  0.1857 -0.9053
   84SAPS   H7R 7928   2.425   2.772  10.096  0.3872 -3.4654  0.9271
   84SAPS   H7S 7929   2.587   2.734  10.152 -2.8170 -2.0855 -1.3237
   84SAPS   C28 7930   2.575   2.920  10.046 -0.7023 -0.5801 -0.3713
   84SAPS   H8R 7931   2.619   3.005  10.101 -0.4177 -0.9015 -0.0889
   84SAPS   C29 7932   2.582   2.914   9.916 -0.4246  0.3000  0.3547
   84SAPS   H9R 7933   2.628   2.995   9.858  0.5805  0.1468  0.9283
   84SAPS  C210 7934   2.531   2.806   9.826 -0.2618 -0.0912 -0.3264
   84SAPS  H10R 7935   2.533   2.709   9.880 -1.3184 -1.3827 -2.4400
   84SAPS  H10S 7936   2.602   2.806   9.740 -0.0253  0.9970 -0.1477
   84SAPS  C211 7937   2.393   2.822   9.789 -0.4898 -0.8034  0.5742
   84SAPS  H11R 7938   2.334   2.906   9.827 -1.3533 -0.1401 -1.9748
   84SAPS  C212 7939   2.340   2.739   9.697  0.3776  0.0534 -0.0238
   84SAPS  H12R 7940   2.231   2.748   9.682  0.2715  0.1916  0.7626
   84SAPS  C213 7941   2.397   2.628   9.620 -0.2577  0.0255  0.4106
   84SAPS  H13R 7942   2.499   2.611   9.660 -0.7337  0.5641  1.9458
   84SAPS  H13S 7943   2.392   2.643   9.510  1.2093 -2.2531 -0.0310
   84SAPS  C214 7944   2.319   2.504   9.649 -0.2362  0.1221  0.4338
   84SAPS  H14R 7945   2.336   2.473   9.753  1.9006  0.1130  0.1257
   84SAPS  C215 7946   2.243   2.429   9.570  0.2693 -0.0492  0.1361
   84SAPS  H15R 7947   2.203   2.341   9.623 -0.4688  1.3027  1.9217
   84SAPS  C216 7948   2.212   2.455   9.425  0.0950 -0.0600 -0.3098
   84SAPS  H16R 7949   2.279   2.393   9.363  0.4848  0.0462 -0.0024
   84SAPS  H16S 7950   2.228   2.562   9.400  1.6369  0.1294  1.2662
   84SAPS  C217 7951   2.058   2.423   9.389 -0.5760  0.0069 -0.1231
   84SAPS  H17R 7952   2.052   2.436   9.278  1.3994  0.5773 -0.2058
   84SAPS  H17S 7953   1.990   2.492   9.444  1.5784  1.9260  0.3113
   84SAPS  C218 7954   2.022   2.280   9.403 -0.0296  0.2841  0.2007
   84SAPS  H18R 7955   2.005   2.254   9.510 -0.5831  0.1748  0.0879
   84SAPS  H18S 7956   2.098   2.212   9.359 -2.2169 -1.9647 -0.3002
   84SAPS  C219 7957   1.896   2.242   9.322 -0.5155  0.0713 -0.3291
   84SAPS  H19R 7958   1.918   2.263   9.215  0.7829 -0.3890 -0.1624
   84SAPS  H19S 7959   1.829   2.328   9.347 -1.3609  0.4130 -3.3261
   84SAPS  C220 7960   1.826   2.108   9.345  0.1756  0.6534 -0.1987
   84SAPS  H20R 7961   1.733   2.100   9.284  0.2616  1.9332 -0.5378
   84SAPS  H20S 7962   1.803   2.104   9.454  1.9870  0.2513  0.2010
   84SAPS  H20T 7963   1.893   2.022   9.325 -0.2164  0.4990 -0.8805
   84SAPS   C33 7964   2.507   2.303  10.282  0.2466  0.4126 -0.6530
   84SAPS   H3X 7965   2.617   2.320  10.276  0.4536 -0.8710 -0.8449
   84SAPS   H3Y 7966   2.468   2.402  10.313 -0.2060  1.4210 -4.0274
   84SAPS   C34 7967   2.445   2.271  10.141 -0.3358  1.4136  0.0950
   84SAPS   H4X 7968   2.389   2.362  10.110 -0.5758  0.7770 -1.4730
   84SAPS   H4Y 7969   2.376   2.186  10.165  0.7334  0.6752  0.6378
   84SAPS   C35 7970   2.551   2.231  10.049 -0.2726 -0.6634 -0.0879
   84SAPS   H5X 7971   2.630   2.169  10.097  0.1575  0.3658  0.5938
   84SAPS   H5Y 7972   2.603   2.328  10.032 -3.4268  1.3100  0.5990
   84SAPS   C36 7973   2.489   2.181   9.918 -0.4864  0.3222 -0.1397
   84SAPS   H6X 7974   2.405   2.251   9.902  0.3940  1.2940 -0.5984
   84SAPS   H6Y 7975   2.448   2.078   9.928 -0.6477  0.3144 -0.8788
   84SAPS   C37 7976   2.581   2.203   9.793  0.1366 -0.5142  0.0578
   84SAPS   H7X 7977   2.683   2.169   9.820  1.5211  2.8977 -0.3781
   84SAPS   H7Y 7978   2.581   2.309   9.760  1.3212 -1.4651 -3.3849
   84SAPS   C38 7979   2.528   2.127   9.675  0.1291 -0.4221  0.2769
   84SAPS   H8X 7980   2.422   2.157   9.663  0.3839  1.9186  2.8842
   84SAPS   H8Y 7981   2.520   2.017   9.688 -0.3877 -0.4354 -0.0870
   84SAPS   C39 7982   2.605   2.152   9.546  1.1016 -0.2035 -0.3138
   84SAPS   H9X 7983   2.712   2.122   9.553  0.6866 -2.4695 -2.3727
   84SAPS   H9Y 7984   2.603   2.262   9.538  0.0647 -0.2944 -1.5367
   84SAPS  C310 7985   2.558   2.083   9.416 -0.3395 -0.4121 -0.5607
   84SAPS  H10X 7986   2.457   2.120   9.391  0.6186  0.8476 -2.8462
   84SAPS  H10Y 7987   2.554   1.974   9.438  0.0276 -0.0788  1.3179
   84SAPS  C311 7988   2.638   2.124   9.290  0.0874 -0.5306 -0.0236
   84SAPS  H11X 7989   2.741   2.084   9.301 -0.1492 -1.0663  0.2855
   84SAPS  H11Y 7990   2.647   2.233   9.277 -0.5417 -0.3489  0.9300
   84SAPS  C312 7991   2.574   2.074   9.151  0.2025 -0.3348  0.1296
   84SAPS  H12X 7992   2.467   2.101   9.138  0.1129 -1.2136 -1.2368
   84SAPS  H12Y 7993   2.598   1.965   9.155  3.2618  0.2508  4.5003
   84SAPS  C313 7994   2.643   2.126   9.025 -0.0224  0.0417 -0.2923
   84SAPS  H13X 7995   2.750   2.128   9.055 -0.2921 -2.1615  1.0834
   84SAPS  H13Y 7996   2.620   2.231   8.999 -1.5457 -0.4831 -1.2113
   84SAPS  C314 7997   2.611   2.030   8.909 -0.4035  0.1235  0.1036
   84SAPS  H14X 7998   2.512   2.059   8.866  0.2508 -0.7419 -2.1221
   84SAPS  H14Y 7999   2.609   1.924   8.941 -1.8733 -0.3185 -1.3222
   84SAPS  C315 8000   2.721   2.038   8.801 -0.5028  0.2793 -0.0573
   84SAPS  H15X 8001   2.808   2.085   8.852 -0.0658  0.6031 -1.0809
   84SAPS  H15Y 8002   2.680   2.110   8.727 -2.0026  1.2459  1.6198
   84SAPS  C316 8003   2.768   1.906   8.735  0.5492  0.4397 -0.1208
   84SAPS  H16X 8004   2.680   1.849   8.699  1.6190 -0.8526 -0.7766
   84SAPS  H16Y 8005   2.800   1.830   8.809 -0.3244  0.8608  0.7218
   84SAPS  C317 8006   2.876   1.927   8.629  0.3026 -0.1909 -0.1155
   84SAPS  H17X 8007   2.974   1.942   8.679  0.5563  0.1502 -0.7015
   84SAPS  H17Y 8008   2.850   2.006   8.556  0.0752  0.6205  0.8307
   84SAPS  C318 8009   2.893   1.795   8.562 -0.2318  0.6706  0.2105
   84SAPS  H18X 8010   2.923   1.714   8.632  0.1098 -0.8654 -1.6245
   84SAPS  H18Y 8011   2.954   1.801   8.470  1.4670 -1.9984  1.0745
   84SAPS  H18Z 8012   2.789   1.770   8.533 -0.7792  3.8561 -1.0338
   85SAPS     N 8013   4.037   5.205  10.926  0.4948 -0.0769 -0.6385
   85SAPS   HN1 8014   4.127   5.250  10.900 -0.0677  1.9162  0.6483
   85SAPS   HN2 8015   3.997   5.144  10.851  0.9482 -1.8139  0.4730
   85SAPS   HN3 8016   3.965   5.280  10.931 -1.4988 -1.9663  1.5715
   85SAPS   C12 8017   4.052   5.127  11.048  0.2612 -0.3286 -0.1181
   85SAPS  H12A 8018   4.132   5.057  11.031  1.4868  0.6014  1.4944
   85SAPS   C13 8019   4.086   5.215  11.178  0.3194  0.4804 -0.5565
   85SAPS  O13A 8020   4.118   5.328  11.176 -0.1328  0.0369  0.4423
   85SAPS  O13B 8021   4.096   5.148  11.287  0.4666  0.2547 -0.1316
   85SAPS   C11 8022   3.920   5.046  11.071 -0.1487  0.2434 -0.1019
   85SAPS  H11A 8023   3.836   5.118  11.077 -0.6172 -0.3156  0.1430
   85SAPS  H11B 8024   3.935   5.004  11.173  1.7318  1.0922  0.0174
   85SAPS     P 8025   3.894   4.797  10.988  0.0387  0.2820  0.2854
   85SAPS   O13 8026   3.997   4.753  11.084 -0.2576  0.1368 -0.4022
   85SAPS   O14 8027   3.754   4.765  11.022 -0.9908 -0.2922  0.1271
   85SAPS   O12 8028   3.914   4.949  10.965 -0.2340 -0.4410  0.3133
   85SAPS   O11 8029   3.922   4.738  10.845 -0.0007 -0.6059 -0.2225
   85SAPS    C1 8030   4.045   4.764  10.778  1.0033 -0.5004  0.3457
   85SAPS    HA 8031   4.023   4.818  10.683  0.4896 -1.8127 -0.3064
   85SAPS    HB 8032   4.117   4.816  10.844  0.3894 -0.1719  0.7627
   85SAPS    C2 8033   4.105   4.628  10.748 -0.1073  0.0893  0.2638
   85SAPS    HS 8034   4.101   4.578  10.848 -2.8894  0.7497  0.5816
   85SAPS   O21 8035   4.235   4.659  10.689  0.4082 -0.4466 -0.4425
   85SAPS   C21 8036   4.317   4.559  10.688  0.1607  0.4299  0.0710
   85SAPS   O22 8037   4.301   4.458  10.749 -0.0917  0.9185 -0.2425
   85SAPS   C22 8038   4.439   4.583  10.600  0.0271  0.3353 -0.3740
   85SAPS   H2R 8039   4.408   4.582  10.493 -1.3301  1.4566 -0.0176
   85SAPS   H2S 8040   4.490   4.675  10.636 -1.5208  0.2860  2.1121
   85SAPS    C3 8041   4.011   4.541  10.657  0.0447 -0.1557  0.6558
   85SAPS    HX 8042   3.920   4.519  10.716  0.6223 -1.7269  1.0162
   85SAPS    HY 8043   4.059   4.442  10.641 -3.5987 -2.1593  1.1877
   85SAPS   O31 8044   3.991   4.611  10.527 -0.0659 -0.1730 -0.0015
   85SAPS   C31 8045   3.897   4.548  10.459  0.3900 -0.4729  0.1500
   85SAPS   O32 8046   3.831   4.450  10.494 -0.4105  0.4553 -0.1892
   85SAPS   C32 8047   3.873   4.622  10.329  0.2780 -0.0810 -0.4163
   85SAPS   H2X 8048   3.764   4.633  10.343  0.0835 -0.9097 -1.1857
   85SAPS   H2Y 8049   3.888   4.541  10.253 -1.1455 -0.5235 -0.2497
   85SAPS   C23 8050   4.537   4.467  10.612  0.0087  0.6956  0.7810
   85SAPS   H3R 8051   4.553   4.439  10.718 -0.2961  2.5248  1.3313
   85SAPS   H3S 8052   4.636   4.494  10.571 -0.3033  2.6660  1.2467
   85SAPS   C24 8053   4.490   4.345  10.531  0.0602  0.1801  0.0432
   85SAPS   H4R 8054   4.379   4.339  10.540  0.0937  0.0519  0.3871
   85SAPS   H4S 8055   4.550   4.261  10.571 -0.5661  0.1468  0.9336
   85SAPS   C25 8056   4.534   4.361  10.396 -0.0533 -0.1581  0.6619
   85SAPS   H5R 8057   4.535   4.463  10.356  0.0497 -0.5385 -0.3267
   85SAPS   C26 8058   4.573   4.261  10.308  1.2700 -0.9881 -0.1837
   85SAPS   H6R 8059   4.602   4.284  10.205  1.2202 -1.5020 -0.3142
   85SAPS   C27 8060   4.571   4.117  10.350  0.3813  0.0435 -0.2092
   85SAPS   H7R 8061   4.468   4.076  10.354  1.2146 -2.0392  0.9980
   85SAPS   H7S 8062   4.609   4.103  10.453 -0.0644  0.0097 -0.0447
   85SAPS   C28 8063   4.652   4.035  10.254  0.0646 -0.2484 -0.2126
   85SAPS   H8R 8064   4.731   3.980  10.308 -0.3578 -0.0520  0.6094
   85SAPS   C29 8065   4.628   4.009  10.122 -0.1858  0.8369 -0.2011
   85SAPS   H9R 8066   4.700   3.945  10.068  0.2128  0.0725  1.2044
   85SAPS  C210 8067   4.517   4.067  10.041  0.1047  0.0347 -0.8019
   85SAPS  H10R 8068   4.554   4.163   9.998 -0.1770  0.1158 -0.8668
   85SAPS  H10S 8069   4.433   4.108  10.100  0.5886  1.8076 -1.2557
   85SAPS  C211 8070   4.464   3.988   9.925  0.5732  0.0210  0.4489
   85SAPS  H11R 8071   4.440   3.885   9.956 -1.6018 -0.1373 -1.4951
   85SAPS  C212 8072   4.440   4.020   9.802  0.5032 -0.5201  0.1642
   85SAPS  H12R 8073   4.374   3.949   9.751 -0.0035 -1.1734  1.6608
   85SAPS  C213 8074   4.454   4.156   9.737 -0.9431 -0.5697 -0.2821
   85SAPS  H13R 8075   4.536   4.143   9.662  0.4180 -0.8075  1.1783
   85SAPS  H13S 8076   4.493   4.223   9.817 -1.2626  0.0016 -0.6011
   85SAPS  C214 8077   4.328   4.215   9.685  0.2314 -0.6628  0.3846
   85SAPS  H14R 8078   4.244   4.213   9.755 -0.6208 -0.2466 -0.6007
   85SAPS  C215 8079   4.313   4.282   9.571  1.4159 -0.9164  0.2838
   85SAPS  H15R 8080   4.214   4.328   9.559  1.6741 -0.1212  1.0948
   85SAPS  C216 8081   4.414   4.305   9.459  1.1496  0.0617 -0.4239
   85SAPS  H16R 8082   4.519   4.314   9.494  0.3810 -0.1197  2.1242
   85SAPS  H16S 8083   4.385   4.408   9.430 -2.7396 -0.0294  2.3797
   85SAPS  C217 8084   4.431   4.194   9.346  0.7068 -0.4646 -0.0475
   85SAPS  H17R 8085   4.472   4.097   9.382 -0.1041 -0.9896 -0.5106
   85SAPS  H17S 8086   4.508   4.227   9.273 -1.2317  2.0675 -1.1238
   85SAPS  C218 8087   4.300   4.171   9.258  0.3875 -0.5291 -0.3056
   85SAPS  H18R 8088   4.259   4.264   9.214  1.3798  0.1694  0.2113
   85SAPS  H18S 8089   4.221   4.128   9.324  0.2416 -0.2056 -0.2673
   85SAPS  C219 8090   4.335   4.087   9.134  0.5993  0.9471 -0.0834
   85SAPS  H19R 8091   4.407   4.008   9.165  0.2470  1.4061  2.0291
   85SAPS  H19S 8092   4.369   4.154   9.053  1.2001 -0.5286 -1.0871
   85SAPS  C220 8093   4.205   4.011   9.078 -0.2836  0.6410 -0.6340
   85SAPS  H20R 8094   4.175   3.932   9.150  1.5707  1.0355  0.6288
   85SAPS  H20S 8095   4.220   3.961   8.980  1.6363  0.1450 -0.1318
   85SAPS  H20T 8096   4.118   4.079   9.075 -1.7547 -1.1459 -0.2004
   85SAPS   C33 8097   3.942   4.763  10.306  0.2451  0.2221 -0.3226
   85SAPS   H3X 8098   4.048   4.732  10.291  0.2576  0.2348 -0.2568
   85SAPS   H3Y 8099   3.941   4.822  10.400 -2.1386  1.5151 -1.0782
   85SAPS   C34 8100   3.888   4.842  10.196 -0.2600  0.9380 -0.2241
   85SAPS   H4X 8101   3.952   4.932  10.193 -1.4053  1.8038  0.5710
   85SAPS   H4Y 8102   3.793   4.896  10.217 -2.9134 -2.9016 -1.2986
   85SAPS   C35 8103   3.885   4.765  10.057 -0.0760  0.1140 -0.1189
   85SAPS   H5X 8104   3.817   4.823   9.991 -0.2690  0.5563  0.4514
   85SAPS   H5Y 8105   3.850   4.661  10.071 -1.5044  0.8026  2.0327
   85SAPS   C36 8106   4.027   4.753   9.987  0.1819 -0.3999  0.4102
   85SAPS   H6X 8107   4.087   4.681  10.048  3.0237  2.0585  0.7548
   85SAPS   H6Y 8108   4.088   4.844  10.003  0.7523 -1.0177  2.0596
   85SAPS   C37 8109   4.014   4.718   9.840 -0.2797 -0.3156  0.0737
   85SAPS   H7X 8110   4.112   4.706   9.791 -1.0124 -2.8817 -0.9107
   85SAPS   H7Y 8111   3.970   4.808   9.791  0.3034  0.5142  1.0235
   85SAPS   C38 8112   3.925   4.594   9.817 -0.1422  0.1877 -0.2184
   85SAPS   H8X 8113   3.816   4.613   9.827 -0.0590  1.9849 -2.0523
   85SAPS   H8Y 8114   3.955   4.525   9.899  0.4562  2.0660  1.2034
   85SAPS   C39 8115   3.939   4.526   9.681  0.4488  0.4009  0.4369
   85SAPS   H9X 8116   3.862   4.447   9.686  0.5138  0.3059  0.0070
   85SAPS   H9Y 8117   4.039   4.483   9.658 -0.7994 -2.7764  0.5117
   85SAPS  C310 8118   3.904   4.613   9.557  0.0890  0.1844  0.1794
   85SAPS  H10X 8119   3.981   4.693   9.558  0.5653 -0.2658 -0.1344
   85SAPS  H10Y 8120   3.801   4.654   9.553 -0.8921 -2.0127  1.1626
   85SAPS  C311 8121   3.914   4.530   9.428 -0.0588 -0.2234  0.5607
   85SAPS  H11X 8122   3.880   4.426   9.448 -0.0385 -0.6431 -1.4252
   85SAPS  H11Y 8123   4.023   4.537   9.408  0.4778 -0.3007  3.1099
   85SAPS  C312 8124   3.826   4.599   9.317 -0.3346 -0.4482 -0.1753
   85SAPS  H12X 8125   3.848   4.708   9.312  1.0518 -0.6501  0.8467
   85SAPS  H12Y 8126   3.718   4.586   9.343 -0.1619  0.5705  1.2001
   85SAPS  C313 8127   3.864   4.544   9.181  0.2966 -0.6939  1.0275
   85SAPS  H13X 8128   3.826   4.441   9.169  1.7239 -1.0715 -0.4991
   85SAPS  H13Y 8129   3.972   4.551   9.157  0.7376 -3.1484  2.0665
   85SAPS  C314 8130   3.794   4.614   9.062 -0.1181 -0.3000  0.4255
   85SAPS  H14X 8131   3.825   4.563   8.968  0.4968 -0.5276  0.7450
   85SAPS  H14Y 8132   3.840   4.715   9.058 -0.5695 -0.1284 -0.8915
   85SAPS  C315 8133   3.643   4.624   9.059  0.7533  0.1581 -0.5407
   85SAPS  H15X 8134   3.611   4.713   9.117  2.8082  0.5373  0.0799
   85SAPS  H15Y 8135   3.597   4.540   9.116 -2.1436 -0.3506 -3.3209
   85SAPS  C316 8136   3.566   4.609   8.923 -0.0664 -0.2212  0.5847
   85SAPS  H16X 8137   3.455   4.608   8.930 -0.0609 -0.1694  0.6734
   85SAPS  H16Y 8138   3.589   4.508   8.883  0.6448  0.0778  0.2303
   85SAPS  C317 8139   3.617   4.723   8.822 -0.1570 -0.1805 -0.6813
   85SAPS  H17X 8140   3.726   4.706   8.817  0.2938  2.2494 -0.0571
   85SAPS  H17Y 8141   3.612   4.816   8.882  0.0742 -1.8957  2.2115
   85SAPS  C318 8142   3.549   4.735   8.691 -0.3967 -0.2007  0.3237
   85SAPS  H18X 8143   3.584   4.826   8.639  0.8897 -1.5371 -1.2761
   85SAPS  H18Y 8144   3.440   4.721   8.705 -0.7701  1.3681 -0.7621
   85SAPS  H18Z 8145   3.582   4.653   8.623 -0.9001 -0.8172  0.8037
   86SAPS     N 8146   5.562   3.179  11.125 -0.6882 -0.0500  0.0428
   86SAPS   HN1 8147   5.625   3.246  11.075  0.2450 -1.5063 -0.8177
   86SAPS   HN2 8148   5.482   3.147  11.066 -1.7866  1.6950  0.5137
   86SAPS   HN3 8149   5.514   3.227  11.203  2.3502 -1.9348  3.3400
   86SAPS   C12 8150   5.631   3.069  11.187 -0.1762  0.2233  0.4356
   86SAPS  H12A 8151   5.713   3.107  11.246 -0.1165 -0.0355  0.5181
   86SAPS   C13 8152   5.547   2.985  11.286  0.5982  0.0862 -0.2085
   86SAPS  O13A 8153   5.422   3.023  11.293  0.0814  0.3791  0.8160
   86SAPS  O13B 8154   5.589   2.879  11.336  0.2908 -0.3130  0.0916
   86SAPS   C11 8155   5.676   2.980  11.073  0.5866 -0.1844  0.1855
   86SAPS  H11A 8156   5.590   2.922  11.033  1.4192 -1.6273  0.4167
   86SAPS  H11B 8157   5.752   2.907  11.109  0.1348 -0.5657  0.3689
   86SAPS     P 8158   5.867   2.987  10.874  0.2092  0.0430 -0.2237
   86SAPS   O13 8159   5.995   3.031  10.939  0.5220 -0.1313  0.4073
   86SAPS   O14 8160   5.838   2.843  10.843  0.3424  0.3046 -0.1282
   86SAPS   O12 8161   5.737   3.049  10.962 -0.1098  0.1777 -0.1661
   86SAPS   O11 8162   5.865   3.072  10.740  0.1602  0.6504  1.1621
   86SAPS    C1 8163   5.744   3.144  10.709 -0.6585 -0.0617  0.0993
   86SAPS    HA 8164   5.655   3.081  10.729  0.0256 -0.0560  3.8819
   86SAPS    HB 8165   5.740   3.234  10.774 -1.9661 -0.5689  0.7550
   86SAPS    C2 8166   5.736   3.201  10.557 -0.1582  0.5438 -0.1027
   86SAPS    HS 8167   5.654   3.275  10.556  1.2135  2.1774  1.6180
   86SAPS   O21 8168   5.720   3.088  10.462 -0.4048 -0.5014 -0.2926
   86SAPS   C21 8169   5.594   3.055  10.445 -0.5826 -0.4063 -0.4410
   86SAPS   O22 8170   5.501   3.109  10.499 -0.0065  0.2722  0.9239
   86SAPS   C22 8171   5.575   2.923  10.352 -1.0579 -0.7809 -0.6466
   86SAPS   H2R 8172   5.677   2.896  10.317 -0.2653 -2.2050  2.4053
   86SAPS   H2S 8173   5.534   2.840  10.412 -2.2487 -0.9325 -1.6516
   86SAPS    C3 8174   5.860   3.288  10.534 -0.5683  0.5846  0.8624
   86SAPS    HX 8175   5.945   3.217  10.520 -2.2413 -0.9843 -2.5239
   86SAPS    HY 8176   5.879   3.351  10.624 -0.2480  1.1328  0.4173
   86SAPS   O31 8177   5.849   3.368  10.416 -0.2302  0.2926  0.1470
   86SAPS   C31 8178   5.821   3.495  10.441 -0.3228 -0.4577  0.4299
   86SAPS   O32 8179   5.771   3.534  10.543  0.8211  0.0312 -0.6884
   86SAPS   C32 8180   5.897   3.576  10.335  0.1143 -0.5816 -0.4859
   86SAPS   H2X 8181   5.993   3.531  10.302  0.6925  1.1601 -1.2778
   86SAPS   H2Y 8182   5.934   3.671  10.380  1.3257 -0.0548 -2.4617
   86SAPS   C23 8183   5.482   2.952  10.227 -0.5327  0.2376 -0.0742
   86SAPS   H3R 8184   5.534   3.029  10.166 -0.6421  0.4577  0.1033
   86SAPS   H3S 8185   5.386   2.998  10.260 -0.7434  0.9708 -1.6350
   86SAPS   C24 8186   5.456   2.826  10.142  0.3704  0.9712  0.9569
   86SAPS   H4R 8187   5.369   2.844  10.075 -0.1965  1.8447  1.9002
   86SAPS   H4S 8188   5.422   2.742  10.208 -1.1178 -0.6750 -1.7223
   86SAPS   C25 8189   5.575   2.776  10.055 -0.3589 -1.0242 -0.3218
   86SAPS   H5R 8190   5.657   2.722  10.104  1.9067  1.3456 -1.2432
   86SAPS   C26 8191   5.590   2.818   9.926 -0.6605 -0.4011 -0.6377
   86SAPS   H6R 8192   5.683   2.790   9.876 -0.8349  1.9168 -2.4253
   86SAPS   C27 8193   5.488   2.891   9.849 -0.3199 -0.5637  0.5066
   86SAPS   H7R 8194   5.469   2.989   9.899  2.4022  0.4299 -0.1780
   86SAPS   H7S 8195   5.400   2.824   9.849 -0.2900 -0.6338 -0.5822
   86SAPS   C28 8196   5.533   2.929   9.703 -0.1421  0.3230  0.0441
   86SAPS   H8R 8197   5.571   3.032   9.703 -0.9096  0.6332 -1.5221
   86SAPS   C29 8198   5.505   2.852   9.594  0.6910  0.5237  0.2947
   86SAPS   H9R 8199   5.536   2.887   9.495 -0.5226  0.4285 -0.1417
   86SAPS  C210 8200   5.442   2.714   9.587  0.3063 -0.0286 -0.1758
   86SAPS  H10R 8201   5.387   2.705   9.683 -0.4577  1.3985 -0.4588
   86SAPS  H10S 8202   5.524   2.640   9.600 -0.4302 -0.6114  1.4795
   86SAPS  C211 8203   5.359   2.682   9.463 -0.5108  0.1422 -0.1389
   86SAPS  H11R 8204   5.251   2.690   9.479 -0.6326 -0.4365 -0.6299
   86SAPS  C212 8205   5.409   2.648   9.343  0.0194 -0.5576 -0.5852
   86SAPS  H12R 8206   5.343   2.650   9.255 -0.0324  3.6301 -0.6656
   86SAPS  C213 8207   5.555   2.628   9.309 -0.8264 -0.3904 -0.5705
   86SAPS  H13R 8208   5.617   2.595   9.396 -2.5918 -4.0335 -0.5369
   86SAPS  H13S 8209   5.601   2.723   9.274  0.8425 -1.7501 -2.3032
   86SAPS  C214 8210   5.574   2.519   9.206  0.6776  0.1728  0.5004
   86SAPS  H14R 8211   5.578   2.415   9.243  1.5871 -0.5534 -1.4696
   86SAPS  C215 8212   5.613   2.531   9.075 -0.5010 -0.3820 -0.1173
   86SAPS  H15R 8213   5.633   2.440   9.017 -0.3193 -0.7308  0.4909
   86SAPS  C216 8214   5.641   2.671   9.014  0.7721 -0.2704  0.0837
   86SAPS  H16R 8215   5.749   2.692   9.031  1.2764 -2.0441 -0.7021
   86SAPS  H16S 8216   5.583   2.747   9.070 -3.3634 -1.4426 -2.1716
   86SAPS  C217 8217   5.622   2.683   8.865 -0.0508  0.7009  0.5629
   86SAPS  H17R 8218   5.520   2.646   8.840 -0.0285  2.2147 -2.2438
   86SAPS  H17S 8219   5.690   2.607   8.821 -0.0994  1.6280 -1.2267
   86SAPS  C218 8220   5.622   2.824   8.812  0.7473 -0.2545  0.6539
   86SAPS  H18R 8221   5.719   2.875   8.791  0.0918  1.3771  1.3605
   86SAPS  H18S 8222   5.577   2.897   8.884 -2.2700 -0.3604 -0.9613
   86SAPS  C219 8223   5.540   2.822   8.676 -0.1311  0.1561  0.2474
   86SAPS  H19R 8224   5.435   2.819   8.712 -0.4838 -0.3034 -0.7983
   86SAPS  H19S 8225   5.564   2.725   8.628  0.1464  0.0165  0.6567
   86SAPS  C220 8226   5.562   2.927   8.571 -0.4417 -0.1144  1.2175
   86SAPS  H20R 8227   5.534   3.028   8.609  1.1809  0.1592  1.7897
   86SAPS  H20S 8228   5.500   2.896   8.485  0.6351  1.3074 -0.1387
   86SAPS  H20T 8229   5.666   2.925   8.532 -1.3913  1.1135 -1.6437
   86SAPS   C33 8230   5.801   3.605  10.219 -0.2003  0.2209 -0.0739
   86SAPS   H3X 8231   5.712   3.652  10.267  0.8156  0.4503  1.6620
   86SAPS   H3Y 8232   5.779   3.509  10.168  1.4125 -0.6752  0.8688
   86SAPS   C34 8233   5.856   3.696  10.114 -0.5737  0.4076  0.5671
   86SAPS   H4X 8234   5.948   3.650  10.073 -0.9495 -0.9339  1.1796
   86SAPS   H4Y 8235   5.892   3.791  10.161 -1.9323  2.1418 -1.7101
   86SAPS   C35 8236   5.748   3.742  10.014 -0.1207  0.0201 -0.5825
   86SAPS   H5X 8237   5.674   3.794  10.077 -0.1570  0.0276 -0.6306
   86SAPS   H5Y 8238   5.702   3.651   9.969 -1.0676 -0.0170  0.4307
   86SAPS   C36 8239   5.812   3.831   9.906  0.4763  0.0118 -0.1586
   86SAPS   H6X 8240   5.892   3.770   9.861  1.0329  0.3627  0.3434
   86SAPS   H6Y 8241   5.870   3.919   9.941  0.6517  0.4606 -1.5135
   86SAPS   C37 8242   5.720   3.864   9.789 -0.9326  0.2438  0.7498
   86SAPS   H7X 8243   5.678   3.967   9.798 -2.2865 -0.3711  1.7103
   86SAPS   H7Y 8244   5.637   3.791   9.794  0.5096 -1.5054  0.2655
   86SAPS   C38 8245   5.795   3.841   9.653  0.0596  0.2466 -0.2752
   86SAPS   H8X 8246   5.839   3.740   9.637 -0.3036  0.1445 -0.6571
   86SAPS   H8Y 8247   5.881   3.911   9.659  0.9617 -0.8936  0.5602
   86SAPS   C39 8248   5.714   3.881   9.531 -0.1818  0.0705 -0.0831
   86SAPS   H9X 8249   5.657   3.974   9.553 -0.6275 -0.2241  0.0253
   86SAPS   H9Y 8250   5.636   3.804   9.511  1.9020 -2.6981  1.6956
   86SAPS  C310 8251   5.795   3.905   9.403 -0.2410 -0.5920 -0.5262
   86SAPS  H10X 8252   5.868   3.822   9.392  0.9432  0.2696  0.4606
   86SAPS  H10Y 8253   5.855   3.999   9.406  0.3677 -0.9402 -1.3615
   86SAPS  C311 8254   5.707   3.924   9.279  0.3313  0.4428 -0.2680
   86SAPS  H11X 8255   5.616   3.862   9.290  0.8666  0.0266  2.7164
   86SAPS  H11Y 8256   5.759   3.885   9.188  1.2120  0.1716  0.3352
   86SAPS  C312 8257   5.643   4.063   9.255  0.3171 -0.5231  0.0115
   86SAPS  H12X 8258   5.718   4.142   9.234 -1.0472  1.0833  0.8845
   86SAPS  H12Y 8259   5.585   4.100   9.342 -0.5394 -0.7987 -0.4262
   86SAPS  C313 8260   5.566   4.059   9.127 -0.2226 -0.3732  0.3964
   86SAPS  H13X 8261   5.476   3.995   9.132 -2.5859  2.4630 -1.5848
   86SAPS  H13Y 8262   5.638   4.023   9.050 -2.1560  1.3735 -2.4334
   86SAPS  C314 8263   5.515   4.199   9.067 -0.2585  0.7358 -0.0331
   86SAPS  H14X 8264   5.590   4.276   9.042 -2.1379  2.9458  0.6996
   86SAPS  H14Y 8265   5.439   4.245   9.134  0.4226  1.0831  0.5118
   86SAPS  C315 8266   5.441   4.193   8.937 -0.5459 -0.3961  0.8387
   86SAPS  H15X 8267   5.499   4.134   8.863 -2.3244  0.4239 -1.3296
   86SAPS  H15Y 8268   5.429   4.294   8.894  1.0774 -0.4667  0.1398
   86SAPS  C316 8269   5.299   4.132   8.938 -0.2615  0.4573 -0.0555
   86SAPS  H16X 8270   5.226   4.197   8.991  1.5037 -0.1067  3.3630
   86SAPS  H16Y 8271   5.291   4.038   8.998 -3.0610  0.1954 -0.6887
   86SAPS  C317 8272   5.264   4.088   8.795 -0.1599 -0.0882 -0.0098
   86SAPS  H17X 8273   5.307   4.165   8.727  4.1087 -0.6384  1.7285
   86SAPS  H17Y 8274   5.153   4.083   8.796 -0.1311 -3.7766  1.5134
   86SAPS  C318 8275   5.320   3.953   8.753  0.2635 -0.0847  0.1203
   86SAPS  H18X 8276   5.287   3.917   8.653 -2.7898  2.0426  0.2339
   86SAPS  H18Y 8277   5.292   3.877   8.830 -0.0066 -0.2580 -0.1482
   86SAPS  H18Z 8278   5.431   3.967   8.751  0.1326  0.9349 -1.2975
   87SAPS     N 8279   6.291   3.972  10.740  0.4268  0.0139 -0.5079
   87SAPS   HN1 8280   6.373   3.963  10.676 -0.1165 -0.0393 -1.2013
   87SAPS   HN2 8281   6.218   3.902  10.718  1.1375 -1.3360  1.1689
   87SAPS   HN3 8282   6.243   4.063  10.727 -1.2640 -0.6929  0.4383
   87SAPS   C12 8283   6.334   3.947  10.885 -0.6614 -0.1134 -0.0081
   87SAPS  H12A 8284   6.246   3.896  10.920 -0.2510 -2.5132 -2.1372
   87SAPS   C13 8285   6.462   3.860  10.897  0.0554 -0.7446 -0.8604
   87SAPS  O13A 8286   6.510   3.800  10.799 -0.2923 -0.2326 -0.4539
   87SAPS  O13B 8287   6.519   3.855  11.010  0.3380 -0.1895  0.6162
   87SAPS   C11 8288   6.344   4.088  10.957  0.1826 -0.4887  0.3482
   87SAPS  H11A 8289   6.397   4.076  11.054  1.1058  0.3586 -0.0368
   87SAPS  H11B 8290   6.238   4.115  10.975 -0.2052 -0.6631 -1.5279
   87SAPS     P 8291   6.382   4.346  10.907 -0.4064 -0.3514 -0.1847
   87SAPS   O13 8292   6.242   4.379  10.868  0.3730  0.3052  0.0399
   87SAPS   O14 8293   6.421   4.376  11.046 -0.3545  0.2968 -0.5619
   87SAPS   O12 8294   6.406   4.192  10.878 -0.4560 -0.0685 -0.3373
   87SAPS   O11 8295   6.481   4.426  10.807  0.3022  0.2251  0.2318
   87SAPS    C1 8296   6.537   4.362  10.692 -0.8919  0.1472 -0.5569
   87SAPS    HA 8297   6.626   4.421  10.663 -0.8035  1.3659  1.9229
   87SAPS    HB 8298   6.587   4.266  10.715  1.8334  1.2749 -1.4301
   87SAPS    C2 8299   6.438   4.354  10.571  1.1282 -0.5509 -0.2241
   87SAPS    HS 8300   6.343   4.304  10.601  1.4102 -0.4661  0.8548
   87SAPS   O21 8301   6.506   4.293  10.469 -0.4126 -0.4800 -0.1241
   87SAPS   C21 8302   6.506   4.159  10.467 -0.3592 -0.0312  0.0598
   87SAPS   O22 8303   6.458   4.086  10.552  0.2486 -0.1827  0.2090
   87SAPS   C22 8304   6.599   4.114  10.363 -0.0029  0.3884  1.0243
   87SAPS   H2R 8305   6.607   4.198  10.291 -0.0788 -0.5583 -0.1075
   87SAPS   H2S 8306   6.698   4.098  10.412  0.1598 -0.5711  0.4128
   87SAPS    C3 8307   6.388   4.499  10.527 -0.7234 -0.4092 -0.3056
   87SAPS    HX 8308   6.486   4.546  10.506 -0.1900  0.1300  2.9115
   87SAPS    HY 8309   6.337   4.558  10.606 -1.5045  2.1188 -2.5481
   87SAPS   O31 8310   6.302   4.495  10.415  0.2579  0.3079  0.4135
   87SAPS   C31 8311   6.334   4.534  10.292 -0.1528 -0.2761 -0.5376
   87SAPS   O32 8312   6.450   4.548  10.253 -0.0812 -0.4016  0.2118
   87SAPS   C32 8313   6.209   4.537  10.204 -0.6372  0.0064  0.3404
   87SAPS   H2X 8314   6.132   4.605  10.245 -0.1611  1.8432 -1.6429
   87SAPS   H2Y 8315   6.170   4.433  10.206 -1.5696  0.2736 -1.8978
   87SAPS   C23 8316   6.551   3.986  10.288 -0.2194 -0.4616 -0.5474
   87SAPS   H3R 8317   6.452   3.995  10.238  0.1982 -1.1921 -1.5265
   87SAPS   H3S 8318   6.539   3.903  10.361 -1.0333 -1.4881 -1.8075
   87SAPS   C24 8319   6.654   3.948  10.186 -0.0057  0.8725  0.1811
   87SAPS   H4R 8320   6.753   3.941  10.237  1.3040  3.0693 -1.8110
   87SAPS   H4S 8321   6.677   4.029  10.113  1.5397 -0.7002 -1.1853
   87SAPS   C25 8322   6.623   3.811  10.119 -0.0305 -0.2633 -0.2607
   87SAPS   H5R 8323   6.599   3.730  10.189 -2.2780 -0.1183 -0.8033
   87SAPS   C26 8324   6.628   3.785   9.987 -0.5209  0.2727 -0.1062
   87SAPS   H6R 8325   6.596   3.686   9.952 -0.6417  0.7089 -1.2793
   87SAPS   C27 8326   6.674   3.878   9.879 -0.0142 -0.0769 -0.0457
   87SAPS   H7R 8327   6.712   3.967   9.933  1.1360 -0.4454 -0.2197
   87SAPS   H7S 8328   6.584   3.904   9.819 -1.0926  0.0147  1.5481
   87SAPS   C28 8329   6.796   3.817   9.812 -0.4334  0.1733 -0.7555
   87SAPS   H8R 8330   6.868   3.798   9.893 -2.2603  3.9284  2.1202
   87SAPS   C29 8331   6.809   3.776   9.685 -1.0339 -0.4135 -0.2053
   87SAPS   H9R 8332   6.905   3.735   9.648  0.1286  1.6232  0.3670
   87SAPS  C210 8333   6.707   3.788   9.572  0.2985 -0.2592  0.4691
   87SAPS  H10R 8334   6.743   3.847   9.485  0.2724  1.0582  1.3319
   87SAPS  H10S 8335   6.614   3.843   9.596  0.0579 -0.3067 -0.3291
   87SAPS  C211 8336   6.649   3.655   9.538 -0.1898  0.1773 -0.2408
   87SAPS  H11R 8337   6.552   3.637   9.585 -1.1616  1.4599 -1.6485
   87SAPS  C212 8338   6.691   3.555   9.460  0.2224 -0.5080  0.6300
   87SAPS  H12R 8339   6.631   3.463   9.465 -0.4950 -0.1926 -1.3546
   87SAPS  C213 8340   6.824   3.568   9.389  0.8529  0.5607  0.0232
   87SAPS  H13R 8341   6.894   3.526   9.464 -0.9771  0.9117  2.0140
   87SAPS  H13S 8342   6.857   3.674   9.376 -2.1666  1.8191  1.5049
   87SAPS  C214 8343   6.822   3.500   9.254 -0.3706 -0.2526  0.4950
   87SAPS  H14R 8344   6.729   3.512   9.197 -0.6553 -2.1115  0.5164
   87SAPS  C215 8345   6.922   3.431   9.203 -0.0865  0.3919  0.1601
   87SAPS  H15R 8346   6.909   3.400   9.098  2.0735 -0.4745  0.1088
   87SAPS  C216 8347   7.056   3.388   9.264  0.7140 -0.4474 -0.1332
   87SAPS  H16R 8348   7.027   3.289   9.305 -1.5395 -0.5496 -1.8075
   87SAPS  H16S 8349   7.085   3.439   9.358 -1.3941 -3.0275  2.0763
   87SAPS  C217 8350   7.160   3.369   9.151 -0.5271  0.2926  0.3712
   87SAPS  H17R 8351   7.175   3.453   9.079  0.8993 -1.9672 -2.1411
   87SAPS  H17S 8352   7.114   3.283   9.098 -0.2637  0.9521 -0.9586
   87SAPS  C218 8353   7.295   3.324   9.193  0.2109  0.0009 -0.0925
   87SAPS  H18R 8354   7.292   3.220   9.232  2.2997  0.1666  0.6594
   87SAPS  H18S 8355   7.341   3.393   9.267  0.4994  0.5011 -0.7287
   87SAPS  C219 8356   7.399   3.334   9.072 -0.5729  0.3115 -0.0394
   87SAPS  H19R 8357   7.375   3.420   9.006  2.4635 -0.2342 -2.0862
   87SAPS  H19S 8358   7.402   3.239   9.015  2.1525 -0.1808  0.7704
   87SAPS  C220 8359   7.540   3.341   9.126  0.4215 -0.2004  0.1278
   87SAPS  H20R 8360   7.555   3.434   9.185 -1.6975 -0.0921  0.5705
   87SAPS  H20S 8361   7.606   3.343   9.036 -1.0888  0.8337 -1.0223
   87SAPS  H20T 8362   7.582   3.265   9.194  1.0331 -0.7666 -0.8572
   87SAPS   C33 8363   6.250   4.560  10.058  0.0369  0.1872 -0.1379
   87SAPS   H3X 8364   6.342   4.508  10.025  0.2905  0.4086  0.2190
   87SAPS   H3Y 8365   6.263   4.670  10.058 -0.1037  0.2099  0.3839
   87SAPS   C34 8366   6.135   4.531   9.969  0.2347  0.2158 -0.4206
   87SAPS   H4X 8367   6.062   4.614   9.979 -1.9638 -1.6209 -0.4187
   87SAPS   H4Y 8368   6.090   4.431   9.982  1.1836 -0.0329  1.2347
   87SAPS   C35 8369   6.192   4.536   9.825 -0.6276  0.4058 -0.6449
   87SAPS   H5X 8370   6.249   4.445   9.796 -4.4334 -2.0929 -0.8636
   87SAPS   H5Y 8371   6.259   4.623   9.807  3.2423 -1.7646  1.8267
   87SAPS   C36 8372   6.073   4.540   9.737  0.5260  0.0077  0.3449
   87SAPS   H6X 8373   6.011   4.628   9.766 -0.1007 -0.6239  0.9466
   87SAPS   H6Y 8374   6.009   4.450   9.749  0.4373  0.1625  1.0862
   87SAPS   C37 8375   6.115   4.568   9.593 -0.3343  0.1953  1.0558
   87SAPS   H7X 8376   6.209   4.519   9.559 -1.1586 -1.4116  0.9770
   87SAPS   H7Y 8377   6.140   4.674   9.577 -0.4522 -0.1308 -1.7078
   87SAPS   C38 8378   5.993   4.553   9.499  0.0186  0.5317  0.6398
   87SAPS   H8X 8379   6.032   4.576   9.397  1.8224 -3.5983  0.1943
   87SAPS   H8Y 8380   5.914   4.624   9.531 -1.9601 -0.1020 -2.4410
   87SAPS   C39 8381   5.917   4.414   9.486 -0.1639 -0.1253  0.4179
   87SAPS   H9X 8382   5.872   4.393   9.585  0.9610  0.6279  1.1086
   87SAPS   H9Y 8383   5.986   4.329   9.465 -1.7593 -0.9461 -1.9794
   87SAPS  C310 8384   5.791   4.432   9.383 -0.2269 -0.2484 -0.3156
   87SAPS  H10X 8385   5.718   4.493   9.439  0.1924  1.2846 -1.3686
   87SAPS  H10Y 8386   5.749   4.331   9.363  2.9604 -1.3695 -2.0837
   87SAPS  C311 8387   5.825   4.486   9.243  0.1485  0.2114  0.6530
   87SAPS  H11X 8388   5.863   4.590   9.250 -0.1862  0.3171  0.9054
   87SAPS  H11Y 8389   5.728   4.503   9.191 -0.2473  1.9503  1.8711
   87SAPS  C312 8390   5.907   4.404   9.146 -0.3321 -0.1150  0.4254
   87SAPS  H12X 8391   5.862   4.303   9.145 -0.9307  0.1291  1.4808
   87SAPS  H12Y 8392   6.011   4.397   9.185  0.3996  2.1111 -0.8894
   87SAPS  C313 8393   5.934   4.457   9.006 -0.6274  0.0005 -0.2340
   87SAPS  H13X 8394   6.004   4.387   8.957 -1.2358 -0.3126 -0.6681
   87SAPS  H13Y 8395   5.990   4.552   9.023 -2.3482  0.8500  0.9958
   87SAPS  C314 8396   5.814   4.480   8.919 -0.0174 -0.0672 -0.5396
   87SAPS  H14X 8397   5.728   4.522   8.977  0.3794 -1.3575  1.0380
   87SAPS  H14Y 8398   5.786   4.382   8.875 -0.0013 -0.3042 -0.0271
   87SAPS  C315 8399   5.847   4.572   8.801 -0.6786  0.0286 -0.0959
   87SAPS  H15X 8400   5.893   4.664   8.843  1.6983 -1.3465  0.5517
   87SAPS  H15Y 8401   5.754   4.585   8.742  1.1264  0.4078 -3.1013
   87SAPS  C316 8402   5.958   4.517   8.702 -0.2567 -0.7382 -0.3290
   87SAPS  H16X 8403   5.911   4.434   8.647  1.4058 -2.6036  0.9387
   87SAPS  H16Y 8404   6.043   4.484   8.766  1.7174  1.2608 -1.7323
   87SAPS  C317 8405   6.022   4.620   8.611  0.3716  0.5670 -0.5009
   87SAPS  H17X 8406   5.933   4.649   8.550 -0.7652  1.6634  1.5706
   87SAPS  H17Y 8407   6.084   4.558   8.543  1.5978 -0.1368  1.1726
   87SAPS  C318 8408   6.095   4.727   8.682 -0.0443 -0.2233 -0.0291
   87SAPS  H18X 8409   6.133   4.801   8.609 -0.0185 -0.0546  0.1530
   87SAPS  H18Y 8410   6.175   4.691   8.751  0.8307  1.0592 -0.3521
   87SAPS  H18Z 8411   6.012   4.773   8.740 -1.2389 -3.6263  1.2380
   88SAPS     N 8412   1.937   4.496  10.943  0.0883  0.3150  0.4119
   88SAPS   HN1 8413   1.850   4.477  10.890  0.6781  2.3392 -1.4435
   88SAPS   HN2 8414   1.952   4.597  10.923  0.3014  0.5732  1.7683
   88SAPS   HN3 8415   2.019   4.452  10.895 -0.1029  1.5954 -1.1959
   88SAPS   C12 8416   1.917   4.458  11.081  0.1641 -0.0445  0.7424
   88SAPS  H12A 8417   1.939   4.552  11.130  0.8729  0.1799 -0.0008
   88SAPS   C13 8418   1.765   4.416  11.107 -0.7148 -0.2304  0.2775
   88SAPS  O13A 8419   1.688   4.455  11.020 -0.1085  0.3559 -0.3585
   88SAPS  O13B 8420   1.720   4.388  11.223 -0.3066  0.6082 -0.1467
   88SAPS   C11 8421   2.008   4.336  11.126  0.0908 -0.0342  0.4566
   88SAPS  H11A 8422   1.999   4.251  11.055 -3.4130  2.3585 -2.3386
   88SAPS  H11B 8423   1.973   4.305  11.226  1.6693 -1.3309  0.6471
   88SAPS     P 8424   2.261   4.394  11.046 -0.1768 -0.3372  0.2581
   88SAPS   O13 8425   2.324   4.530  11.075 -0.0101  0.2304 -0.0684
   88SAPS   O14 8426   2.352   4.277  11.056  0.2276 -0.2802  0.2705
   88SAPS   O12 8427   2.145   4.370  11.148 -0.3613 -0.5470  0.8753
   88SAPS   O11 8428   2.187   4.393  10.907  0.2675 -0.2451  0.4770
   88SAPS    C1 8429   2.165   4.286  10.817  0.0999  0.1520 -0.9872
   88SAPS    HA 8430   2.218   4.192  10.843 -1.1546 -0.1736  0.5566
   88SAPS    HB 8431   2.057   4.262  10.821  0.3841 -1.7132 -2.7699
   88SAPS    C2 8432   2.216   4.306  10.670  0.0183 -0.0402 -1.3410
   88SAPS    HS 8433   2.327   4.317  10.668  0.0032  1.1825  0.9152
   88SAPS   O21 8434   2.152   4.416  10.603  0.0544 -0.9504 -0.0002
   88SAPS   C21 8435   2.231   4.493  10.533 -0.1936  0.9255  0.0593
   88SAPS   O22 8436   2.348   4.469  10.510  0.3031 -0.3677  0.7551
   88SAPS   C22 8437   2.147   4.616  10.485 -0.2613  0.0707  0.1292
   88SAPS   H2R 8438   2.132   4.682  10.573  1.3594  0.1165  0.4081
   88SAPS   H2S 8439   2.216   4.661  10.410  1.2480 -1.5948  0.4393
   88SAPS    C3 8440   2.186   4.177  10.589  0.4776  0.0855 -0.5926
   88SAPS    HX 8441   2.075   4.180  10.581  0.3269 -1.0355  0.6744
   88SAPS    HY 8442   2.213   4.085  10.646  1.2374  0.6748  0.0215
   88SAPS   O31 8443   2.249   4.169  10.467 -0.2733 -0.2618  0.2534
   88SAPS   C31 8444   2.379   4.149  10.470  0.0423 -0.3594 -0.0111
   88SAPS   O32 8445   2.447   4.115  10.565  0.0073  0.0497  0.1598
   88SAPS   C32 8446   2.436   4.196  10.328 -0.3108  0.1204 -0.4209
   88SAPS   H2X 8447   2.365   4.276  10.298 -1.5229 -0.1253  1.6467
   88SAPS   H2Y 8448   2.421   4.104  10.268  0.0324 -1.3275  1.6009
   88SAPS   C23 8449   2.008   4.580  10.420  0.0663 -0.0871 -0.4206
   88SAPS   H3R 8450   1.948   4.664  10.461  1.4423 -0.2355  2.0755
   88SAPS   H3S 8451   1.957   4.492  10.466  2.5695 -1.2615  0.2910
   88SAPS   C24 8452   1.996   4.562  10.265  0.2852 -0.2888 -0.1809
   88SAPS   H4R 8453   2.034   4.652  10.210 -1.5914  1.4147  1.1912
   88SAPS   H4S 8454   1.893   4.539  10.231 -0.3255 -0.0181  1.4415
   88SAPS   C25 8455   2.068   4.435  10.246  0.4761  0.4081  0.3002
   88SAPS   H5R 8456   2.064   4.351  10.317 -0.6317 -0.5796 -0.8964
   88SAPS   C26 8457   2.132   4.416  10.135  0.0186  0.3870 -0.1331
   88SAPS   H6R 8458   2.185   4.322  10.116  1.9940  1.3962  0.0700
   88SAPS   C27 8459   2.154   4.507  10.015 -0.1767 -1.1903  0.0809
   88SAPS   H7R 8460   2.170   4.614  10.041  3.0672 -1.3569 -0.7594
   88SAPS   H7S 8461   2.071   4.494   9.942 -0.0976 -1.9044  0.1158
   88SAPS   C28 8462   2.288   4.473   9.943  0.2986 -0.3665 -0.7711
   88SAPS   H8R 8463   2.382   4.458   9.999 -0.6154 -0.2482  0.8404
   88SAPS   C29 8464   2.294   4.455   9.814  0.1365  0.4726 -0.1773
   88SAPS   H9R 8465   2.394   4.434   9.774  0.6050  1.5692  0.3816
   88SAPS  C210 8466   2.178   4.460   9.711  0.1189 -0.7922 -0.6617
   88SAPS  H10R 8467   2.083   4.497   9.758  0.4551  0.8393 -1.2007
   88SAPS  H10S 8468   2.162   4.357   9.673  2.9200 -0.8785 -1.7748
   88SAPS  C211 8469   2.200   4.549   9.583 -1.0921  0.1838 -0.0614
   88SAPS  H11R 8470   2.171   4.653   9.602 -0.7009 -0.1354  2.7180
   88SAPS  C212 8471   2.265   4.503   9.466 -0.0900 -0.4904  0.3691
   88SAPS  H12R 8472   2.273   4.582   9.390  3.7021 -0.7955  0.2627
   88SAPS  C213 8473   2.315   4.364   9.426  0.2132 -0.2538 -0.3379
   88SAPS  H13R 8474   2.293   4.309   9.519  2.2744  1.2967  1.1590
   88SAPS  H13S 8475   2.426   4.367   9.415  0.2736  0.0915  0.3244
   88SAPS  C214 8476   2.236   4.307   9.311 -0.1677 -0.3516  0.1291
   88SAPS  H14R 8477   2.143   4.256   9.341 -0.0077 -1.3282 -0.9383
   88SAPS  C215 8478   2.264   4.292   9.181 -0.2824  0.7470  0.0030
   88SAPS  H15R 8479   2.182   4.250   9.120  0.4895 -0.4202 -0.2824
   88SAPS  C216 8480   2.396   4.334   9.111  0.6719  0.0520  0.0726
   88SAPS  H16R 8481   2.406   4.298   9.007  1.2586 -0.1186  0.1819
   88SAPS  H16S 8482   2.491   4.295   9.154  1.2375 -0.8386 -1.8803
   88SAPS  C217 8483   2.430   4.488   9.113 -0.6983  0.3001 -1.2591
   88SAPS  H17R 8484   2.533   4.503   9.074  1.5194 -1.7702  3.1483
   88SAPS  H17S 8485   2.419   4.526   9.216 -3.3351  3.6961 -2.5887
   88SAPS  C218 8486   2.334   4.565   9.034 -0.6972  0.6345  0.1338
   88SAPS  H18R 8487   2.237   4.571   9.088 -1.1822  0.8363 -0.7357
   88SAPS  H18S 8488   2.309   4.511   8.940 -2.1470 -1.1459  1.4674
   88SAPS  C219 8489   2.385   4.702   8.995 -0.1892 -0.3750  0.4704
   88SAPS  H19R 8490   2.434   4.751   9.082  1.0546  0.2831 -0.5890
   88SAPS  H19S 8491   2.301   4.768   8.965  0.8243  0.9197  0.3874
   88SAPS  C220 8492   2.478   4.706   8.875  0.2158 -0.0111 -0.0584
   88SAPS  H20R 8493   2.413   4.679   8.789 -0.8446 -1.7557  1.2172
   88SAPS  H20S 8494   2.562   4.633   8.867  1.0334  0.7509  1.1660
   88SAPS  H20T 8495   2.522   4.804   8.849 -2.0538  1.0761  0.0001
   88SAPS   C33 8496   2.584   4.235  10.348  0.3350 -0.1726  0.4713
   88SAPS   H3X 8497   2.647   4.144  10.356  0.8611 -0.0538 -1.6241
   88SAPS   H3Y 8498   2.595   4.285  10.446 -0.1022  0.6919  0.1005
   88SAPS   C34 8499   2.631   4.317  10.232 -0.2769 -0.3073  0.2491
   88SAPS   H4X 8500   2.741   4.326  10.241 -0.2311 -1.0912  0.4716
   88SAPS   H4Y 8501   2.585   4.418  10.246  0.7850  0.0685  1.2585
   88SAPS   C35 8502   2.583   4.273  10.096 -0.1597  0.8540  0.8135
   88SAPS   H5X 8503   2.473   4.281  10.084 -0.2168 -1.5594 -0.9493
   88SAPS   H5Y 8504   2.588   4.162  10.098 -2.1971  0.7427  2.1639
   88SAPS   C36 8505   2.673   4.331   9.982  0.5552 -0.2959 -0.6755
   88SAPS   H6X 8506   2.776   4.305  10.014 -0.0099 -2.7733 -0.6540
   88SAPS   H6Y 8507   2.669   4.442   9.988 -1.1655 -0.3455 -0.2151
   88SAPS   C37 8508   2.645   4.258   9.849  0.7564 -0.4861  0.0532
   88SAPS   H7X 8509   2.537   4.275   9.827  0.7076  0.2494  0.8147
   88SAPS   H7Y 8510   2.661   4.148   9.849 -1.7378 -0.9127 -0.8141
   88SAPS   C38 8511   2.732   4.316   9.731  0.0863  0.2862 -0.6888
   88SAPS   H8X 8512   2.841   4.304   9.747  0.2222  2.0879 -0.0602
   88SAPS   H8Y 8513   2.729   4.427   9.730 -1.2617  0.2816 -1.9770
   88SAPS   C39 8514   2.690   4.246   9.599 -0.2590  0.0233  0.6269
   88SAPS   H9X 8515   2.581   4.266   9.589 -0.3929  0.2226  2.1787
   88SAPS   H9Y 8516   2.712   4.138   9.608 -1.4828 -0.2559  0.5082
   88SAPS  C310 8517   2.774   4.292   9.487 -0.2076  0.4209 -0.5809
   88SAPS  H10X 8518   2.879   4.300   9.524  0.8688  2.0002 -3.6115
   88SAPS  H10Y 8519   2.761   4.399   9.463  0.5601  0.1565 -2.3548
   88SAPS  C311 8520   2.764   4.213   9.355  0.2172  0.3974 -0.2002
   88SAPS  H11X 8521   2.657   4.185   9.343  0.1757  1.1230 -1.8138
   88SAPS  H11Y 8522   2.823   4.120   9.366 -0.7301  0.0455  3.0534
   88SAPS  C312 8523   2.822   4.287   9.230 -0.3598  0.4172  0.1986
   88SAPS  H12X 8524   2.925   4.316   9.258  0.1110 -0.7545 -0.2534
   88SAPS  H12Y 8525   2.771   4.386   9.230 -0.0196  0.5957  0.3563
   88SAPS  C313 8526   2.804   4.210   9.097 -0.9566  0.2475  0.4943
   88SAPS  H13X 8527   2.700   4.187   9.067 -1.4414  0.0727  2.2314
   88SAPS  H13Y 8528   2.850   4.109   9.111  1.2641  0.8239 -1.7557
   88SAPS  C314 8529   2.865   4.284   8.974 -0.9807 -0.0103 -0.3425
   88SAPS  H14X 8530   2.932   4.219   8.913  0.0872  0.3183  0.4532
   88SAPS  H14Y 8531   2.929   4.372   8.997 -1.4636 -0.0553  1.2608
   88SAPS  C315 8532   2.755   4.339   8.887 -0.9141 -0.4821  1.0049
   88SAPS  H15X 8533   2.684   4.408   8.937 -0.9286  0.4104 -0.2124
   88SAPS  H15Y 8534   2.696   4.256   8.843  0.5265 -1.5575  1.0125
   88SAPS  C316 8535   2.816   4.436   8.782 -0.7759 -0.3427 -0.6221
   88SAPS  H16X 8536   2.927   4.430   8.789 -0.8510 -1.4244 -0.2675
   88SAPS  H16Y 8537   2.785   4.539   8.811 -0.6969 -0.2565 -0.8384
   88SAPS  C317 8538   2.772   4.394   8.640 -0.5278  0.3854  0.2296
   88SAPS  H17X 8539   2.661   4.385   8.641 -0.7232  2.4586  1.2002
   88SAPS  H17Y 8540   2.817   4.293   8.625  1.9032  1.5546 -0.9165
   88SAPS  C318 8541   2.813   4.499   8.535 -0.4901  0.4555  0.3064
   88SAPS  H18X 8542   2.761   4.592   8.567  1.5437  1.0778  2.1069
   88SAPS  H18Y 8543   2.787   4.466   8.432  1.6466  1.5561 -0.6433
   88SAPS  H18Z 8544   2.924   4.507   8.534 -0.3050 -1.5032  0.0663
   89SAPS     N 8545   2.392   5.717  10.744 -0.0894  0.6088 -0.1906
   89SAPS   HN1 8546   2.330   5.770  10.679  0.0500  2.0171  0.7686
   89SAPS   HN2 8547   2.481   5.767  10.765  0.2787  0.9857 -2.4628
   89SAPS   HN3 8548   2.419   5.622  10.713  0.3629  1.2996 -2.0112
   89SAPS   C12 8549   2.315   5.684  10.868  0.4139 -0.4565  0.2058
   89SAPS  H12A 8550   2.246   5.604  10.844 -0.3591  0.4802 -0.8339
   89SAPS   C13 8551   2.398   5.627  10.982  0.0647  0.0182 -0.3424
   89SAPS  O13A 8552   2.525   5.628  10.971 -0.6200 -0.3379  0.0807
   89SAPS  O13B 8553   2.343   5.555  11.072  0.6469  0.3546  0.0370
   89SAPS   C11 8554   2.220   5.792  10.922 -0.2857 -0.0536 -0.1833
   89SAPS  H11A 8555   2.270   5.891  10.924 -2.1318  0.9165  0.4388
   89SAPS  H11B 8556   2.189   5.780  11.028  0.4439  1.6221  0.2520
   89SAPS     P 8557   2.074   5.885  10.722  0.2504 -0.3709  0.3343
   89SAPS   O13 8558   2.163   5.834  10.623  0.4049  0.3050  0.1332
   89SAPS   O14 8559   1.928   5.901  10.685 -0.9244  0.1060 -0.4783
   89SAPS   O12 8560   2.097   5.803  10.850 -0.0584 -0.2703 -0.1731
   89SAPS   O11 8561   2.118   6.033  10.756 -0.3140  0.2425 -0.3575
   89SAPS    C1 8562   2.092   6.142  10.667 -0.3425  0.1954 -0.4296
   89SAPS    HA 8563   2.017   6.126  10.587 -0.2190  1.7038 -0.8733
   89SAPS    HB 8564   2.053   6.232  10.718  0.0721  0.8252 -1.1996
   89SAPS    C2 8565   2.229   6.184  10.600 -0.4355  0.1573  0.5579
   89SAPS    HS 8566   2.207   6.269  10.533  0.4821  1.2666  1.6032
   89SAPS   O21 8567   2.300   6.083  10.533 -0.2709  0.0488 -0.0200
   89SAPS   C21 8568   2.250   6.049  10.414 -0.2967  0.0115  0.2003
   89SAPS   O22 8569   2.150   6.101  10.364  0.1286  0.4648  0.0399
   89SAPS   C22 8570   2.331   5.937  10.352  0.1819 -0.0711 -0.0455
   89SAPS   H2R 8571   2.437   5.929  10.381 -0.2869 -2.1956  1.2700
   89SAPS   H2S 8572   2.283   5.847  10.396 -1.1537  1.0552  0.9314
   89SAPS    C3 8573   2.329   6.251  10.697  0.5793  0.5664  0.1239
   89SAPS    HX 8574   2.366   6.181  10.775  1.8186  1.7831  0.6698
   89SAPS    HY 8575   2.273   6.325  10.759  1.1346 -1.0464  2.6716
   89SAPS   O31 8576   2.433   6.323  10.624 -0.1684  0.2504 -0.0687
   89SAPS   C31 8577   2.536   6.247  10.580 -0.4648  0.2079 -1.3341
   89SAPS   O32 8578   2.568   6.136  10.628 -0.0055  0.1914 -0.1742
   89SAPS   C32 8579   2.612   6.318  10.468 -0.0519 -0.3903  0.2655
   89SAPS   H2X 8580   2.720   6.293  10.476  0.3538  1.3479  0.6104
   89SAPS   H2Y 8581   2.602   6.427  10.486 -1.4283 -0.6096  1.0255
   89SAPS   C23 8582   2.304   5.922  10.201  0.1909  0.8269  0.3951
   89SAPS   H3R 8583   2.344   6.008  10.142 -1.8479  2.1080  0.7596
   89SAPS   H3S 8584   2.194   5.905  10.195  0.3236 -0.6557  1.6228
   89SAPS   C24 8585   2.366   5.794  10.146 -0.2242  0.0879  0.0696
   89SAPS   H4R 8586   2.349   5.704  10.209  0.1782  0.5242  0.8198
   89SAPS   H4S 8587   2.476   5.809  10.150 -0.1505 -0.4130  0.0313
   89SAPS   C25 8588   2.330   5.758  10.000  0.1579 -0.0935 -0.4865
   89SAPS   H5R 8589   2.222   5.742   9.982 -0.0094  1.4458 -1.0103
   89SAPS   C26 8590   2.412   5.756   9.891 -0.1367  0.0209  0.3786
   89SAPS   H6R 8591   2.360   5.744   9.794 -0.6188 -0.0546  0.6407
   89SAPS   C27 8592   2.558   5.781   9.890 -0.1086 -0.1262 -0.5884
   89SAPS   H7R 8593   2.597   5.717   9.808  0.1118 -1.9092  0.8149
   89SAPS   H7S 8594   2.599   5.737   9.984 -0.9874  1.7188  0.7192
   89SAPS   C28 8595   2.596   5.921   9.875 -0.4591  0.2101 -0.1083
   89SAPS   H8R 8596   2.612   5.973   9.970 -1.5704  0.1561  0.1234
   89SAPS   C29 8597   2.608   5.989   9.761 -0.1903 -0.1537 -1.0254
   89SAPS   H9R 8598   2.629   6.095   9.778  2.9150 -0.8487  0.2954
   89SAPS  C210 8599   2.578   5.947   9.620 -0.5151  0.0017 -0.1385
   89SAPS  H10R 8600   2.493   6.005   9.579  0.1812  0.3661 -1.0934
   89SAPS  H10S 8601   2.544   5.841   9.632  1.4355 -0.7043 -0.4693
   89SAPS  C211 8602   2.681   5.955   9.505 -0.9679  0.6217 -0.2196
   89SAPS  H11R 8603   2.787   5.949   9.533 -0.0660 -0.5344 -3.4248
   89SAPS  C212 8604   2.664   5.954   9.373  0.1432  0.6029  0.1426
   89SAPS  H12R 8605   2.751   5.964   9.306 -0.5640 -2.0962 -1.3427
   89SAPS  C213 8606   2.529   5.947   9.313  0.1732 -0.6566  0.3686
   89SAPS  H13R 8607   2.454   5.993   9.381  0.5194 -1.7096  1.5046
   89SAPS  H13S 8608   2.498   5.842   9.294 -0.6142 -0.5532  1.0138
   89SAPS  C214 8609   2.532   6.029   9.184 -0.6352  0.0250  0.0127
   89SAPS  H14R 8610   2.470   6.120   9.189 -0.5473  0.0848  0.0301
   89SAPS  C215 8611   2.580   5.998   9.058  0.0365 -0.0376 -0.2563
   89SAPS  H15R 8612   2.567   6.068   8.974  0.3250  0.6018  0.2295
   89SAPS  C216 8613   2.662   5.875   9.029 -0.4163 -0.3254  0.2846
   89SAPS  H16R 8614   2.613   5.823   8.944  1.9217 -0.2292 -1.1924
   89SAPS  H16S 8615   2.676   5.802   9.111  1.3647 -1.1786 -0.7428
   89SAPS  C217 8616   2.806   5.909   8.983 -0.3694  0.1993 -0.3971
   89SAPS  H17R 8617   2.855   5.809   8.982 -1.3961 -0.3379  0.5235
   89SAPS  H17S 8618   2.858   5.972   9.059 -1.1887 -0.0507  0.3926
   89SAPS  C218 8619   2.811   5.971   8.840  0.2560  0.0005 -0.8367
   89SAPS  H18R 8620   2.744   6.059   8.842  0.7243  0.4287  2.2327
   89SAPS  H18S 8621   2.761   5.904   8.768 -0.7617  0.8561 -0.9442
   89SAPS  C219 8622   2.957   5.992   8.801 -0.1679 -0.5811  0.4583
   89SAPS  H19R 8623   3.019   5.901   8.814  0.5317 -0.1532  0.2194
   89SAPS  H19S 8624   3.001   6.068   8.869 -1.1613 -2.1531  2.9851
   89SAPS  C220 8625   2.958   6.050   8.652  0.6881  0.0329 -0.8670
   89SAPS  H20R 8626   2.864   6.027   8.598  0.3557 -1.2158  0.2014
   89SAPS  H20S 8627   3.053   6.016   8.606  1.1312  0.1188 -0.0433
   89SAPS  H20T 8628   2.961   6.161   8.658  0.6477  0.0302 -0.7840
   89SAPS   C33 8629   2.559   6.286  10.323 -0.0502  0.3796 -0.1777
   89SAPS   H3X 8630   2.539   6.178  10.310 -0.2993  0.0273  2.5654
   89SAPS   H3Y 8631   2.644   6.324  10.261  0.5919 -1.9090 -0.8171
   89SAPS   C34 8632   2.426   6.354  10.285  0.3101 -0.0082  0.2763
   89SAPS   H4X 8633   2.445   6.462  10.306  0.9047 -0.0501 -0.0284
   89SAPS   H4Y 8634   2.341   6.323  10.350 -0.4970  2.1406  0.3463
   89SAPS   C35 8635   2.401   6.331  10.138  0.0221 -0.4457 -0.4884
   89SAPS   H5X 8636   2.305   6.277  10.124 -1.5093  2.2123 -1.0839
   89SAPS   H5Y 8637   2.479   6.261  10.102 -1.5761 -2.2418 -0.6472
   89SAPS   C36 8638   2.388   6.468  10.059  0.1242 -0.5262 -0.1346
   89SAPS   H6X 8639   2.487   6.516  10.070  0.1869 -0.6156 -0.3106
   89SAPS   H6Y 8640   2.315   6.533  10.112  1.2688  1.3425 -0.7646
   89SAPS   C37 8641   2.371   6.461   9.906 -0.4406  0.7119 -0.0610
   89SAPS   H7X 8642   2.380   6.560   9.857 -2.3658  1.2497  0.5773
   89SAPS   H7Y 8643   2.270   6.429   9.871  0.9199 -2.1086 -1.8124
   89SAPS   C38 8644   2.459   6.348   9.840  0.1336  0.2639 -0.0315
   89SAPS   H8X 8645   2.427   6.247   9.872 -0.7722  0.0870 -1.4045
   89SAPS   H8Y 8646   2.568   6.354   9.862  0.6525  3.1154 -2.6414
   89SAPS   C39 8647   2.457   6.337   9.688  0.5039 -0.0971  0.1394
   89SAPS   H9X 8648   2.355   6.304   9.659  0.9819 -1.6604  0.1521
   89SAPS   H9Y 8649   2.525   6.253   9.661  1.2262  1.0238 -1.7181
   89SAPS  C310 8650   2.477   6.466   9.608 -0.0317  0.8760  0.9593
   89SAPS  H10X 8651   2.585   6.492   9.604  0.2545 -0.0733  1.9395
   89SAPS  H10Y 8652   2.435   6.554   9.661  1.9858  1.8127  1.0992
   89SAPS  C311 8653   2.430   6.452   9.463 -0.4619  0.0076 -0.1691
   89SAPS  H11X 8654   2.320   6.437   9.466 -0.3526 -0.8624 -0.1441
   89SAPS  H11Y 8655   2.472   6.360   9.417  0.9876  0.5852 -0.0673
   89SAPS  C312 8656   2.475   6.570   9.383  0.2718 -0.7726  0.5593
   89SAPS  H12X 8657   2.586   6.567   9.380  0.2527 -1.7358  0.5529
   89SAPS  H12Y 8658   2.429   6.664   9.420  1.0457 -0.1458 -0.0259
   89SAPS  C313 8659   2.435   6.550   9.231  1.2435  0.2267  0.3479
   89SAPS  H13X 8660   2.325   6.557   9.215  1.3770  0.1336 -0.7083
   89SAPS  H13Y 8661   2.472   6.450   9.202 -1.1020 -0.6297  0.0478
   89SAPS  C314 8662   2.482   6.670   9.150 -0.1834  0.2889  1.0120
   89SAPS  H14X 8663   2.578   6.713   9.185 -0.3187  2.4185 -0.9954
   89SAPS  H14Y 8664   2.409   6.754   9.164 -1.9096 -0.5688 -1.9787
   89SAPS  C315 8665   2.488   6.630   8.998  0.4837 -0.4223 -0.0658
   89SAPS  H15X 8666   2.487   6.725   8.940 -1.9542 -1.5074 -1.9573
   89SAPS  H15Y 8667   2.390   6.586   8.973  1.5985 -1.6400 -2.6811
   89SAPS  C316 8668   2.609   6.543   8.963  0.2425  0.8356  0.8670
   89SAPS  H16X 8669   2.600   6.446   9.017 -3.3888  0.5208 -0.0469
   89SAPS  H16Y 8670   2.694   6.598   9.010  2.6589 -3.0014  1.4306
   89SAPS  C317 8671   2.621   6.520   8.807 -0.3166  0.0415 -0.0396
   89SAPS  H17X 8672   2.601   6.620   8.763 -1.7553 -0.7105 -1.1974
   89SAPS  H17Y 8673   2.534   6.460   8.772 -0.4109  0.2389 -0.1432
   89SAPS  C318 8674   2.753   6.451   8.772  0.2699  0.3095 -0.0152
   89SAPS  H18X 8675   2.835   6.514   8.810 -0.0231  0.7469 -0.1009
   89SAPS  H18Y 8676   2.774   6.447   8.663  2.1424 -2.1421  0.3597
   89SAPS  H18Z 8677   2.747   6.349   8.816 -0.0949  0.0343 -0.6874
   90SAPS     N 8678   5.243   6.686  10.808 -0.1642  0.1643 -0.3347
   90SAPS   HN1 8679   5.169   6.682  10.735 -0.1151  2.8725 -0.6523
   90SAPS   HN2 8680   5.276   6.785  10.811 -0.6579  0.3311  2.7890
   90SAPS   HN3 8681   5.328   6.638  10.773  1.0386  2.8698 -1.4651
   90SAPS   C12 8682   5.209   6.615  10.934  0.1906  0.0497 -0.2151
   90SAPS  H12A 8683   5.298   6.594  10.992  0.0317 -0.5103 -0.1677
   90SAPS   C13 8684   5.112   6.694  11.025 -0.0951 -0.1313 -0.6219
   90SAPS  O13A 8685   5.095   6.819  11.000 -0.4892  0.0049 -0.1609
   90SAPS  O13B 8686   5.073   6.642  11.130 -0.6893  0.4526 -0.4472
   90SAPS   C11 8687   5.146   6.474  10.903 -0.2761 -0.0641  0.1469
   90SAPS  H11A 8688   5.056   6.485  10.840 -1.1861  1.6215  1.6598
   90SAPS  H11B 8689   5.119   6.441  11.005  0.5980 -0.4598  0.2622
   90SAPS     P 8690   5.211   6.230  10.852  0.1276  0.0793 -0.3302
   90SAPS   O13 8691   5.316   6.142  10.803  0.0297  0.1309 -0.2093
   90SAPS   O14 8692   5.157   6.197  10.982  0.2678 -0.0373  0.0085
   90SAPS   O12 8693   5.244   6.386  10.858  0.1842 -0.0778  0.3700
   90SAPS   O11 8694   5.090   6.220  10.752 -0.0158 -0.4159  0.3830
   90SAPS    C1 8695   5.100   6.283  10.619  0.0894 -0.1711 -0.0079
   90SAPS    HA 8696   5.026   6.366  10.618 -1.5511 -1.5717  0.6450
   90SAPS    HB 8697   5.194   6.336  10.593  0.0956 -0.7513 -1.1985
   90SAPS    C2 8698   5.067   6.195  10.494  0.2271  0.0417 -0.0009
   90SAPS    HS 8699   5.048   6.267  10.412 -0.7631 -1.0378 -0.7545
   90SAPS   O21 8700   4.944   6.114  10.511 -0.2685 -0.2513  0.1221
   90SAPS   C21 8701   4.865   6.094  10.407 -0.5629 -0.5020  0.0333
   90SAPS   O22 8702   4.889   6.124  10.291  0.2203  0.2930  0.8235
   90SAPS   C22 8703   4.741   6.029  10.460  0.2700 -0.1782 -0.0034
   90SAPS   H2R 8704   4.773   5.926  10.488 -1.3935 -0.8931 -0.5876
   90SAPS   H2S 8705   4.699   6.084  10.547  2.9859  0.4219  1.0219
   90SAPS    C3 8706   5.195   6.112  10.455 -0.7896  0.2647  0.2321
   90SAPS    HX 8707   5.199   6.032  10.532  0.5213  1.0013  0.9502
   90SAPS    HY 8708   5.291   6.164  10.474 -0.2380 -0.5330 -0.3022
   90SAPS   O31 8709   5.181   6.056  10.321  0.3677 -0.1876  0.0695
   90SAPS   C31 8710   5.262   6.113  10.231 -0.7017 -0.1344  0.4196
   90SAPS   O32 8711   5.323   6.221  10.244 -0.0856 -0.0441 -0.4969
   90SAPS   C32 8712   5.265   6.035  10.103  0.2160  0.2343 -0.5705
   90SAPS   H2X 8713   5.264   6.105  10.016 -3.4263  1.3316  0.2007
   90SAPS   H2Y 8714   5.171   5.976  10.101 -0.2300  0.8110  1.4233
   90SAPS   C23 8715   4.639   6.023  10.349  0.1785  0.3583 -0.0650
   90SAPS   H3R 8716   4.560   5.949  10.375  2.1214 -1.2494  1.5858
   90SAPS   H3S 8717   4.699   5.971  10.270  2.2378  1.4636  0.6937
   90SAPS   C24 8718   4.574   6.159  10.310  0.0883  0.6816 -0.0293
   90SAPS   H4R 8719   4.656   6.213  10.259  1.1013  0.0997  0.9364
   90SAPS   H4S 8720   4.527   6.212  10.395 -2.0180 -1.2172  0.0921
   90SAPS   C25 8721   4.471   6.121  10.201  0.0887  0.2934  0.8875
   90SAPS   H5R 8722   4.366   6.102  10.228 -0.2060  1.0010  0.2747
   90SAPS   C26 8723   4.496   6.087  10.070 -0.2018  0.9649  0.2436
   90SAPS   H6R 8724   4.413   6.067  10.001  1.2364  0.5030 -1.4208
   90SAPS   C27 8725   4.628   6.083   9.994  0.5724  0.2670  0.1110
   90SAPS   H7R 8726   4.618   6.005   9.915  1.2228 -1.2005  1.4357
   90SAPS   H7S 8727   4.714   6.064  10.061  0.1683  0.9043  0.8267
   90SAPS   C28 8728   4.652   6.225   9.952  0.7470 -0.3854 -0.1042
   90SAPS   H8R 8729   4.651   6.310  10.022 -0.2038  0.2201 -0.8376
   90SAPS   C29 8730   4.667   6.255   9.824  1.2691  0.2846  0.3988
   90SAPS   H9R 8731   4.689   6.360   9.803  1.3964 -0.1001 -1.5829
   90SAPS  C210 8732   4.658   6.168   9.699 -0.3737 -0.2357 -0.4561
   90SAPS  H10R 8733   4.677   6.064   9.734  1.9812  1.1513  2.8815
   90SAPS  H10S 8734   4.746   6.179   9.632 -1.6685 -1.0407 -2.3723
   90SAPS  C211 8735   4.526   6.189   9.626  0.1498  0.9082 -0.3903
   90SAPS  H11R 8736   4.437   6.195   9.690 -0.0461 -0.5056 -0.4951
   90SAPS  C212 8737   4.515   6.197   9.496 -0.4294  0.5630 -0.5076
   90SAPS  H12R 8738   4.416   6.200   9.448 -0.7887 -2.6620 -0.1764
   90SAPS  C213 8739   4.625   6.197   9.398 -0.4506  0.4635  0.6311
   90SAPS  H13R 8740   4.608   6.118   9.323  5.2347 -0.2377 -0.3491
   90SAPS  H13S 8741   4.729   6.186   9.437 -0.4229 -0.2266  0.3645
   90SAPS  C214 8742   4.614   6.338   9.342 -0.3825  0.1974 -0.4010
   90SAPS  H14R 8743   4.579   6.417   9.410 -0.5155  1.6853 -2.1239
   90SAPS  C215 8744   4.629   6.382   9.218  0.0057  0.0736 -0.0630
   90SAPS  H15R 8745   4.617   6.488   9.189  0.0918  0.6111  1.7393
   90SAPS  C216 8746   4.670   6.290   9.106  0.4586  0.0417 -0.3311
   90SAPS  H16R 8747   4.678   6.182   9.132 -0.9188  0.1422  0.5921
   90SAPS  H16S 8748   4.766   6.321   9.058 -0.0633  1.1163 -0.6953
   90SAPS  C217 8749   4.557   6.280   8.998 -0.5631  0.6906  0.8726
   90SAPS  H17R 8750   4.463   6.255   9.051  0.5768 -1.6531  1.9127
   90SAPS  H17S 8751   4.576   6.188   8.939 -4.4115 -0.9853  1.9672
   90SAPS  C218 8752   4.566   6.393   8.893  1.0249  0.1327 -0.4445
   90SAPS  H18R 8753   4.674   6.400   8.868  1.2367  0.6969  0.5614
   90SAPS  H18S 8754   4.540   6.490   8.941  0.7636 -0.2361  0.1692
   90SAPS  C219 8755   4.479   6.376   8.767 -0.5319 -0.5471  0.1342
   90SAPS  H19R 8756   4.377   6.337   8.787 -0.7527  0.3682  0.8889
   90SAPS  H19S 8757   4.535   6.295   8.715  1.7682 -0.7222  2.6414
   90SAPS  C220 8758   4.484   6.502   8.669  0.5632  0.9896 -0.4509
   90SAPS  H20R 8759   4.586   6.545   8.660  2.1354 -2.2916 -0.0348
   90SAPS  H20S 8760   4.414   6.582   8.700 -1.0228  1.0503 -3.7349
   90SAPS  H20T 8761   4.444   6.463   8.573 -3.8282  0.9436  1.1833
   90SAPS   C33 8762   5.396   5.945  10.095 -0.5553 -0.0283 -0.0530
   90SAPS   H3X 8763   5.390   5.873  10.180 -0.1213 -0.7292 -0.6104
   90SAPS   H3Y 8764   5.484   6.012  10.084 -0.7476  0.2529  0.1058
   90SAPS   C34 8765   5.389   5.840   9.987  0.3056  0.5965 -0.7552
   90SAPS   H4X 8766   5.315   5.761  10.012  2.3242 -1.3315 -0.5369
   90SAPS   H4Y 8767   5.489   5.791   9.993  0.6585  0.2849 -5.4046
   90SAPS   C35 8768   5.372   5.892   9.843  0.6889  0.1416  0.8266
   90SAPS   H5X 8769   5.458   5.959   9.822  1.3387 -0.6709  0.8031
   90SAPS   H5Y 8770   5.278   5.950   9.838 -0.3384 -1.5192 -2.4557
   90SAPS   C36 8771   5.375   5.782   9.738  0.3423  0.1473 -0.3155
   90SAPS   H6X 8772   5.286   5.721   9.763  0.5542 -0.8165 -1.7769
   90SAPS   H6Y 8773   5.468   5.723   9.751  0.5758  0.2446 -1.4094
   90SAPS   C37 8774   5.351   5.835   9.600  0.2336 -0.0529 -0.3699
   90SAPS   H7X 8775   5.403   5.931   9.580 -0.2354  0.2998  0.0549
   90SAPS   H7Y 8776   5.244   5.854   9.573  1.0618  0.8108 -3.4329
   90SAPS   C38 8777   5.405   5.730   9.494 -0.1158 -0.3837 -0.1149
   90SAPS   H8X 8778   5.359   5.630   9.508 -0.8182  0.1295  1.5461
   90SAPS   H8Y 8779   5.511   5.716   9.525  0.0916  0.7087 -0.2855
   90SAPS   C39 8780   5.382   5.792   9.356 -0.1466 -0.1056 -0.5933
   90SAPS   H9X 8781   5.458   5.867   9.327 -0.9405 -0.2623 -3.4145
   90SAPS   H9Y 8782   5.280   5.835   9.357  0.4532  1.3430 -0.4952
   90SAPS  C310 8783   5.363   5.693   9.238  0.4692  0.1990  0.4593
   90SAPS  H10X 8784   5.265   5.643   9.256  0.7068  0.1411  1.6285
   90SAPS  H10Y 8785   5.449   5.624   9.245  0.1111 -0.4128 -0.8848
   90SAPS  C311 8786   5.351   5.782   9.111 -0.2971 -0.0906 -0.7962
   90SAPS  H11X 8787   5.445   5.834   9.083  0.1497 -0.8493 -0.7390
   90SAPS  H11Y 8788   5.278   5.862   9.136 -2.4667 -1.3771 -2.6905
   90SAPS  C312 8789   5.288   5.700   8.997 -0.3918  0.6014  0.4254
   90SAPS  H12X 8790   5.188   5.659   9.025  0.1527  0.4893  2.3357
   90SAPS  H12Y 8791   5.361   5.621   8.969 -2.6170 -1.1852 -0.7601
   90SAPS  C313 8792   5.251   5.783   8.877 -0.2451 -0.2796 -0.1597
   90SAPS  H13X 8793   5.225   5.879   8.928  1.5327  0.3303 -0.3064
   90SAPS  H13Y 8794   5.159   5.743   8.830 -0.1051 -0.9121  0.1062
   90SAPS  C314 8795   5.361   5.798   8.774 -0.2450  0.7411 -0.1096
   90SAPS  H14X 8796   5.426   5.709   8.759 -0.6912  0.4567 -0.3830
   90SAPS  H14Y 8797   5.430   5.871   8.821 -0.8303  1.6523 -0.6337
   90SAPS  C315 8798   5.311   5.850   8.644 -0.3348 -0.1017  0.5180
   90SAPS  H15X 8799   5.233   5.926   8.667  1.0456  1.5648 -0.0950
   90SAPS  H15Y 8800   5.263   5.759   8.603  0.1821 -0.3830  0.5330
   90SAPS  C316 8801   5.404   5.929   8.546 -0.2028  0.7897  0.7399
   90SAPS  H16X 8802   5.351   5.927   8.448  0.9455  2.5253  0.0393
   90SAPS  H16Y 8803   5.505   5.883   8.545  0.2045  1.6793  0.5134
   90SAPS  C317 8804   5.413   6.075   8.583 -0.7704 -0.8375  0.0555
   90SAPS  H17X 8805   5.458   6.074   8.685 -2.3962 -0.1083  0.8280
   90SAPS  H17Y 8806   5.308   6.111   8.588 -0.0971  1.2154  0.0739
   90SAPS  C318 8807   5.503   6.150   8.486 -0.2271 -0.5243 -0.2185
   90SAPS  H18X 8808   5.545   6.236   8.543  0.4973 -0.7314 -0.4306
   90SAPS  H18Y 8809   5.449   6.183   8.395  0.3746  6.1659  1.3372
   90SAPS  H18Z 8810   5.597   6.094   8.465  0.4173  0.1169  0.8389
   91SAPS     N 8811   0.209   4.258   6.316 -0.1297 -0.8090  0.8844
   91SAPS   HN1 8812   0.175   4.310   6.399 -0.8837 -2.4917  1.6746
   91SAPS   HN2 8813   0.131   4.205   6.273 -0.7203 -0.5829  1.6527
   91SAPS   HN3 8814   0.276   4.184   6.344  2.3416  0.6621 -0.7664
   91SAPS   C12 8815   0.276   4.345   6.210 -0.1953 -0.6151  0.4467
   91SAPS  H12A 8816   0.310   4.285   6.127  2.7730 -0.1825  1.2314
   91SAPS   C13 8817   0.180   4.466   6.156 -0.2016  0.5019  0.5084
   91SAPS  O13A 8818   0.062   4.481   6.201 -0.3138  0.5172  0.1907
   91SAPS  O13B 8819   0.224   4.526   6.057 -0.5015  0.1858 -0.3202
   91SAPS   C11 8820   0.406   4.398   6.274 -0.0314  1.0733  0.0296
   91SAPS  H11A 8821   0.372   4.453   6.365 -4.8074 -1.6332  0.1943
   91SAPS  H11B 8822   0.452   4.469   6.202  1.8766  0.5797  0.6829
   91SAPS     P 8823   0.650   4.322   6.271 -0.2452 -0.3577  0.0375
   91SAPS   O13 8824   0.736   4.202   6.299 -0.5305  0.1471  0.3559
   91SAPS   O14 8825   0.656   4.379   6.132  0.2017 -0.7417  0.0484
   91SAPS   O12 8826   0.497   4.285   6.305  0.0046  0.3361 -0.5093
   91SAPS   O11 8827   0.691   4.441   6.370 -0.5905  0.4683  0.6197
   91SAPS    C1 8828   0.796   4.414   6.460 -0.1153 -0.5390 -1.0016
   91SAPS    HA 8829   0.768   4.336   6.535  2.0096  0.7562  1.2743
   91SAPS    HB 8830   0.885   4.378   6.404 -1.5261 -2.4898 -2.1813
   91SAPS    C2 8831   0.829   4.544   6.548 -0.2866  0.4860 -0.1175
   91SAPS    HS 8832   0.872   4.517   6.647 -1.0256 -1.1451 -0.2163
   91SAPS   O21 8833   0.723   4.633   6.571  0.2086 -0.2808 -0.6048
   91SAPS   C21 8834   0.623   4.587   6.647  0.0588  0.8748 -0.0739
   91SAPS   O22 8835   0.621   4.476   6.703 -0.0618 -0.6980  0.1287
   91SAPS   C22 8836   0.502   4.684   6.647 -0.3984 -0.1638 -0.1507
   91SAPS   H2R 8837   0.472   4.704   6.542  0.2577 -1.0341 -0.5068
   91SAPS   H2S 8838   0.421   4.627   6.698 -0.7419  0.4352 -0.0055
   91SAPS    C3 8839   0.952   4.624   6.476  0.1696  0.9636 -0.1036
   91SAPS    HX 8840   0.916   4.645   6.373 -1.4004  0.5661  0.3269
   91SAPS    HY 8841   1.032   4.550   6.454 -3.1256 -1.6995 -5.1942
   91SAPS   O31 8842   1.010   4.734   6.546 -0.2449  0.3637  0.3602
   91SAPS   C31 8843   0.969   4.852   6.505  0.1642 -0.2742 -0.4867
   91SAPS   O32 8844   0.900   4.875   6.410  0.1452  0.1322 -0.3064
   91SAPS   C32 8845   1.028   4.960   6.602  0.6728 -0.0545  0.2261
   91SAPS   H2X 8846   1.040   5.051   6.540  1.5072 -0.1118  0.2978
   91SAPS   H2Y 8847   1.124   4.916   6.636  1.6807  0.8244 -1.3339
   91SAPS   C23 8848   0.529   4.814   6.730  0.2996  0.9163  0.5995
   91SAPS   H3R 8849   0.445   4.884   6.709 -0.5646 -0.0913  0.5917
   91SAPS   H3S 8850   0.624   4.864   6.702  0.3783  1.2160  1.3777
   91SAPS   C24 8851   0.541   4.800   6.882  0.0278  0.2073  0.5288
   91SAPS   H4R 8852   0.560   4.901   6.924  0.7639 -0.5826  2.1829
   91SAPS   H4S 8853   0.628   4.735   6.904 -1.1814 -1.1936  1.4380
   91SAPS   C25 8854   0.413   4.750   6.943 -0.1113 -0.2837  0.1134
   91SAPS   H5R 8855   0.332   4.824   6.937 -0.7000 -0.9418 -0.2194
   91SAPS   C26 8856   0.403   4.637   7.015 -0.2399  0.1360  0.3489
   91SAPS   H6R 8857   0.309   4.612   7.067 -0.8619  0.7333 -0.4658
   91SAPS   C27 8858   0.515   4.537   7.049  1.0769  0.8966  0.8175
   91SAPS   H7R 8859   0.564   4.502   6.956  1.0788  1.2427  0.6850
   91SAPS   H7S 8860   0.471   4.448   7.099  1.5015  1.0705  1.5103
   91SAPS   C28 8861   0.622   4.580   7.150  0.3163  0.1143 -0.7897
   91SAPS   H8R 8862   0.716   4.613   7.105  0.7475  0.2273  0.1662
   91SAPS   C29 8863   0.626   4.564   7.289 -0.6246  0.1666  0.1976
   91SAPS   H9R 8864   0.717   4.596   7.342 -0.3813  1.4691 -0.9337
   91SAPS  C210 8865   0.521   4.504   7.374  0.1768 -0.1939 -0.3721
   91SAPS  H10R 8866   0.575   4.440   7.447 -0.0843 -0.2363 -0.2130
   91SAPS  H10S 8867   0.451   4.443   7.313 -1.2747 -0.1337  1.1489
   91SAPS  C211 8868   0.439   4.602   7.451  0.5075  0.4749 -0.1050
   91SAPS  H11R 8869   0.369   4.649   7.380  0.7191 -1.6207 -1.7652
   91SAPS  C212 8870   0.433   4.635   7.586  0.3084 -0.4285  0.5096
   91SAPS  H12R 8871   0.358   4.709   7.618  1.9953  0.3387  2.9582
   91SAPS  C213 8872   0.520   4.572   7.695  0.2670 -0.0528  0.1217
   91SAPS  H13R 8873   0.558   4.648   7.766 -0.0976  1.1762 -0.9717
   91SAPS  H13S 8874   0.612   4.533   7.646 -0.9177 -2.1412 -0.6027
   91SAPS  C214 8875   0.451   4.456   7.753 -0.5373  0.9473 -0.2722
   91SAPS  H14R 8876   0.425   4.375   7.684 -0.4676 -1.4539  2.3048
   91SAPS  C215 8877   0.425   4.436   7.886  1.0104 -0.3688  0.3364
   91SAPS  H15R 8878   0.355   4.356   7.917 -0.7130  1.6745  2.0485
   91SAPS  C216 8879   0.460   4.514   8.005  0.1687  0.1278  0.5405
   91SAPS  H16R 8880   0.530   4.591   7.967 -0.6093  0.1168 -0.9584
   91SAPS  H16S 8881   0.510   4.453   8.084  1.1370 -0.3718 -0.4248
   91SAPS  C217 8882   0.347   4.585   8.073  1.0385 -0.3826 -0.5161
   91SAPS  H17R 8883   0.264   4.512   8.089 -2.5013  2.9896 -1.8040
   91SAPS  H17S 8884   0.310   4.664   8.003 -2.9909 -0.7412  0.9136
   91SAPS  C218 8885   0.383   4.664   8.202  0.0061 -0.3036 -1.0151
   91SAPS  H18R 8886   0.291   4.720   8.230 -0.1464 -0.9031 -0.2897
   91SAPS  H18S 8887   0.476   4.721   8.178  0.9133 -0.9467  0.8181
   91SAPS  C219 8888   0.426   4.577   8.320 -0.2476 -0.3253  0.2721
   91SAPS  H19R 8889   0.478   4.640   8.395  1.3111  0.2300 -1.1949
   91SAPS  H19S 8890   0.510   4.513   8.285 -0.0225 -1.3550  2.5166
   91SAPS  C220 8891   0.313   4.503   8.388 -0.8089  0.1564  0.1339
   91SAPS  H20R 8892   0.232   4.575   8.415 -0.6015  1.3583 -2.1893
   91SAPS  H20S 8893   0.350   4.449   8.478  0.4696  1.2636  0.2988
   91SAPS  H20T 8894   0.277   4.425   8.317  1.5789 -0.7493 -0.1842
   91SAPS   C33 8895   0.938   4.982   6.729 -0.1830 -0.5381  0.1883
   91SAPS   H3X 8896   0.831   4.999   6.703 -0.1145 -0.1108  0.1729
   91SAPS   H3Y 8897   0.976   5.072   6.782 -1.7143 -1.2821  2.6875
   91SAPS   C34 8898   0.956   4.884   6.841  0.1584  0.2562 -0.5228
   91SAPS   H4X 8899   1.065   4.866   6.848 -0.0493 -1.6984 -1.3762
   91SAPS   H4Y 8900   0.918   4.780   6.829  0.5499  0.0258  0.1879
   91SAPS   C35 8901   0.911   4.939   6.979 -0.1889 -0.3477  0.4092
   91SAPS   H5X 8902   0.801   4.957   6.978 -0.3053 -1.0235  0.1102
   91SAPS   H5Y 8903   0.958   5.037   6.998 -2.6843  0.6683  1.8799
   91SAPS   C36 8904   0.954   4.859   7.106 -0.7155  0.4628 -0.0843
   91SAPS   H6X 8905   1.060   4.831   7.088  0.4605  2.8619  2.4020
   91SAPS   H6Y 8906   0.903   4.761   7.122  1.8705 -0.7528  1.2578
   91SAPS   C37 8907   0.925   4.938   7.236 -0.8051 -0.0782 -0.0807
   91SAPS   H7X 8908   0.814   4.940   7.230 -0.9054 -2.6283 -0.2182
   91SAPS   H7Y 8909   0.970   5.037   7.216 -1.7790 -0.0734 -2.5588
   91SAPS   C38 8910   0.975   4.875   7.366  0.5721 -0.3386 -0.4159
   91SAPS   H8X 8911   1.081   4.905   7.383  0.1865  0.7480  0.1198
   91SAPS   H8Y 8912   0.969   4.764   7.358  2.1173 -0.4924  0.1397
   91SAPS   C39 8913   0.894   4.921   7.493 -0.4458  0.2752 -0.4704
   91SAPS   H9X 8914   0.785   4.921   7.470 -1.0951  0.3572  2.2367
   91SAPS   H9Y 8915   0.928   5.018   7.533  0.0867  0.0917 -0.4681
   91SAPS  C310 8916   0.912   4.831   7.623 -0.0452  0.0764 -0.4177
   91SAPS  H10X 8917   1.021   4.837   7.643  0.4177  1.9817 -2.9061
   91SAPS  H10Y 8918   0.871   4.735   7.587 -3.6802  2.1475 -2.3690
   91SAPS  C311 8919   0.837   4.881   7.743 -0.5531  0.5166  0.2340
   91SAPS  H11X 8920   0.729   4.887   7.719 -0.2805 -0.1179 -1.2999
   91SAPS  H11Y 8921   0.860   4.989   7.758 -1.1973  0.8234 -0.8322
   91SAPS  C312 8922   0.850   4.798   7.870 -0.1209 -0.6605 -0.1597
   91SAPS  H12X 8923   0.951   4.817   7.912 -0.4420  0.3189  0.1943
   91SAPS  H12Y 8924   0.839   4.688   7.858 -1.7832 -0.8683  2.3336
   91SAPS  C313 8925   0.750   4.843   7.971 -0.9288 -0.7026  0.2996
   91SAPS  H13X 8926   0.650   4.797   7.954 -1.4840 -0.6843  3.0561
   91SAPS  H13Y 8927   0.733   4.952   7.961  0.8613 -0.5372 -1.5291
   91SAPS  C314 8928   0.787   4.800   8.116  0.2735  0.5848 -0.0134
   91SAPS  H14X 8929   0.813   4.692   8.119  0.2020  0.5689  0.0350
   91SAPS  H14Y 8930   0.700   4.826   8.180 -0.8644 -0.2161 -1.1760
   91SAPS  C315 8931   0.915   4.863   8.163 -0.5209  0.0845 -0.5970
   91SAPS  H15X 8932   0.926   4.963   8.116 -0.6688  0.5631  0.3597
   91SAPS  H15Y 8933   1.007   4.804   8.146  0.2103  0.7952  0.7976
   91SAPS  C316 8934   0.926   4.860   8.321 -0.4265 -0.4981  0.3441
   91SAPS  H16X 8935   0.892   4.761   8.356 -1.1307 -0.2602  0.3573
   91SAPS  H16Y 8936   0.860   4.941   8.360  0.6472  1.9009 -2.4346
   91SAPS  C317 8937   1.067   4.888   8.374 -0.2616  0.4202 -0.1240
   91SAPS  H17X 8938   1.100   4.987   8.334  0.0621  0.1917 -0.4281
   91SAPS  H17Y 8939   1.124   4.801   8.335 -0.6888  0.6697 -1.3589
   91SAPS  C318 8940   1.076   4.902   8.528 -0.3743  0.5064 -0.4466
   91SAPS  H18X 8941   1.179   4.884   8.564 -1.3593 -2.4113  1.2819
   91SAPS  H18Y 8942   1.011   4.824   8.573  2.0173 -1.3449 -0.0494
   91SAPS  H18Z 8943   1.027   4.998   8.556 -0.1054  0.8581 -1.1624
   92SAPS     N 8944   1.268   2.943   6.220 -0.4011 -0.4329 -0.1323
   92SAPS   HN1 8945   1.352   2.932   6.161  1.2319  2.9491  1.3114
   92SAPS   HN2 8946   1.196   3.006   6.179 -0.4235 -0.4329 -0.0934
   92SAPS   HN3 8947   1.299   2.979   6.312 -1.1985  0.4112 -0.1724
   92SAPS   C12 8948   1.218   2.804   6.247  0.2480 -0.0402  0.1499
   92SAPS  H12A 8949   1.141   2.792   6.172  0.4892 -1.5289  0.1116
   92SAPS   C13 8950   1.340   2.701   6.235  0.0226 -0.6693 -0.1945
   92SAPS  O13A 8951   1.458   2.742   6.216  0.3589  0.0998  0.1820
   92SAPS  O13B 8952   1.316   2.579   6.253  0.1806  0.1535 -0.1675
   92SAPS   C11 8953   1.168   2.798   6.397  0.0934 -0.1889  0.3247
   92SAPS  H11A 8954   1.251   2.834   6.462 -0.6149  2.1759  0.0382
   92SAPS  H11B 8955   1.134   2.695   6.419  1.7367 -1.0819 -1.0529
   92SAPS     P 8956   0.965   2.877   6.551  0.3417 -0.3826  0.4866
   92SAPS   O13 8957   0.897   3.008   6.568 -0.3100  0.3417 -0.5033
   92SAPS   O14 8958   0.882   2.758   6.543 -0.4588 -1.2890 -0.3439
   92SAPS   O12 8959   1.052   2.883   6.419  0.0381 -0.5162  0.0960
   92SAPS   O11 8960   1.077   2.860   6.655 -0.4922  0.4456 -0.1740
   92SAPS    C1 8961   1.104   2.741   6.728 -0.0448 -0.5284 -0.4872
   92SAPS    HA 8962   1.097   2.644   6.674 -0.2120 -0.2365 -0.9907
   92SAPS    HB 8963   1.210   2.754   6.760 -0.1138  0.5200 -0.6655
   92SAPS    C2 8964   1.008   2.722   6.848  0.3417  0.0405 -0.2596
   92SAPS    HS 8965   0.908   2.691   6.809 -0.5630 -0.8932  2.5398
   92SAPS   O21 8966   1.006   2.839   6.922 -0.3668  0.3245  0.6271
   92SAPS   C21 8967   0.902   2.865   6.993 -0.3673 -0.4152 -0.0756
   92SAPS   O22 8968   0.794   2.815   6.986  0.3174  0.2134  0.2905
   92SAPS   C22 8969   0.947   2.964   7.092  0.2384  0.0148  0.5562
   92SAPS   H2R 8970   1.024   3.037   7.058 -2.2260  3.3421  1.5348
   92SAPS   H2S 8971   0.860   3.029   7.116 -2.9688 -3.4464 -0.6251
   92SAPS    C3 8972   1.051   2.601   6.941  0.7869  0.6028  1.1077
   92SAPS    HX 8973   1.140   2.644   6.991  0.3927  1.0314  1.4601
   92SAPS    HY 8974   1.077   2.517   6.874 -0.1589  1.0659  0.1139
   92SAPS   O31 8975   0.953   2.568   7.037 -0.4412 -0.2148 -0.4839
   92SAPS   C31 8976   0.860   2.490   6.983 -0.1503  0.2677  0.2254
   92SAPS   O32 8977   0.866   2.426   6.879  0.4485 -0.1431 -0.0044
   92SAPS   C32 8978   0.727   2.498   7.070 -0.1442  0.5874 -0.3402
   92SAPS   H2X 8979   0.692   2.603   7.069 -0.1433  0.6325  1.1868
   92SAPS   H2Y 8980   0.749   2.483   7.178  1.8826  1.1007 -0.6363
   92SAPS   C23 8981   0.990   2.894   7.223 -0.3000 -0.3442  0.0813
   92SAPS   H3R 8982   1.048   2.961   7.290  0.5493  0.2863 -1.2467
   92SAPS   H3S 8983   1.055   2.808   7.196 -0.2404  0.5166 -2.8253
   92SAPS   C24 8984   0.870   2.847   7.313 -0.1739  0.5907  0.7205
   92SAPS   H4R 8985   0.792   2.821   7.238 -0.0669  2.0550  0.0555
   92SAPS   H4S 8986   0.825   2.932   7.369 -0.4258  1.7805 -1.1597
   92SAPS   C25 8987   0.915   2.723   7.380 -0.1347  0.1435 -0.5515
   92SAPS   H5R 8988   0.932   2.636   7.315  0.3018  0.3045 -0.6527
   92SAPS   C26 8989   0.941   2.715   7.517  0.3902 -0.6556  1.3377
   92SAPS   H6R 8990   0.985   2.624   7.560 -0.2608 -0.2070  3.0527
   92SAPS   C27 8991   0.917   2.830   7.613 -0.1823  0.4666 -0.0894
   92SAPS   H7R 8992   0.830   2.810   7.680 -0.2775  0.2410 -0.2802
   92SAPS   H7S 8993   0.890   2.927   7.566  0.0521  0.7250  0.2996
   92SAPS   C28 8994   1.028   2.869   7.709 -0.3706 -0.3096  0.1596
   92SAPS   H8R 8995   1.108   2.796   7.731  0.6524  0.7579  0.0537
   92SAPS   C29 8996   1.014   2.977   7.788 -0.0059  0.7178  1.0119
   92SAPS   H9R 8997   1.100   2.996   7.854  3.7097 -3.0972 -2.1775
   92SAPS  C210 8998   0.902   3.077   7.785 -0.5458 -0.7168  0.0542
   92SAPS  H10R 8999   0.857   3.093   7.684 -3.5760 -2.6583  0.9344
   92SAPS  H10S 9000   0.944   3.175   7.818 -1.8654 -0.8746  2.4385
   92SAPS  C211 9001   0.791   3.056   7.886  0.3003  0.9426  0.6024
   92SAPS  H11R 9002   0.722   2.972   7.868  0.3512  0.6826  1.5761
   92SAPS  C212 9003   0.761   3.130   7.994 -0.3013  0.3217  0.0161
   92SAPS  H12R 9004   0.675   3.122   8.063  1.3117  1.8697  2.3463
   92SAPS  C213 9005   0.836   3.261   8.034 -1.0510  0.8868  0.2648
   92SAPS  H13R 9006   0.884   3.320   7.953 -2.7152  0.0364 -1.4063
   92SAPS  H13S 9007   0.915   3.231   8.106 -0.2016  0.1479 -0.9328
   92SAPS  C214 9008   0.744   3.354   8.101  0.6522 -0.2388 -0.7652
   92SAPS  H14R 9009   0.643   3.358   8.057  0.2912  2.2591  0.1456
   92SAPS  C215 9010   0.777   3.448   8.193 -0.1842 -0.7171 -0.2727
   92SAPS  H15R 9011   0.694   3.508   8.234  2.0685  2.7655 -0.3879
   92SAPS  C216 9012   0.914   3.493   8.243  0.6833 -0.4423  0.2236
   92SAPS  H16R 9013   0.936   3.601   8.251  1.5734 -0.6241  0.2755
   92SAPS  H16S 9014   0.997   3.458   8.177 -0.1885 -1.0363 -0.5899
   92SAPS  C217 9015   0.950   3.428   8.381 -0.3472  0.0075 -0.6905
   92SAPS  H17R 9016   1.061   3.437   8.388 -0.1988 -1.1593 -1.2500
   92SAPS  H17S 9017   0.930   3.320   8.395  0.2727  0.1185  1.2290
   92SAPS  C218 9018   0.878   3.510   8.493 -0.1878 -0.4186 -0.6289
   92SAPS  H18R 9019   0.775   3.522   8.456  0.1487  1.0579 -1.1548
   92SAPS  H18S 9020   0.909   3.617   8.484 -0.8454 -0.3258 -2.0130
   92SAPS  C219 9021   0.878   3.446   8.633  0.0952 -0.1373 -0.7696
   92SAPS  H19R 9022   0.802   3.508   8.684  1.2832  1.6948 -1.1117
   92SAPS  H19S 9023   0.964   3.486   8.691 -1.5311  2.6754 -0.1213
   92SAPS  C220 9024   0.833   3.300   8.653  0.1372  0.1067  0.0927
   92SAPS  H20R 9025   0.918   3.229   8.650 -0.3177 -0.4243 -2.0735
   92SAPS  H20S 9026   0.761   3.268   8.575  0.4674  0.8372 -0.5236
   92SAPS  H20T 9027   0.787   3.286   8.753  2.3524  0.1033  1.1907
   92SAPS   C33 9028   0.616   2.405   7.029  0.4247 -0.0947 -0.1763
   92SAPS   H3X 9029   0.629   2.305   7.075  1.3415 -0.1255 -0.4849
   92SAPS   H3Y 9030   0.613   2.399   6.918 -0.0962 -0.1329 -0.1648
   92SAPS   C34 9031   0.476   2.456   7.066 -0.3673 -0.1713 -0.6109
   92SAPS   H4X 9032   0.415   2.366   7.042 -0.8499  0.2591 -1.0155
   92SAPS   H4Y 9033   0.450   2.544   7.004 -1.7075  1.6862  2.3957
   92SAPS   C35 9034   0.469   2.492   7.214 -0.3622  0.0605  0.7408
   92SAPS   H5X 9035   0.367   2.520   7.249 -0.3478  1.3224 -0.1855
   92SAPS   H5Y 9036   0.543   2.571   7.237  0.3355 -0.4266  0.2179
   92SAPS   C36 9037   0.514   2.372   7.310 -0.2620 -0.5492 -0.7437
   92SAPS   H6X 9038   0.624   2.375   7.326 -0.3695 -1.6799  0.3403
   92SAPS   H6Y 9039   0.487   2.279   7.255 -2.0246 -0.0680 -0.7357
   92SAPS   C37 9040   0.449   2.377   7.444  0.6180 -0.8177  0.1997
   92SAPS   H7X 9041   0.340   2.356   7.435  0.2275  0.1010  2.2928
   92SAPS   H7Y 9042   0.468   2.474   7.494 -1.4089  1.1221 -2.4979
   92SAPS   C38 9043   0.508   2.272   7.540  0.3728  0.4195  0.3042
   92SAPS   H8X 9044   0.619   2.274   7.547  0.4027  3.4635  0.1284
   92SAPS   H8Y 9045   0.493   2.173   7.492 -1.5698  1.8178 -2.2345
   92SAPS   C39 9046   0.445   2.285   7.677 -0.7854  0.8081 -0.5926
   92SAPS   H9X 9047   0.343   2.247   7.655  0.0401 -0.7686 -1.9552
   92SAPS   H9Y 9048   0.437   2.389   7.714  0.0241  0.6775 -0.0169
   92SAPS  C310 9049   0.493   2.185   7.788 -0.4903 -0.1141  0.7093
   92SAPS  H10X 9050   0.604   2.187   7.783 -0.5057  2.5173 -0.1947
   92SAPS  H10Y 9051   0.471   2.082   7.754  0.5507 -0.0016 -0.3953
   92SAPS  C311 9052   0.441   2.209   7.928 -0.1424  0.5463  0.1740
   92SAPS  H11X 9053   0.350   2.145   7.935  0.4976 -0.9575 -3.1923
   92SAPS  H11Y 9054   0.418   2.314   7.953 -3.2530 -0.5314  2.5383
   92SAPS  C312 9055   0.531   2.155   8.036  0.1512 -0.1222  0.0830
   92SAPS  H12X 9056   0.639   2.168   8.012 -0.0879 -1.4720 -1.9426
   92SAPS  H12Y 9057   0.523   2.044   8.035  0.6564 -0.1709  0.5535
   92SAPS  C313 9058   0.508   2.206   8.182  0.7040  0.0539 -0.2641
   92SAPS  H13X 9059   0.401   2.185   8.203  0.5534  0.7580 -0.3003
   92SAPS  H13Y 9060   0.520   2.316   8.189  0.3752  0.0835 -0.1344
   92SAPS  C314 9061   0.591   2.147   8.285  0.2206  0.1558 -0.5693
   92SAPS  H14X 9062   0.696   2.130   8.254 -0.1692 -3.3637 -0.3640
   92SAPS  H14Y 9063   0.551   2.044   8.299 -1.0617  0.9597  2.6356
   92SAPS  C315 9064   0.583   2.210   8.429  0.0842 -0.1846  0.8832
   92SAPS  H15X 9065   0.482   2.184   8.465  0.1863 -2.8850 -0.5451
   92SAPS  H15Y 9066   0.583   2.321   8.430 -3.0908 -0.1024  1.0767
   92SAPS  C316 9067   0.699   2.178   8.520 -0.3165 -0.2693 -0.1157
   92SAPS  H16X 9068   0.785   2.244   8.497  0.9347 -1.8615 -0.1364
   92SAPS  H16Y 9069   0.722   2.075   8.486  0.1567 -0.8215  1.7797
   92SAPS  C317 9070   0.671   2.166   8.664  0.3156  0.4096 -1.2643
   92SAPS  H17X 9071   0.585   2.096   8.678  1.1345 -0.7326 -1.7986
   92SAPS  H17Y 9072   0.636   2.262   8.707  0.8758  0.7284 -1.5072
   92SAPS  C318 9073   0.800   2.118   8.732  0.3992  0.1538 -0.1588
   92SAPS  H18X 9074   0.836   2.025   8.684  0.6947 -0.7486  1.7257
   92SAPS  H18Y 9075   0.776   2.093   8.838 -1.6514 -0.2896 -0.6792
   92SAPS  H18Z 9076   0.873   2.202   8.733  0.0757  0.4365  0.0904
   93SAPS     N 9077   0.995   3.240   6.511 -0.1677  0.6668 -0.3292
   93SAPS   HN1 9078   0.918   3.304   6.481 -0.4388  1.3196  1.6430
   93SAPS   HN2 9079   0.946   3.148   6.521 -0.8588  0.9764 -0.7800
   93SAPS   HN3 9080   1.034   3.268   6.603 -2.0965 -2.7845  1.7684
   93SAPS   C12 9081   1.100   3.236   6.401  0.2295  0.1310  0.2333
   93SAPS  H12A 9082   1.179   3.179   6.447  0.4684  0.4114  0.1715
   93SAPS   C13 9083   1.051   3.179   6.265  0.2942 -0.5420 -0.5791
   93SAPS  O13A 9084   0.928   3.156   6.255  0.3583  0.2388 -0.1991
   93SAPS  O13B 9085   1.128   3.162   6.165  0.1360 -0.1184  0.1601
   93SAPS   C11 9086   1.164   3.371   6.384  0.1174 -0.3961 -0.2595
   93SAPS  H11A 9087   1.094   3.443   6.336  0.1268 -0.8200 -0.9277
   93SAPS  H11B 9088   1.256   3.368   6.322 -0.5765  2.7009 -1.6040
   93SAPS     P 9089   1.219   3.592   6.521 -0.5333 -0.2652  0.1975
   93SAPS   O13 9090   1.345   3.621   6.447  0.1990  0.4015 -0.4488
   93SAPS   O14 9091   1.103   3.672   6.490 -0.1216 -0.3921 -0.0758
   93SAPS   O12 9092   1.192   3.430   6.514  0.6698 -0.7008  0.0759
   93SAPS   O11 9093   1.247   3.614   6.673  0.2461 -0.4122 -0.1119
   93SAPS    C1 9094   1.223   3.748   6.726 -0.1467 -0.4349 -0.0275
   93SAPS    HA 9095   1.258   3.833   6.663 -0.0071 -0.9441 -0.6481
   93SAPS    HB 9096   1.115   3.759   6.748  0.2568  1.5671  1.1539
   93SAPS    C2 9097   1.286   3.760   6.866 -0.1730 -0.3819 -0.4532
   93SAPS    HS 9098   1.396   3.776   6.859 -0.1577  0.2761  1.0655
   93SAPS   O21 9099   1.254   3.644   6.942 -0.0948  0.0960  0.3902
   93SAPS   C21 9100   1.339   3.545   6.917  0.4790  0.2590 -0.5080
   93SAPS   O22 9101   1.440   3.551   6.848  0.5186 -0.2011 -0.6060
   93SAPS   C22 9102   1.286   3.412   6.977 -0.4594 -0.4063  0.6221
   93SAPS   H2R 9103   1.181   3.424   7.012 -0.5406  0.6999  0.0304
   93SAPS   H2S 9104   1.289   3.333   6.899 -0.7855  2.3445 -2.3517
   93SAPS    C3 9105   1.230   3.885   6.944  0.2982 -0.1445  0.5904
   93SAPS    HX 9106   1.127   3.856   6.973 -0.5770 -0.0191 -2.1451
   93SAPS    HY 9107   1.216   3.972   6.877 -1.1625 -2.0225 -1.7107
   93SAPS   O31 9108   1.299   3.907   7.064 -0.0280 -0.1663 -0.3118
   93SAPS   C31 9109   1.393   4.004   7.055  0.0236  0.3229 -0.4607
   93SAPS   O32 9110   1.409   4.075   6.963 -0.8606 -0.8134  0.0913
   93SAPS   C32 9111   1.468   4.018   7.191 -0.7388 -0.2188 -0.0805
   93SAPS   H2X 9112   1.536   3.933   7.210 -0.7064  0.4348  3.3003
   93SAPS   H2Y 9113   1.404   4.002   7.281  3.2550 -1.2514  2.8294
   93SAPS   C23 9114   1.365   3.379   7.105  0.5081 -0.4232  0.0378
   93SAPS   H3R 9115   1.467   3.424   7.105 -0.0985  1.0299 -0.7196
   93SAPS   H3S 9116   1.397   3.273   7.098  0.8138 -0.2244 -2.9836
   93SAPS   C24 9117   1.293   3.414   7.243 -0.0959 -0.8612  0.6448
   93SAPS   H4R 9118   1.254   3.518   7.236  2.5984  0.1164 -3.1670
   93SAPS   H4S 9119   1.374   3.414   7.319 -0.0608  2.7142  0.7731
   93SAPS   C25 9120   1.182   3.320   7.279  0.3390  0.1104 -0.5718
   93SAPS   H5R 9121   1.128   3.269   7.197 -2.5005  0.0358  1.1928
   93SAPS   C26 9122   1.147   3.292   7.409 -0.1589 -0.4393 -0.2683
   93SAPS   H6R 9123   1.059   3.228   7.422 -0.3898 -1.0088 -3.7900
   93SAPS   C27 9124   1.215   3.359   7.526  0.0022 -0.0730 -0.0807
   93SAPS   H7R 9125   1.179   3.464   7.534 -2.2519 -0.7982 -0.1890
   93SAPS   H7S 9126   1.324   3.350   7.506  0.0517  0.7374 -0.2204
   93SAPS   C28 9127   1.200   3.281   7.656  0.5688 -0.2120  0.3865
   93SAPS   H8R 9128   1.150   3.185   7.639 -0.7441 -0.0240  2.8280
   93SAPS   C29 9129   1.238   3.310   7.778 -0.1346  0.1057  0.3340
   93SAPS   H9R 9130   1.212   3.237   7.856 -1.8089 -0.8455 -1.0560
   93SAPS  C210 9131   1.311   3.439   7.825  0.1431  0.9468  0.3071
   93SAPS  H10R 9132   1.259   3.515   7.888  3.0596  1.6272  2.0968
   93SAPS  H10S 9133   1.338   3.500   7.736  1.0068  1.4793  0.9137
   93SAPS  C211 9134   1.438   3.411   7.903 -0.2524  0.3222  0.3566
   93SAPS  H11R 9135   1.532   3.412   7.845 -0.4595 -0.7564 -0.0154
   93SAPS  C212 9136   1.442   3.389   8.037 -0.2662 -0.1742  0.4256
   93SAPS  H12R 9137   1.543   3.371   8.075 -0.3113  0.1817  0.7115
   93SAPS  C213 9138   1.331   3.384   8.136  0.2530 -0.1469  0.2161
   93SAPS  H13R 9139   1.232   3.362   8.090 -0.4947  2.7917  0.2301
   93SAPS  H13S 9140   1.325   3.490   8.168  2.4911  0.4275 -1.0779
   93SAPS  C214 9141   1.364   3.300   8.257  0.8850  0.0133  0.0718
   93SAPS  H14R 9142   1.402   3.358   8.342 -1.0626  1.1884  0.1785
   93SAPS  C215 9143   1.329   3.171   8.279 -0.1417  0.0668  0.2769
   93SAPS  H15R 9144   1.351   3.134   8.380  1.1156  0.4274  0.1482
   93SAPS  C216 9145   1.246   3.069   8.195 -0.1944  0.0843 -0.6954
   93SAPS  H16R 9146   1.312   2.980   8.192 -0.9019 -0.5312  0.7371
   93SAPS  H16S 9147   1.229   3.108   8.093 -1.3005 -0.0495 -0.5820
   93SAPS  C217 9148   1.122   3.030   8.277  0.3706 -0.2971  0.1932
   93SAPS  H17R 9149   1.054   3.115   8.303  1.0525  0.1216  0.6375
   93SAPS  H17S 9150   1.148   2.968   8.366 -0.7528 -1.9279 -0.5658
   93SAPS  C218 9151   1.027   2.942   8.191  0.2139  0.7202  0.6139
   93SAPS  H18R 9152   0.997   2.974   8.089 -1.9258  0.0653  0.9965
   93SAPS  H18S 9153   0.932   2.944   8.248 -0.1436  2.5654  0.0410
   93SAPS  C219 9154   1.067   2.792   8.165 -0.1920  0.4819 -0.4332
   93SAPS  H19R 9155   1.154   2.789   8.096  0.2944  1.2998  0.1385
   93SAPS  H19S 9156   0.980   2.751   8.108 -0.4918  1.2196 -0.5161
   93SAPS  C220 9157   1.092   2.714   8.289  0.3306 -0.3101 -0.5950
   93SAPS  H20R 9158   1.003   2.689   8.350  1.6242  0.5038  1.7657
   93SAPS  H20S 9159   1.162   2.774   8.351 -1.4148 -0.5381  1.7099
   93SAPS  H20T 9160   1.141   2.620   8.254 -2.3477 -1.9072 -0.3231
   93SAPS   C33 9161   1.533   4.161   7.219 -0.1883 -0.0819  0.2262
   93SAPS   H3X 9162   1.485   4.240   7.158  0.6261 -0.4569 -0.9235
   93SAPS   H3Y 9163   1.632   4.159   7.171 -0.6718 -3.5492 -0.8623
   93SAPS   C34 9164   1.527   4.211   7.363  0.2222  0.2819  0.2419
   93SAPS   H4X 9165   1.440   4.273   7.395  0.6992 -0.2991  2.9341
   93SAPS   H4Y 9166   1.603   4.292   7.355  0.7583 -0.1861  0.5073
   93SAPS   C35 9167   1.581   4.112   7.471  0.0299  0.9948 -0.2209
   93SAPS   H5X 9168   1.683   4.080   7.440 -0.9088 -0.0661 -2.4476
   93SAPS   H5Y 9169   1.512   4.025   7.477  0.5449  0.6872  1.8123
   93SAPS   C36 9170   1.586   4.182   7.611  0.4713 -0.4253 -0.2817
   93SAPS   H6X 9171   1.652   4.117   7.673  1.1250  1.2690  0.9071
   93SAPS   H6Y 9172   1.484   4.206   7.649  0.3163 -0.6358 -0.5672
   93SAPS   C37 9173   1.669   4.307   7.610 -0.1140 -0.0189 -0.3541
   93SAPS   H7X 9174   1.614   4.391   7.563  1.0970  0.4462 -0.9788
   93SAPS   H7Y 9175   1.768   4.294   7.560  1.2388  1.5323  1.7318
   93SAPS   C38 9176   1.705   4.341   7.752 -0.6079 -0.1317  0.4412
   93SAPS   H8X 9177   1.765   4.256   7.792  2.3478  2.1167  1.1252
   93SAPS   H8Y 9178   1.607   4.350   7.805 -1.9086 -1.1809 -1.6499
   93SAPS   C39 9179   1.793   4.459   7.756  0.1384 -0.2785  0.2002
   93SAPS   H9X 9180   1.767   4.544   7.689  1.3425  0.0972  0.1970
   93SAPS   H9Y 9181   1.891   4.430   7.714 -0.0231 -0.2171 -0.2196
   93SAPS  C310 9182   1.813   4.518   7.899  0.4973  1.1451  0.2789
   93SAPS  H10X 9183   1.906   4.579   7.899  1.8955 -0.8757  1.2925
   93SAPS  H10Y 9184   1.835   4.430   7.963  1.6125  1.6708  0.6500
   93SAPS  C311 9185   1.694   4.596   7.957  0.6637 -0.3561 -0.2550
   93SAPS  H11X 9186   1.607   4.528   7.967 -0.1223  0.9783  3.5224
   93SAPS  H11Y 9187   1.669   4.682   7.891  0.0715 -1.6396 -1.7516
   93SAPS  C312 9188   1.722   4.648   8.102 -0.6945 -0.0725 -0.6967
   93SAPS  H12X 9189   1.818   4.703   8.097 -0.4970 -0.4929 -2.3727
   93SAPS  H12Y 9190   1.756   4.554   8.150 -1.8584 -0.7829 -1.2211
   93SAPS  C313 9191   1.607   4.725   8.165  0.5251  0.1492 -0.0230
   93SAPS  H13X 9192   1.517   4.660   8.153 -0.4273  0.9303  2.3829
   93SAPS  H13Y 9193   1.574   4.816   8.110  0.0377  0.3838  0.6415
   93SAPS  C314 9194   1.625   4.754   8.311 -0.2562 -0.9914 -0.2929
   93SAPS  H14X 9195   1.707   4.821   8.346 -0.9992  0.1591 -0.6697
   93SAPS  H14Y 9196   1.648   4.656   8.357 -3.4176 -1.0869  1.3859
   93SAPS  C315 9197   1.493   4.819   8.367 -0.1898  0.9670 -0.0016
   93SAPS  H15X 9198   1.407   4.780   8.310  0.2774 -1.6037  0.9110
   93SAPS  H15Y 9199   1.494   4.927   8.338 -0.1293  0.7831 -0.7016
   93SAPS  C316 9200   1.474   4.783   8.520 -0.5544  0.2810  0.7821
   93SAPS  H16X 9201   1.442   4.677   8.530  1.2915 -0.6287 -1.9253
   93SAPS  H16Y 9202   1.386   4.846   8.546 -1.9612 -0.6572 -1.4629
   93SAPS  C317 9203   1.590   4.820   8.612  0.1100 -0.7575  0.3353
   93SAPS  H17X 9204   1.608   4.930   8.608  0.0494 -0.6647  1.9816
   93SAPS  H17Y 9205   1.682   4.768   8.579  0.6575 -0.3667  1.1999
   93SAPS  C318 9206   1.567   4.783   8.758  0.1290 -0.1714 -0.1099
   93SAPS  H18X 9207   1.564   4.674   8.780  0.5423 -0.1061  0.2880
   93SAPS  H18Y 9208   1.472   4.828   8.793  1.1746 -0.1111  2.9774
   93SAPS  H18Z 9209   1.654   4.824   8.813  0.6445  1.8252 -2.2515
   94SAPS     N 9210   1.590   5.059   6.008 -0.5093  0.0031 -0.5916
   94SAPS   HN1 9211   1.589   4.955   6.019 -0.2382 -0.2332 -2.4464
   94SAPS   HN2 9212   1.690   5.085   5.996 -0.3198  0.6182  1.7242
   94SAPS   HN3 9213   1.550   5.102   6.094  0.3165 -1.4992  0.6084
   94SAPS   C12 9214   1.488   5.089   5.896  0.9034 -0.0833  0.0692
   94SAPS  H12A 9215   1.499   5.010   5.822 -3.2600 -0.7956 -0.0259
   94SAPS   C13 9216   1.345   5.099   5.937  0.0710  0.4892 -0.4369
   94SAPS  O13A 9217   1.303   5.061   6.052 -0.4021  0.3309 -0.0813
   94SAPS  O13B 9218   1.259   5.141   5.853  0.2406  0.5534  0.9170
   94SAPS   C11 9219   1.528   5.229   5.831 -0.2776 -0.6027 -0.4721
   94SAPS  H11A 9220   1.455   5.265   5.755 -2.0893  0.8196  1.8309
   94SAPS  H11B 9221   1.627   5.205   5.785 -0.3942 -1.4944 -0.2830
   94SAPS     P 9222   1.606   5.468   5.885 -0.2165  0.5385 -0.5926
   94SAPS   O13 9223   1.743   5.460   5.938  0.5868  0.3673  0.0894
   94SAPS   O14 9224   1.598   5.495   5.739  0.3044 -0.3482  0.0130
   94SAPS   O12 9225   1.537   5.332   5.927 -0.2823  0.2318  0.2027
   94SAPS   O11 9226   1.528   5.572   5.966  0.1205 -0.3105 -0.2901
   94SAPS    C1 9227   1.426   5.544   6.064  0.3595 -0.4860 -0.0062
   94SAPS    HA 9228   1.331   5.554   6.007 -1.3497 -2.8686  2.1664
   94SAPS    HB 9229   1.428   5.440   6.103 -1.6436  0.0123  1.6241
   94SAPS    C2 9230   1.438   5.640   6.187 -0.0449  0.4985  0.1866
   94SAPS    HS 9231   1.518   5.711   6.158  0.4781  0.3832  1.2830
   94SAPS   O21 9232   1.472   5.564   6.302 -0.2555 -0.1792 -0.2638
   94SAPS   C21 9233   1.542   5.627   6.391  0.4051  0.6435  0.5805
   94SAPS   O22 9234   1.562   5.749   6.393  0.4868 -0.2872 -0.3402
   94SAPS   C22 9235   1.609   5.530   6.488  0.4554  0.3835 -0.0589
   94SAPS   H2R 9236   1.611   5.435   6.430 -3.8743 -0.5607  1.0376
   94SAPS   H2S 9237   1.712   5.565   6.511  0.9260 -2.2287  2.3755
   94SAPS    C3 9238   1.307   5.718   6.201  0.2468 -0.2454  0.4500
   94SAPS    HX 9239   1.287   5.764   6.102 -2.3601 -1.0586  0.5048
   94SAPS    HY 9240   1.316   5.806   6.268  0.2083  1.6634 -1.9312
   94SAPS   O31 9241   1.191   5.623   6.227 -0.6008  0.4772  0.3465
   94SAPS   C31 9242   1.175   5.597   6.363  0.6325  0.3473 -0.0478
   94SAPS   O32 9243   1.212   5.672   6.451 -0.0847 -0.0110  0.1765
   94SAPS   C32 9244   1.089   5.467   6.386 -0.2721 -0.1553  0.1611
   94SAPS   H2X 9245   1.112   5.427   6.285 -0.3990 -0.4025  0.2294
   94SAPS   H2Y 9246   0.980   5.491   6.385 -0.6934 -1.8456  1.4957
   94SAPS   C23 9247   1.522   5.522   6.614  0.4723  0.5609 -0.4764
   94SAPS   H3R 9248   1.557   5.430   6.665 -1.3062  0.3032  0.3407
   94SAPS   H3S 9249   1.414   5.514   6.592  0.1320  1.2973  0.7963
   94SAPS   C24 9250   1.546   5.642   6.708  0.0982 -0.1674 -0.5763
   94SAPS   H4R 9251   1.528   5.739   6.657  1.8005  0.6652  0.3600
   94SAPS   H4S 9252   1.654   5.633   6.730  0.4647  1.2755 -1.5948
   94SAPS   C25 9253   1.478   5.616   6.844 -0.6446  0.4940 -0.6014
   94SAPS   H5R 9254   1.396   5.542   6.843 -0.3265  0.1453 -1.2281
   94SAPS   C26 9255   1.532   5.664   6.963  0.0266 -0.2117 -0.0824
   94SAPS   H6R 9256   1.477   5.648   7.056 -0.2032 -3.0878 -0.6224
   94SAPS   C27 9257   1.664   5.743   6.969  0.0617  0.6396  0.0969
   94SAPS   H7R 9258   1.648   5.825   7.043 -0.2756  0.3315  0.3729
   94SAPS   H7S 9259   1.679   5.803   6.877  1.0936  1.0104  0.4959
   94SAPS   C28 9260   1.778   5.657   7.009 -0.1260 -0.6209  0.0177
   94SAPS   H8R 9261   1.808   5.579   6.937  1.1680 -2.7661  2.6931
   94SAPS   C29 9262   1.858   5.650   7.117  0.1552 -0.0853 -0.2280
   94SAPS   H9R 9263   1.950   5.590   7.124 -0.2961 -0.7946 -0.3454
   94SAPS  C210 9264   1.844   5.744   7.241 -0.2824  0.6990 -0.0749
   94SAPS  H10R 9265   1.855   5.847   7.199 -0.7914  1.4635  1.5637
   94SAPS  H10S 9266   1.933   5.722   7.303  0.5066 -0.6218 -1.6043
   94SAPS  C211 9267   1.725   5.734   7.333 -0.4896 -0.1606  0.1379
   94SAPS  H11R 9268   1.640   5.679   7.290 -0.1895  0.2515 -1.0038
   94SAPS  C212 9269   1.717   5.793   7.456  0.1627  0.0588  0.2955
   94SAPS  H12R 9270   1.626   5.789   7.518 -1.5339  4.1490 -1.5910
   94SAPS  C213 9271   1.825   5.881   7.518  0.6995  0.3084 -0.4014
   94SAPS  H13R 9272   1.769   5.964   7.566 -0.4308 -0.9711  0.5878
   94SAPS  H13S 9273   1.882   5.936   7.440 -0.5779  0.3917 -1.3154
   94SAPS  C214 9274   1.924   5.814   7.614  0.7117  0.3903 -0.0529
   94SAPS  H14R 9275   1.986   5.736   7.567  1.6071 -0.0177  1.7123
   94SAPS  C215 9276   1.948   5.836   7.746  0.1564  0.3990  0.2896
   94SAPS  H15R 9277   2.021   5.773   7.800 -0.7576  0.7661  2.0099
   94SAPS  C216 9278   1.881   5.933   7.834 -0.7319 -0.1575  0.0543
   94SAPS  H16R 9279   1.917   5.922   7.939  1.3899 -0.0154 -0.6091
   94SAPS  H16S 9280   1.771   5.924   7.831 -0.8955  1.4446  0.5458
   94SAPS  C217 9281   1.932   6.076   7.789  0.1185  0.0561 -0.0733
   94SAPS  H17R 9282   1.932   6.084   7.678  1.7052  1.3840 -0.0151
   94SAPS  H17S 9283   2.032   6.108   7.827 -0.3543  0.4054  0.9361
   94SAPS  C218 9284   1.828   6.185   7.832  0.0109 -0.2269  0.7080
   94SAPS  H18R 9285   1.823   6.189   7.943 -0.3235 -1.2957  0.7514
   94SAPS  H18S 9286   1.734   6.157   7.781  0.1118 -0.2110  0.5132
   94SAPS  C219 9287   1.861   6.323   7.778 -0.3250  0.3453  0.1921
   94SAPS  H19R 9288   1.885   6.317   7.670  0.4597 -0.3605  0.3930
   94SAPS  H19S 9289   1.954   6.350   7.832 -0.6165  4.0222 -0.9101
   94SAPS  C220 9290   1.753   6.428   7.817 -0.1057  0.1482  0.4326
   94SAPS  H20R 9291   1.774   6.522   7.762 -0.6437 -0.7559 -1.4129
   94SAPS  H20S 9292   1.757   6.444   7.926 -0.0848  0.7763  0.3401
   94SAPS  H20T 9293   1.655   6.389   7.781  1.2846 -0.7897 -2.7179
   94SAPS   C33 9294   1.125   5.386   6.507  0.9167  0.1620  0.6620
   94SAPS   H3X 9295   1.233   5.376   6.533  0.7030  0.7169  1.8339
   94SAPS   H3Y 9296   1.096   5.281   6.484 -3.6779  1.7030 -1.6048
   94SAPS   C34 9297   1.049   5.428   6.636  0.3636  0.2714  0.3598
   94SAPS   H4X 9298   0.956   5.366   6.634  1.2391 -1.3456 -4.4896
   94SAPS   H4Y 9299   1.026   5.536   6.635  0.8405  0.3847 -0.9551
   94SAPS   C35 9300   1.129   5.391   6.764  0.4468 -0.1039  0.5917
   94SAPS   H5X 9301   1.213   5.462   6.771  0.3642 -0.1368  4.3716
   94SAPS   H5Y 9302   1.181   5.293   6.755  0.4991 -0.0062 -0.1768
   94SAPS   C36 9303   1.035   5.372   6.886 -0.4918 -0.0774 -0.0105
   94SAPS   H6X 9304   0.981   5.275   6.878 -1.2299  0.3191  0.0342
   94SAPS   H6Y 9305   0.959   5.453   6.895  0.7215  1.1465 -0.4603
   94SAPS   C37 9306   1.110   5.371   7.025  0.2536 -0.2178  0.9019
   94SAPS   H7X 9307   1.167   5.466   7.034 -0.2902  0.2003  0.0808
   94SAPS   H7Y 9308   1.187   5.292   7.019  0.4531  0.0449 -2.9950
   94SAPS   C38 9309   1.017   5.345   7.147 -0.1796 -0.1171  0.5834
   94SAPS   H8X 9310   1.072   5.321   7.240 -0.5948 -1.6022  0.4752
   94SAPS   H8Y 9311   0.954   5.259   7.118 -1.2574  0.9609 -0.3766
   94SAPS   C39 9312   0.923   5.470   7.176  0.0460  0.9231 -0.9667
   94SAPS   H9X 9313   0.859   5.486   7.086  0.6986  0.7258 -1.4742
   94SAPS   H9Y 9314   0.977   5.559   7.214  2.9869 -0.1636 -2.3401
   94SAPS  C310 9315   0.831   5.427   7.292 -0.3432 -0.0259 -0.1539
   94SAPS  H10X 9316   0.824   5.317   7.299  1.7669 -0.3770 -2.2620
   94SAPS  H10Y 9317   0.725   5.455   7.272 -0.4267 -0.6283 -0.5716
   94SAPS  C311 9318   0.881   5.466   7.438  0.4880  0.7674 -0.0634
   94SAPS  H11X 9319   0.877   5.576   7.455 -2.4967  0.3450  3.2771
   94SAPS  H11Y 9320   0.986   5.430   7.431  0.1381 -0.0090 -1.9719
   94SAPS  C312 9321   0.798   5.411   7.552 -0.1495  0.1182  0.0085
   94SAPS  H12X 9322   0.806   5.300   7.546 -0.6001  0.0326  0.8319
   94SAPS  H12Y 9323   0.691   5.433   7.533 -0.6131 -2.4543 -0.7986
   94SAPS  C313 9324   0.852   5.447   7.690  0.5006  0.5012 -0.4259
   94SAPS  H13X 9325   0.829   5.553   7.712 -1.2965  0.5583 -2.2400
   94SAPS  H13Y 9326   0.960   5.423   7.699  0.4775  1.0377  2.0242
   94SAPS  C314 9327   0.786   5.352   7.788  0.6012 -0.4069  0.1918
   94SAPS  H14X 9328   0.831   5.251   7.776  1.6778 -0.3684  3.2262
   94SAPS  H14Y 9329   0.680   5.340   7.757  0.5011 -0.1934  0.4503
   94SAPS  C315 9330   0.794   5.400   7.936  0.1948  0.2634  0.3810
   94SAPS  H15X 9331   0.726   5.483   7.964  1.1708  1.0206  0.5511
   94SAPS  H15Y 9332   0.897   5.434   7.958  0.2621  2.1197 -2.3438
   94SAPS  C316 9333   0.761   5.270   8.023  0.0439 -0.5682 -0.8883
   94SAPS  H16X 9334   0.821   5.180   7.999  2.4525  0.2554  1.5934
   94SAPS  H16Y 9335   0.661   5.241   7.984  0.2829  0.2947 -2.2299
   94SAPS  C317 9336   0.782   5.288   8.169  0.2214 -0.5891  0.1555
   94SAPS  H17X 9337   0.736   5.386   8.194  0.3749 -0.0428 -1.5434
   94SAPS  H17Y 9338   0.885   5.291   8.209 -0.3058  0.7819  1.5167
   94SAPS  C318 9339   0.706   5.184   8.243 -0.3109 -0.0306 -0.3945
   94SAPS  H18X 9340   0.752   5.162   8.341 -0.0919 -1.3543 -0.7633
   94SAPS  H18Y 9341   0.720   5.082   8.201  2.6452 -0.4069  1.2318
   94SAPS  H18Z 9342   0.598   5.205   8.261 -0.9194 -3.6724  1.1190
   95SAPS     N 9343   4.154   2.591   6.106 -0.2624  0.1614 -0.2494
   95SAPS   HN1 9344   4.153   2.683   6.057 -0.9566 -1.0240 -2.5914
   95SAPS   HN2 9345   4.083   2.604   6.182 -1.5875  0.0881 -1.4376
   95SAPS   HN3 9346   4.246   2.585   6.154 -0.2417  0.0898 -0.2979
   95SAPS   C12 9347   4.100   2.485   6.021 -0.0831 -0.0508 -0.3613
   95SAPS  H12A 9348   3.993   2.499   6.018  0.0556  1.2365  0.1537
   95SAPS   C13 9349   4.155   2.481   5.878 -0.2012 -0.1479 -0.2572
   95SAPS  O13A 9350   4.231   2.572   5.832  0.8764 -0.1856 -0.2007
   95SAPS  O13B 9351   4.124   2.381   5.804  0.2390 -0.2345  0.6576
   95SAPS   C11 9352   4.119   2.344   6.078  0.0088 -0.3897 -0.0168
   95SAPS  H11A 9353   4.225   2.317   6.056 -0.0419  0.4447 -1.3940
   95SAPS  H11B 9354   4.058   2.278   6.013 -2.5486  0.4792  1.3767
   95SAPS     P 9355   4.024   2.211   6.276  0.1793  0.3410  0.7897
   95SAPS   O13 9356   3.881   2.212   6.269  0.3643  0.2125 -0.3286
   95SAPS   O14 9357   4.091   2.094   6.223  0.0943 -0.0261 -0.2507
   95SAPS   O12 9358   4.091   2.345   6.218 -0.0190  0.5774 -0.1778
   95SAPS   O11 9359   4.076   2.218   6.422  0.2353  0.1710 -0.6288
   95SAPS    C1 9360   4.205   2.265   6.465  0.2165 -0.3441 -0.0043
   95SAPS    HA 9361   4.284   2.190   6.443 -1.4033 -1.8871 -0.7603
   95SAPS    HB 9362   4.231   2.355   6.405 -0.2439 -0.8183 -0.9269
   95SAPS    C2 9363   4.196   2.297   6.620 -0.4041  0.2931 -0.0422
   95SAPS    HS 9364   4.299   2.331   6.644 -0.7304  0.6037  1.0142
   95SAPS   O21 9365   4.165   2.173   6.697 -0.0297  0.0338  0.1505
   95SAPS   C21 9366   4.208   2.169   6.824  0.6307  0.7436 -0.2283
   95SAPS   O22 9367   4.294   2.228   6.881  0.0211 -0.0563  1.0263
   95SAPS   C22 9368   4.135   2.053   6.897  0.0486 -0.2276  0.2778
   95SAPS   H2R 9369   4.028   2.072   6.874  0.3741  0.3362 -0.8468
   95SAPS   H2S 9370   4.171   1.960   6.849 -1.2707 -2.0864  2.6730
   95SAPS    C3 9371   4.094   2.408   6.650  0.5031 -0.5153  0.4330
   95SAPS    HX 9372   3.990   2.370   6.655  0.5551 -0.6142  0.7393
   95SAPS    HY 9373   4.102   2.484   6.569 -1.1009 -0.7149  0.0458
   95SAPS   O31 9374   4.119   2.478   6.776 -0.0661  0.4896  0.1081
   95SAPS   C31 9375   4.049   2.440   6.880  0.1241  0.2640  0.5379
   95SAPS   O32 9376   3.962   2.352   6.869 -0.1956 -0.3064 -0.0676
   95SAPS   C32 9377   4.092   2.516   7.013  0.7768  0.0656  0.6637
   95SAPS   H2X 9378   4.058   2.622   7.017 -0.2691 -0.2593  0.4048
   95SAPS   H2Y 9379   4.203   2.505   7.016  0.8182 -0.0306 -0.6855
   95SAPS   C23 9380   4.170   2.043   7.042 -0.2561  0.3705 -0.4734
   95SAPS   H3R 9381   4.139   2.126   7.108 -2.6922  0.2794 -1.4152
   95SAPS   H3S 9382   4.280   2.032   7.049 -0.2044 -0.2676 -1.8591
   95SAPS   C24 9383   4.114   1.911   7.105 -0.1081  0.1624 -0.0400
   95SAPS   H4R 9384   4.132   1.838   7.022  2.0634  0.1737  0.3433
   95SAPS   H4S 9385   4.003   1.914   7.110 -0.2612 -0.8948 -1.8970
   95SAPS   C25 9386   4.181   1.859   7.227  0.8125  0.2894  0.4156
   95SAPS   H5R 9387   4.259   1.787   7.199  0.6453  0.1907  0.2013
   95SAPS   C26 9388   4.136   1.869   7.356 -0.3199 -0.3626  0.1578
   95SAPS   H6R 9389   4.192   1.820   7.438  1.0036 -0.4383 -0.7565
   95SAPS   C27 9390   4.025   1.959   7.406  0.5046  0.0829 -0.5849
   95SAPS   H7R 9391   3.958   1.884   7.453  1.5342  0.7517  2.1399
   95SAPS   H7S 9392   3.975   2.006   7.318  0.7847  1.1682 -0.1840
   95SAPS   C28 9393   4.077   2.054   7.515 -0.3341 -0.0987  0.3262
   95SAPS   H8R 9394   4.144   2.134   7.480  0.0707 -0.2212  0.8101
   95SAPS   C29 9395   4.038   2.063   7.640  1.3474  0.4378 -0.3012
   95SAPS   H9R 9396   4.072   2.150   7.698  0.0844 -0.7130  2.3381
   95SAPS  C210 9397   3.926   1.982   7.710 -0.5140 -0.5605  0.0782
   95SAPS  H10R 9398   3.860   1.928   7.638 -0.7653 -1.4344  0.9398
   95SAPS  H10S 9399   3.863   2.065   7.750 -0.5247 -1.2859  1.6381
   95SAPS  C211 9400   3.966   1.891   7.822 -0.1675 -0.1793 -0.2127
   95SAPS  H11R 9401   3.998   1.790   7.793  0.4717 -0.6394  1.9198
   95SAPS  C212 9402   3.968   1.916   7.953  0.1391 -0.0412  0.5660
   95SAPS  H12R 9403   4.007   1.839   8.021 -1.8189 -1.1420  0.5033
   95SAPS  C213 9404   3.948   2.056   8.010  0.2954  0.0429  0.0038
   95SAPS  H13R 9405   3.921   2.135   7.936  0.7764  0.3295  0.1304
   95SAPS  H13S 9406   4.043   2.091   8.056  0.8515 -0.2043 -0.9128
   95SAPS  C214 9407   3.851   2.054   8.129  0.3465 -0.3267 -1.3288
   95SAPS  H14R 9408   3.745   2.076   8.112 -0.3700 -1.5058  1.1287
   95SAPS  C215 9409   3.873   2.016   8.256 -0.2596 -0.2366  0.1031
   95SAPS  H15R 9410   3.790   2.010   8.329 -1.3667 -0.7062 -1.1635
   95SAPS  C216 9411   4.009   1.964   8.306 -0.1801  0.2475  0.2856
   95SAPS  H16R 9412   4.082   1.960   8.223  1.2965 -1.9678  1.5814
   95SAPS  H16S 9413   4.003   1.860   8.344  0.3674 -0.7938 -2.3021
   95SAPS  C217 9414   4.064   2.060   8.411 -0.2246 -0.3696  0.4722
   95SAPS  H17R 9415   3.990   2.082   8.491 -1.5920 -2.0719 -0.2578
   95SAPS  H17S 9416   4.085   2.158   8.362 -2.1796 -1.7102 -3.5008
   95SAPS  C218 9417   4.193   2.012   8.483 -0.3225  0.1572 -0.2429
   95SAPS  H18R 9418   4.178   1.909   8.523  1.1870 -0.0066 -0.0449
   95SAPS  H18S 9419   4.214   2.079   8.569  0.5942  1.3564 -1.3582
   95SAPS  C219 9420   4.318   2.015   8.398  0.3780 -0.0950  0.4467
   95SAPS  H19R 9421   4.328   2.112   8.345  0.5533 -0.1518  0.3739
   95SAPS  H19S 9422   4.312   1.946   8.311 -0.8570  0.0466  0.3966
   95SAPS  C220 9423   4.444   1.984   8.474 -0.5852 -0.8192 -0.3276
   95SAPS  H20R 9424   4.444   1.880   8.513 -0.7620  0.2199  2.6937
   95SAPS  H20S 9425   4.451   2.057   8.557  1.6882 -1.8827  0.4951
   95SAPS  H20T 9426   4.532   2.003   8.409  0.5246  0.0648  1.3764
   95SAPS   C33 9427   4.035   2.447   7.143  0.8993 -0.7109 -0.0033
   95SAPS   H3X 9428   4.068   2.341   7.150  4.5015  0.3354  1.0189
   95SAPS   H3Y 9429   3.924   2.446   7.138  0.6462  4.9109 -1.4497
   95SAPS   C34 9430   4.065   2.532   7.269 -0.2825 -0.1079 -1.1419
   95SAPS   H4X 9431   4.023   2.636   7.271  2.2247  0.9553 -0.4580
   95SAPS   H4Y 9432   4.172   2.555   7.255 -0.2882  0.7176  0.0248
   95SAPS   C35 9433   4.035   2.454   7.395 -0.2221 -0.4126 -0.1679
   95SAPS   H5X 9434   4.088   2.358   7.381  2.3739  1.0850 -1.4418
   95SAPS   H5Y 9435   3.925   2.443   7.403 -0.5302  2.0819 -0.2027
   95SAPS   C36 9436   4.085   2.523   7.525  0.0953 -0.1630  0.4014
   95SAPS   H6X 9437   4.033   2.619   7.546 -0.9223 -0.6332  0.0834
   95SAPS   H6Y 9438   4.196   2.531   7.521  0.1442 -1.2630 -1.2285
   95SAPS   C37 9439   4.050   2.426   7.640 -0.0329  0.1628  0.0098
   95SAPS   H7X 9440   4.107   2.333   7.618  0.2634 -0.0326  1.4512
   95SAPS   H7Y 9441   3.943   2.398   7.640  0.4666 -1.9314  0.3406
   95SAPS   C38 9442   4.100   2.484   7.772  0.9483  0.3564 -0.0955
   95SAPS   H8X 9443   4.034   2.566   7.808  0.2231  0.1158 -0.8499
   95SAPS   H8Y 9444   4.206   2.514   7.762  1.1803 -0.9871 -2.3811
   95SAPS   C39 9445   4.112   2.381   7.887 -0.0208 -0.5002 -0.7285
   95SAPS   H9X 9446   4.183   2.297   7.874  1.8868  0.1370  3.6918
   95SAPS   H9Y 9447   4.007   2.346   7.900  0.0630 -0.6807 -0.5317
   95SAPS  C310 9448   4.157   2.451   8.020 -0.7282 -0.1929  0.1579
   95SAPS  H10X 9449   4.085   2.533   8.039 -2.0481 -1.0705 -0.8639
   95SAPS  H10Y 9450   4.262   2.486   8.013 -0.3304 -1.3657  0.0063
   95SAPS  C311 9451   4.162   2.349   8.139  0.2328 -1.3329 -0.1084
   95SAPS  H11X 9452   4.233   2.269   8.107  1.6136 -0.0323 -0.4368
   95SAPS  H11Y 9453   4.067   2.299   8.167 -1.5533  2.3975  1.1428
   95SAPS  C312 9454   4.221   2.408   8.272  0.1669  0.6111 -0.5700
   95SAPS  H12X 9455   4.306   2.476   8.251  1.0275  0.0964  1.0477
   95SAPS  H12Y 9456   4.259   2.316   8.323 -2.4443  0.4974  1.3467
   95SAPS  C313 9457   4.114   2.469   8.363  0.2249 -0.1985 -0.3012
   95SAPS  H13X 9458   4.029   2.399   8.379 -0.9169  1.4346  1.2297
   95SAPS  H13Y 9459   4.081   2.565   8.317  0.1033  0.7415  1.6334
   95SAPS  C314 9460   4.166   2.517   8.508 -0.3109  0.6438  0.1582
   95SAPS  H14X 9461   4.203   2.428   8.563 -1.3637  1.4586  2.3127
   95SAPS  H14Y 9462   4.075   2.548   8.564 -0.2933 -0.5839  0.9070
   95SAPS  C315 9463   4.264   2.639   8.511 -0.1253 -0.1187  0.2744
   95SAPS  H15X 9464   4.208   2.729   8.479  1.1625 -0.0087 -1.9005
   95SAPS  H15Y 9465   4.346   2.619   8.439  0.0638 -0.8309  0.6755
   95SAPS  C316 9466   4.335   2.642   8.648  0.2959  0.2898  0.0310
   95SAPS  H16X 9467   4.412   2.722   8.641 -0.4547  1.1442  1.2708
   95SAPS  H16Y 9468   4.371   2.540   8.674 -0.4542 -0.2594 -1.0154
   95SAPS  C317 9469   4.241   2.678   8.769  0.2577  0.0632  0.3792
   95SAPS  H17X 9470   4.173   2.591   8.781 -0.3794  0.2156 -1.6553
   95SAPS  H17Y 9471   4.178   2.767   8.745  1.7457  1.4084  1.2426
   95SAPS  C318 9472   4.324   2.693   8.905  0.3960  0.4442  0.1284
   95SAPS  H18X 9473   4.389   2.604   8.921  1.7766  1.0340 -1.7793
   95SAPS  H18Y 9474   4.261   2.693   8.996  0.5328 -0.7101  0.2384
   95SAPS  H18Z 9475   4.394   2.777   8.886  1.0921 -0.2560 -0.5151
   96SAPS     N 9476   5.711   4.336   6.109 -0.0782  0.0541  0.4208
   96SAPS   HN1 9477   5.805   4.378   6.125  0.6542 -0.1822 -2.7629
   96SAPS   HN2 9478   5.682   4.378   6.019  0.3363  2.1737  1.2240
   96SAPS   HN3 9479   5.655   4.369   6.191  0.0192 -2.0616  1.4080
   96SAPS   C12 9480   5.726   4.191   6.121 -0.6536  0.9641 -0.1942
   96SAPS  H12A 9481   5.719   4.151   6.221 -0.6319 -1.1652 -0.9999
   96SAPS   C13 9482   5.618   4.116   6.041 -0.1694 -0.2327 -0.1381
   96SAPS  O13A 9483   5.504   4.172   6.025 -0.2152  0.2874 -0.7237
   96SAPS  O13B 9484   5.622   3.992   6.039  0.4592  0.3217 -0.9431
   96SAPS   C11 9485   5.866   4.151   6.062 -0.1901 -0.2233 -0.3508
   96SAPS  H11A 9486   5.875   4.201   5.963 -2.1515  0.0289 -0.4469
   96SAPS  H11B 9487   5.858   4.041   6.045 -4.1272 -0.0760 -0.4218
   96SAPS     P 9488   6.044   4.102   6.243 -0.1930 -0.4716  0.0481
   96SAPS   O13 9489   6.061   3.965   6.180 -0.3128  0.0457 -0.3114
   96SAPS   O14 9490   6.168   4.177   6.290  0.1097  0.8567 -0.0493
   96SAPS   O12 9491   5.975   4.203   6.137  0.4545  0.3731 -0.0784
   96SAPS   O11 9492   5.928   4.109   6.351 -0.2643  0.1091 -0.2983
   96SAPS    C1 9493   5.915   4.223   6.447  0.3773  0.2801 -0.0266
   96SAPS    HA 9494   5.936   4.318   6.394 -1.6946  1.2756  0.8196
   96SAPS    HB 9495   5.807   4.232   6.472  0.3807  0.8563 -0.2170
   96SAPS    C2 9496   5.983   4.199   6.583 -0.0511 -0.2449 -0.6998
   96SAPS    HS 9497   6.090   4.174   6.563 -1.0078 -2.9247 -3.1983
   96SAPS   O21 9498   5.921   4.095   6.661  0.5845 -0.0382 -0.1454
   96SAPS   C21 9499   5.987   3.981   6.670  1.2150  0.4402  0.8858
   96SAPS   O22 9500   6.088   3.951   6.613 -0.4163 -0.1592 -0.3477
   96SAPS   C22 9501   5.913   3.895   6.768  0.1166  0.1331 -1.2242
   96SAPS   H2R 9502   5.984   3.832   6.826  1.0908  1.3905 -1.0083
   96SAPS   H2S 9503   5.847   3.954   6.835 -2.9663 -1.6083 -2.5166
   96SAPS    C3 9504   5.964   4.336   6.661 -0.1525  0.1925 -0.1377
   96SAPS    HX 9505   5.855   4.334   6.684 -0.4745 -0.9288 -1.6313
   96SAPS    HY 9506   5.993   4.424   6.601  0.2569  2.0003  2.5309
   96SAPS   O31 9507   6.024   4.332   6.790 -0.4613 -0.5782 -0.4624
   96SAPS   C31 9508   6.153   4.373   6.800 -0.0670  0.5133 -0.1261
   96SAPS   O32 9509   6.224   4.418   6.713 -0.6100 -0.1433 -0.0124
   96SAPS   C32 9510   6.192   4.343   6.948  0.6757 -0.5269 -0.4020
   96SAPS   H2X 9511   6.235   4.240   6.949 -1.4431 -1.5167 -2.1765
   96SAPS   H2Y 9512   6.101   4.357   7.009  1.1256 -1.5072  0.5159
   96SAPS   C23 9513   5.815   3.805   6.691 -0.6623  0.3827  0.1750
   96SAPS   H3R 9514   5.876   3.744   6.621  2.0664  1.3891  1.5313
   96SAPS   H3S 9515   5.744   3.872   6.638  0.6315  0.5155 -1.4448
   96SAPS   C24 9516   5.737   3.707   6.779  0.0619 -0.0676 -0.0615
   96SAPS   H4R 9517   5.816   3.647   6.828  1.1066 -0.8485 -2.5650
   96SAPS   H4S 9518   5.665   3.648   6.718 -1.3367  1.6399 -0.1613
   96SAPS   C25 9519   5.632   3.775   6.861 -0.7140 -0.0143 -0.1810
   96SAPS   H5R 9520   5.565   3.830   6.794  2.0418  0.6788 -2.5791
   96SAPS   C26 9521   5.617   3.774   6.994  0.5397 -0.0486  0.7540
   96SAPS   H6R 9522   5.542   3.838   7.043  1.3279  1.5061  0.0047
   96SAPS   C27 9523   5.712   3.699   7.085 -0.1448  0.1180 -0.1866
   96SAPS   H7R 9524   5.735   3.754   7.179  0.3540 -0.6989  0.1825
   96SAPS   H7S 9525   5.817   3.681   7.056  0.3312  0.0955  1.4399
   96SAPS   C28 9526   5.661   3.568   7.125  0.0253  0.5505 -0.5412
   96SAPS   H8R 9527   5.606   3.509   7.050  2.9575 -1.2460 -1.4365
   96SAPS   C29 9528   5.674   3.511   7.244 -0.6027 -0.0888 -0.0750
   96SAPS   H9R 9529   5.634   3.412   7.272 -0.9521  0.8776  3.1882
   96SAPS  C210 9530   5.741   3.579   7.371  0.2784 -1.1690 -0.0405
   96SAPS  H10R 9531   5.789   3.677   7.349  2.4482 -2.0157  0.6573
   96SAPS  H10S 9532   5.833   3.523   7.398  1.7519  1.0583 -0.1469
   96SAPS  C211 9533   5.655   3.587   7.497 -0.7176 -0.3708  0.0808
   96SAPS  H11R 9534   5.564   3.525   7.492  0.0286 -1.3876 -1.5514
   96SAPS  C212 9535   5.695   3.634   7.619 -0.0568  0.6122 -0.0543
   96SAPS  H12R 9536   5.626   3.609   7.702  0.8090  0.2608  0.5704
   96SAPS  C213 9537   5.827   3.700   7.661  0.0221 -0.5300  0.5479
   96SAPS  H13R 9538   5.907   3.646   7.607  0.1481 -1.1124  1.3053
   96SAPS  H13S 9539   5.838   3.692   7.772  0.6668  0.5079  0.5709
   96SAPS  C214 9540   5.849   3.846   7.626 -0.3933  0.0155 -0.7436
   96SAPS  H14R 9541   5.761   3.910   7.639 -0.8666 -1.0825  2.0487
   96SAPS  C215 9542   5.961   3.898   7.584 -0.0413  0.0388  0.9132
   96SAPS  H15R 9543   5.961   4.008   7.573  1.9083 -0.0306 -0.2566
   96SAPS  C216 9544   6.096   3.835   7.552  0.5478  0.2460  1.0862
   96SAPS  H16R 9545   6.102   3.731   7.591  0.9028  0.3501  1.3197
   96SAPS  H16S 9546   6.182   3.875   7.610  0.5327  0.7366  0.7683
   96SAPS  C217 9547   6.127   3.827   7.400 -0.5318  0.2035 -0.0702
   96SAPS  H17R 9548   6.045   3.769   7.352  0.0241 -0.0027 -0.7958
   96SAPS  H17S 9549   6.224   3.774   7.383  0.4428  1.7169  0.5352
   96SAPS  C218 9550   6.135   3.966   7.334  0.1568  0.1890 -0.2895
   96SAPS  H18R 9551   6.204   4.025   7.398 -1.7120  1.4496  0.6182
   96SAPS  H18S 9552   6.038   4.018   7.340 -0.6888 -1.0971 -1.9247
   96SAPS  C219 9553   6.177   3.952   7.192 -0.2977  0.7051  0.0684
   96SAPS  H19R 9554   6.242   3.864   7.172 -3.1110 -1.2438 -1.1797
   96SAPS  H19S 9555   6.245   4.037   7.172  0.3417 -0.2149 -1.9119
   96SAPS  C220 9556   6.058   3.958   7.094 -0.0767  0.4416  0.0439
   96SAPS  H20R 9557   6.008   4.057   7.087 -0.1151  0.6961  2.6984
   96SAPS  H20S 9558   5.984   3.876   7.109  2.2242 -1.5947  1.0781
   96SAPS  H20T 9559   6.109   3.952   6.996  1.9924  1.8671  0.9769
   96SAPS   C33 9560   6.315   4.425   6.995 -0.0525 -0.4325 -0.1294
   96SAPS   H3X 9561   6.287   4.532   7.011 -1.8479 -1.0298  0.9940
   96SAPS   H3Y 9562   6.396   4.421   6.918  0.6609  0.8251  0.5214
   96SAPS   C34 9563   6.368   4.383   7.132 -0.4023  0.5952 -0.2792
   96SAPS   H4X 9564   6.275   4.353   7.185 -0.7033 -0.1609 -1.1971
   96SAPS   H4Y 9565   6.412   4.469   7.187 -1.8334  0.8033  0.6149
   96SAPS   C35 9566   6.461   4.256   7.125 -0.5937 -0.1340  0.0942
   96SAPS   H5X 9567   6.561   4.292   7.094 -0.0510 -1.4793  0.2170
   96SAPS   H5Y 9568   6.419   4.191   7.045  0.3847  0.2914 -0.7826
   96SAPS   C36 9569   6.481   4.199   7.261  0.3434 -0.2211 -0.1726
   96SAPS   H6X 9570   6.378   4.188   7.303  0.2774  0.4738 -0.1392
   96SAPS   H6Y 9571   6.543   4.270   7.319 -1.1833  0.3058  0.8847
   96SAPS   C37 9572   6.541   4.066   7.264  0.0099  0.6296 -0.0783
   96SAPS   H7X 9573   6.642   4.054   7.220  0.0853  0.8339  0.0418
   96SAPS   H7Y 9574   6.476   3.996   7.207  0.8376 -0.4992  0.3469
   96SAPS   C38 9575   6.529   4.004   7.406  0.6056  0.3865  0.7386
   96SAPS   H8X 9576   6.427   4.021   7.448 -0.5395 -0.3029 -1.6012
   96SAPS   H8Y 9577   6.605   4.051   7.472  3.3639  1.0999 -2.6609
   96SAPS   C39 9578   6.542   3.854   7.407  0.0026 -0.2693 -0.7606
   96SAPS   H9X 9579   6.645   3.825   7.378  0.5767  0.3778  0.5272
   96SAPS   H9Y 9580   6.471   3.800   7.341 -0.0449  0.0528 -0.9756
   96SAPS  C310 9581   6.528   3.807   7.556 -0.7975 -0.6296  0.1758
   96SAPS  H10X 9582   6.422   3.819   7.588 -1.3836 -0.6465 -1.6476
   96SAPS  H10Y 9583   6.602   3.866   7.614 -0.6091 -0.2883 -0.4090
   96SAPS  C311 9584   6.563   3.656   7.580  0.6437 -0.4953  0.4302
   96SAPS  H11X 9585   6.668   3.631   7.551  0.3841 -0.5870 -0.4494
   96SAPS  H11Y 9586   6.491   3.604   7.513 -0.0195  0.1323  0.6461
   96SAPS  C312 9587   6.547   3.601   7.724  0.0014 -0.3086  0.4513
   96SAPS  H12X 9588   6.438   3.610   7.744  0.1707  2.7993  0.3790
   96SAPS  H12Y 9589   6.597   3.662   7.802  0.7574 -0.3897  0.0446
   96SAPS  C313 9590   6.590   3.453   7.727  0.0630 -0.0041 -0.7469
   96SAPS  H13X 9591   6.699   3.448   7.744 -0.2192  0.6658  1.6025
   96SAPS  H13Y 9592   6.559   3.391   7.640 -2.2806  0.4374 -0.2887
   96SAPS  C314 9593   6.534   3.375   7.844  0.0180  0.2494 -0.0385
   96SAPS  H14X 9594   6.563   3.270   7.825  1.3920  0.8164 -1.2168
   96SAPS  H14Y 9595   6.423   3.384   7.853  0.0056  2.9149 -1.6025
   96SAPS  C315 9596   6.577   3.427   7.982 -0.3725 -0.5388  0.4982
   96SAPS  H15X 9597   6.520   3.520   8.006 -0.1140  0.3639 -2.1016
   96SAPS  H15Y 9598   6.680   3.466   7.993  0.2002 -2.2113  1.3810
   96SAPS  C316 9599   6.536   3.320   8.082  0.0458  0.1902 -0.5094
   96SAPS  H16X 9600   6.565   3.219   8.047 -4.4083 -1.7037  0.6582
   96SAPS  H16Y 9601   6.425   3.326   8.080 -0.1851 -2.7499 -1.8471
   96SAPS  C317 9602   6.585   3.350   8.223  0.2570  0.0415 -0.0358
   96SAPS  H17X 9603   6.524   3.438   8.254 -0.6836 -0.7653  0.4849
   96SAPS  H17Y 9604   6.693   3.374   8.219  0.5769 -0.7947  2.2954
   96SAPS  C318 9605   6.567   3.229   8.328  0.3784 -0.6038  0.0839
   96SAPS  H18X 9606   6.465   3.186   8.329  0.7203 -1.4739 -0.8276
   96SAPS  H18Y 9607   6.592   3.269   8.429  0.5868  2.6480 -1.1170
   96SAPS  H18Z 9608   6.632   3.142   8.305  1.8394 -0.2836  2.5996
   97SAPS     N 9609   4.119   2.903   6.359  0.4967  0.4310 -0.1106
   97SAPS   HN1 9610   4.059   2.984   6.336 -1.6078 -0.4315  1.9147
   97SAPS   HN2 9611   4.074   2.812   6.336  0.9100 -0.3832  2.0379
   97SAPS   HN3 9612   4.143   2.892   6.460  3.5256 -1.8174 -0.9413
   97SAPS   C12 9613   4.248   2.947   6.291 -0.1664  0.2511 -0.6801
   97SAPS  H12A 9614   4.326   2.889   6.337 -0.2774 -0.0956 -0.9233
   97SAPS   C13 9615   4.257   2.936   6.137 -0.2100 -0.2407  0.1388
   97SAPS  O13A 9616   4.165   2.878   6.073  0.9210  0.3949  0.2544
   97SAPS  O13B 9617   4.359   2.977   6.080  0.6738 -0.2625  0.4767
   97SAPS   C11 9618   4.269   3.099   6.328 -0.0184 -0.0189 -0.3050
   97SAPS  H11A 9619   4.201   3.176   6.286 -0.2446 -1.0633 -1.9622
   97SAPS  H11B 9620   4.366   3.120   6.279  0.0052 -0.2484 -0.3568
   97SAPS     P 9621   4.406   3.212   6.524  0.1384  0.0843 -0.2132
   97SAPS   O13 9622   4.435   3.327   6.431  0.4159  0.6248 -0.2631
   97SAPS   O14 9623   4.388   3.241   6.670  0.0238 -0.1208 -0.2138
   97SAPS   O12 9624   4.280   3.131   6.466 -0.5766 -0.1863  0.2973
   97SAPS   O11 9625   4.519   3.105   6.508 -0.6301  0.4226  0.7255
   97SAPS    C1 9626   4.512   2.979   6.579  1.1003  0.4631 -0.1580
   97SAPS    HA 9627   4.544   3.004   6.683  0.4481 -0.7564  0.3548
   97SAPS    HB 9628   4.413   2.929   6.584  0.1524  2.2958  0.0912
   97SAPS    C2 9629   4.612   2.872   6.508 -0.4171  0.1623  0.2431
   97SAPS    HS 9630   4.581   2.844   6.405  1.4813 -1.0153 -0.0657
   97SAPS   O21 9631   4.643   2.757   6.586  0.6375 -0.1379 -0.1570
   97SAPS   C21 9632   4.542   2.670   6.590  0.6955 -0.3252 -0.1332
   97SAPS   O22 9633   4.444   2.670   6.518 -0.1675 -0.0279 -0.8375
   97SAPS   C22 9634   4.563   2.583   6.712  0.1667  0.3617 -0.2812
   97SAPS   H2R 9635   4.540   2.644   6.802 -1.9974 -1.0857  0.2426
   97SAPS   H2S 9636   4.488   2.502   6.725  1.9395 -1.4064 -0.5772
   97SAPS    C3 9637   4.748   2.941   6.475  0.2338  0.1227  1.2913
   97SAPS    HX 9638   4.716   3.016   6.400  1.4367  0.2011  0.8452
   97SAPS    HY 9639   4.818   2.869   6.427  0.0606  0.5199  0.4268
   97SAPS   O31 9640   4.790   3.003   6.603  0.1300 -0.1970 -0.4465
   97SAPS   C31 9641   4.880   2.933   6.667  0.0108  0.3609 -0.2608
   97SAPS   O32 9642   4.924   2.826   6.632  0.1815  0.2296 -0.0443
   97SAPS   C32 9643   4.929   2.996   6.802  0.2173 -0.0858  0.0903
   97SAPS   H2X 9644   4.976   2.925   6.873  0.5900 -1.3817 -1.3922
   97SAPS   H2Y 9645   4.835   3.031   6.849  0.1703 -2.4731  1.9797
   97SAPS   C23 9646   4.707   2.525   6.729 -0.7340  0.7257 -0.6910
   97SAPS   H3R 9647   4.760   2.527   6.632  1.3448 -0.4416  0.3725
   97SAPS   H3S 9648   4.711   2.416   6.751 -1.1885  0.7844 -0.2814
   97SAPS   C24 9649   4.792   2.602   6.833  0.7057 -0.0031  0.8571
   97SAPS   H4R 9650   4.741   2.592   6.931  2.6046 -2.3807  1.6989
   97SAPS   H4S 9651   4.786   2.707   6.797 -1.2255 -0.8050 -1.4013
   97SAPS   C25 9652   4.933   2.542   6.841  0.1290 -0.2023 -0.2860
   97SAPS   H5R 9653   4.974   2.523   6.741 -0.8073  4.5693 -1.8395
   97SAPS   C26 9654   5.003   2.519   6.953  0.6080 -0.0855  0.2255
   97SAPS   H6R 9655   5.106   2.483   6.942  0.4045 -0.5312 -0.2689
   97SAPS   C27 9656   4.974   2.572   7.091  0.0909  0.3417 -0.9747
   97SAPS   H7R 9657   5.072   2.559   7.141  0.2331 -3.5653 -1.9731
   97SAPS   H7S 9658   4.906   2.504   7.146  0.0260  1.3535  0.2482
   97SAPS   C28 9659   4.934   2.712   7.115  0.0792 -0.4169  0.2950
   97SAPS   H8R 9660   4.895   2.764   7.026 -0.8522  1.1234  1.5553
   97SAPS   C29 9661   4.961   2.787   7.223 -0.0183 -0.2399 -0.5051
   97SAPS   H9R 9662   4.926   2.891   7.220  0.5028  0.0109  1.0581
   97SAPS  C210 9663   5.029   2.735   7.350  0.2627 -0.2353 -1.0197
   97SAPS  H10R 9664   5.139   2.732   7.334  0.7418  2.4342  1.0336
   97SAPS  H10S 9665   5.002   2.635   7.389  2.0733 -0.3923 -0.0362
   97SAPS  C211 9666   4.999   2.837   7.459 -0.5627 -0.3286 -0.9353
   97SAPS  H11R 9667   4.947   2.932   7.441 -1.8065 -0.6035  0.9092
   97SAPS  C212 9668   5.045   2.813   7.588 -0.1201  0.0674  0.6192
   97SAPS  H12R 9669   5.010   2.879   7.669  2.0682  3.1571 -0.7226
   97SAPS  C213 9670   5.114   2.685   7.632 -0.5171 -0.1761 -0.4958
   97SAPS  H13R 9671   5.142   2.625   7.543 -0.3463  0.3332 -0.7932
   97SAPS  H13S 9672   5.055   2.627   7.705  0.0702 -0.2132 -0.0391
   97SAPS  C214 9673   5.234   2.717   7.713  0.2195  0.2808 -0.6584
   97SAPS  H14R 9674   5.316   2.759   7.652 -0.3249 -0.2830 -1.8091
   97SAPS  C215 9675   5.261   2.697   7.844  0.3563  0.5378 -0.1726
   97SAPS  H15R 9676   5.365   2.701   7.877  0.9503 -1.5319 -1.5762
   97SAPS  C216 9677   5.164   2.628   7.941 -0.3724 -0.5577  0.5040
   97SAPS  H16R 9678   5.191   2.521   7.951  0.4871 -0.2993  1.0608
   97SAPS  H16S 9679   5.057   2.649   7.919  0.4917  2.0958 -1.7388
   97SAPS  C217 9680   5.189   2.689   8.077 -0.4788 -0.1622  0.3843
   97SAPS  H17R 9681   5.172   2.796   8.100 -1.1022 -0.1545 -0.0972
   97SAPS  H17S 9682   5.296   2.665   8.094  0.2469 -0.6865 -3.8493
   97SAPS  C218 9683   5.110   2.609   8.185 -0.1208  0.0956 -0.1652
   97SAPS  H18R 9684   5.119   2.502   8.155  1.9382 -0.5236  2.3294
   97SAPS  H18S 9685   5.001   2.630   8.184 -0.0327  0.7181  1.4950
   97SAPS  C219 9686   5.163   2.638   8.331  0.5593  0.2316  1.1450
   97SAPS  H19R 9687   5.121   2.737   8.359 -2.2424 -0.3499 -0.5745
   97SAPS  H19S 9688   5.273   2.623   8.334  0.3791 -1.4210  0.4861
   97SAPS  C220 9689   5.105   2.550   8.439  0.1255  0.2462  0.2445
   97SAPS  H20R 9690   5.118   2.443   8.411 -0.0703  0.6728 -1.6372
   97SAPS  H20S 9691   4.996   2.571   8.445  0.3761  1.1192  2.8918
   97SAPS  H20T 9692   5.146   2.576   8.538  2.1834 -0.9912 -0.2139
   97SAPS   C33 9693   5.028   3.113   6.788 -0.0272  0.3540 -0.0750
   97SAPS   H3X 9694   4.986   3.187   6.716 -1.6486  0.5890  1.0670
   97SAPS   H3Y 9695   5.122   3.089   6.735  1.5706 -0.7054  3.0255
   97SAPS   C34 9696   5.052   3.183   6.922 -0.5812  0.5006  0.6242
   97SAPS   H4X 9697   4.963   3.197   6.988  0.3074 -0.3826  2.0477
   97SAPS   H4Y 9698   5.099   3.283   6.908 -0.1798  0.3610  0.9704
   97SAPS   C35 9699   5.148   3.114   7.018 -0.7086 -0.2119 -0.3166
   97SAPS   H5X 9700   5.237   3.091   6.955 -0.4845  1.0495 -0.4802
   97SAPS   H5Y 9701   5.104   3.016   7.048 -3.4063  0.8077 -0.6788
   97SAPS   C36 9702   5.181   3.189   7.146 -0.1159 -1.0971  0.0567
   97SAPS   H6X 9703   5.191   3.299   7.134  0.5171 -1.3709 -2.8556
   97SAPS   H6Y 9704   5.282   3.155   7.176 -0.9221 -1.8769  1.9837
   97SAPS   C37 9705   5.090   3.151   7.269 -0.3051 -0.2007  0.6753
   97SAPS   H7X 9706   5.118   3.044   7.282  0.7486  0.3266  3.1838
   97SAPS   H7Y 9707   4.982   3.166   7.244  0.2885  0.4350 -1.8261
   97SAPS   C38 9708   5.140   3.222   7.394 -0.3226 -0.1972 -0.0444
   97SAPS   H8X 9709   5.106   3.328   7.381 -1.4266 -0.2953  1.6922
   97SAPS   H8Y 9710   5.250   3.221   7.403 -0.2733 -1.1924 -0.6811
   97SAPS   C39 9711   5.073   3.164   7.521  0.5496 -0.1027 -0.1521
   97SAPS   H9X 9712   5.129   3.070   7.543  2.9161  1.3066  0.2724
   97SAPS   H9Y 9713   4.966   3.136   7.515 -0.1641  2.2493  0.5744
   97SAPS  C310 9714   5.088   3.265   7.634  0.3913  0.0150  0.5455
   97SAPS  H10X 9715   5.021   3.352   7.622 -0.2822 -0.6440 -0.5937
   97SAPS  H10Y 9716   5.195   3.295   7.633  0.3821  0.0875 -1.6451
   97SAPS  C311 9717   5.055   3.204   7.772 -0.4389  0.3498  0.1217
   97SAPS  H11X 9718   5.112   3.109   7.773 -0.1760  0.5104  0.4000
   97SAPS  H11Y 9719   4.946   3.182   7.770 -0.3845  0.0720 -1.5929
   97SAPS  C312 9720   5.078   3.293   7.891 -0.7972 -0.1205  1.4357
   97SAPS  H12X 9721   5.015   3.384   7.880 -1.7854 -0.9955 -0.7170
   97SAPS  H12Y 9722   5.183   3.326   7.905 -0.3993 -1.1778  1.0425
   97SAPS  C313 9723   5.028   3.233   8.021  1.1513  0.1450  0.4267
   97SAPS  H13X 9724   5.092   3.146   8.047  0.4012 -0.2057  1.1231
   97SAPS  H13Y 9725   4.924   3.196   8.030  0.9733  0.8019  1.1921
   97SAPS  C314 9726   5.039   3.325   8.145  1.0036  0.3672  0.4525
   97SAPS  H14X 9727   4.963   3.400   8.116  0.3513 -0.4648 -0.0241
   97SAPS  H14Y 9728   5.144   3.361   8.143  1.4874 -0.7920  2.3203
   97SAPS  C315 9729   5.006   3.229   8.269  0.0899  0.0105 -0.0356
   97SAPS  H15X 9730   5.077   3.144   8.266 -1.1263 -1.0625  0.8169
   97SAPS  H15Y 9731   4.904   3.185   8.261 -0.3650  1.3170 -2.5861
   97SAPS  C316 9732   5.031   3.301   8.406 -0.4377 -0.3788  0.4011
   97SAPS  H16X 9733   4.946   3.364   8.440  0.4400  0.8760  0.3506
   97SAPS  H16Y 9734   5.123   3.360   8.388  0.7499 -2.0897  0.5995
   97SAPS  C317 9735   5.052   3.197   8.525  0.3666  0.0796  0.2309
   97SAPS  H17X 9736   5.141   3.131   8.513 -0.3169 -0.9878  0.8768
   97SAPS  H17Y 9737   4.961   3.134   8.531  0.4190  0.1595  2.4221
   97SAPS  C318 9738   5.056   3.257   8.665 -0.3056  0.4819 -0.0964
   97SAPS  H18X 9739   5.161   3.282   8.690  0.5353 -2.1861 -0.6378
   97SAPS  H18Y 9740   5.017   3.174   8.728 -0.5496 -1.0441 -2.1334
   97SAPS  H18Z 9741   4.989   3.345   8.669 -0.6986  0.1547  0.5780
   98SAPS     N 9742   3.686   2.318   6.128  0.9903 -0.7728 -0.5067
   98SAPS   HN1 9743   3.590   2.319   6.169  0.8268  0.0929 -0.8982
   98SAPS   HN2 9744   3.687   2.228   6.075 -1.9556 -0.6538 -0.9480
   98SAPS   HN3 9745   3.759   2.315   6.202 -1.0906  1.5702  1.8707
   98SAPS   C12 9746   3.711   2.434   6.037  0.2804 -0.6092 -0.9764
   98SAPS  H12A 9747   3.798   2.405   5.979  1.4108  0.9492 -0.1468
   98SAPS   C13 9748   3.593   2.462   5.946 -0.2360  0.0161 -0.4786
   98SAPS  O13A 9749   3.513   2.366   5.925 -0.4328 -0.1505 -0.6960
   98SAPS  O13B 9750   3.599   2.562   5.875 -0.3505 -0.0178  0.8809
   98SAPS   C11 9751   3.736   2.553   6.125  0.6052 -0.6239  0.6019
   98SAPS  H11A 9752   3.640   2.591   6.167  0.0419  0.6612 -1.7165
   98SAPS  H11B 9753   3.774   2.632   6.057 -0.2056 -1.1414 -0.4840
   98SAPS     P 9754   3.856   2.612   6.349 -0.0668 -0.0895 -0.0861
   98SAPS   O13 9755   3.827   2.517   6.462 -0.1721  0.1473  0.3621
   98SAPS   O14 9756   3.985   2.678   6.337  0.5325  0.5315  0.4142
   98SAPS   O12 9757   3.834   2.534   6.222 -0.0355  0.2670  0.3824
   98SAPS   O11 9758   3.750   2.724   6.339  0.1010  0.2409  0.1841
   98SAPS    C1 9759   3.705   2.793   6.456  0.0456 -0.3127 -0.5320
   98SAPS    HA 9760   3.768   2.794   6.547 -1.5719  3.3758  0.7546
   98SAPS    HB 9761   3.701   2.903   6.440  2.3771  0.1337  1.4038
   98SAPS    C2 9762   3.565   2.752   6.500  0.5238 -0.5519  0.6735
   98SAPS    HS 9763   3.570   2.645   6.530 -2.6292 -0.5790  1.4457
   98SAPS   O21 9764   3.484   2.777   6.391  0.1117 -0.5579 -0.0087
   98SAPS   C21 9765   3.353   2.736   6.397  0.6620 -0.1688  0.0375
   98SAPS   O22 9766   3.304   2.678   6.491  0.2614 -0.0468  0.3882
   98SAPS   C22 9767   3.284   2.797   6.275  0.5318  0.1655 -0.5181
   98SAPS   H2R 9768   3.278   2.905   6.301 -0.8267  0.0971 -0.4783
   98SAPS   H2S 9769   3.354   2.784   6.190 -1.1281  0.8007 -2.0595
   98SAPS    C3 9770   3.518   2.829   6.628 -0.6504 -0.6204 -0.6907
   98SAPS    HX 9771   3.412   2.817   6.657 -0.2676 -0.6841  0.7748
   98SAPS    HY 9772   3.527   2.932   6.587 -1.4105 -0.5910 -0.7969
   98SAPS   O31 9773   3.608   2.814   6.744  0.6233  0.0206  0.0960
   98SAPS   C31 9774   3.583   2.710   6.824 -0.1981 -0.2855 -0.1497
   98SAPS   O32 9775   3.491   2.633   6.806  0.5633 -0.2215 -0.4330
   98SAPS   C32 9776   3.692   2.694   6.925 -0.4735  0.1913 -0.3475
   98SAPS   H2X 9777   3.728   2.795   6.953 -0.8362  0.0158  0.8210
   98SAPS   H2Y 9778   3.765   2.626   6.875  0.1321 -0.9399  1.9285
   98SAPS   C23 9779   3.144   2.739   6.248 -0.0434  0.4760  0.1220
   98SAPS   H3R 9780   3.153   2.628   6.255 -2.2010  0.2681  0.2791
   98SAPS   H3S 9781   3.124   2.748   6.139  0.4048  1.1959  0.0978
   98SAPS   C24 9782   3.036   2.793   6.339  0.7957 -0.0191  0.3178
   98SAPS   H4R 9783   3.033   2.904   6.331 -0.4732  0.0714  1.5901
   98SAPS   H4S 9784   3.072   2.776   6.443 -1.8161  1.0594  1.5108
   98SAPS   C25 9785   2.895   2.738   6.310 -0.0180  0.5194 -0.0398
   98SAPS   H5R 9786   2.857   2.760   6.210  0.4772  1.4862 -0.0241
   98SAPS   C26 9787   2.823   2.663   6.395  0.3591 -0.1535 -0.4534
   98SAPS   H6R 9788   2.728   2.627   6.351  1.4298 -3.6596 -0.1955
   98SAPS   C27 9789   2.846   2.630   6.537 -0.9147  0.2538  0.8665
   98SAPS   H7R 9790   2.829   2.725   6.591  1.7578  0.8758  0.7833
   98SAPS   H7S 9791   2.953   2.606   6.556 -0.7474  1.0809  1.0222
   98SAPS   C28 9792   2.758   2.514   6.581  0.4882 -0.6939  0.4748
   98SAPS   H8R 9793   2.657   2.519   6.538  0.8576  0.1623 -0.3243
   98SAPS   C29 9794   2.785   2.429   6.684 -0.7115  0.2896 -0.1707
   98SAPS   H9R 9795   2.721   2.343   6.708  0.9456 -0.7274  0.7902
   98SAPS  C210 9796   2.915   2.432   6.763  0.1212  0.4162  0.0033
   98SAPS  H10R 9797   2.998   2.441   6.690 -0.2713  0.1061 -0.4823
   98SAPS  H10S 9798   2.935   2.332   6.807 -1.6754  0.1839  0.3660
   98SAPS  C211 9799   2.921   2.542   6.867  0.6715  0.5797 -0.0342
   98SAPS  H11R 9800   2.899   2.643   6.830 -2.5470  0.4421  1.2307
   98SAPS  C212 9801   2.969   2.529   6.991 -0.6767 -0.2330  0.3992
   98SAPS  H12R 9802   2.973   2.613   7.062  1.0455 -1.7656  2.2198
   98SAPS  C213 9803   3.029   2.405   7.056  0.4386 -0.1663 -0.1069
   98SAPS  H13R 9804   2.994   2.306   7.018  1.2070 -0.5990  0.2708
   98SAPS  H13S 9805   2.997   2.406   7.162 -0.6024  0.5077 -0.4100
   98SAPS  C214 9806   3.181   2.395   7.037  0.7155 -0.2849  0.4331
   98SAPS  H14R 9807   3.212   2.433   6.939  0.5675 -0.9467  0.1227
   98SAPS  C215 9808   3.265   2.327   7.117  0.1524 -0.8019 -0.2517
   98SAPS  H15R 9809   3.375   2.327   7.106  0.1843 -1.5547  0.0404
   98SAPS  C216 9810   3.221   2.260   7.237 -0.2661  0.9802 -1.2165
   98SAPS  H16R 9811   3.296   2.183   7.267 -1.6370  0.5710  1.5604
   98SAPS  H16S 9812   3.123   2.207   7.236  0.9882 -1.5068 -0.9080
   98SAPS  C217 9813   3.233   2.346   7.359 -0.1342  0.7525  0.1413
   98SAPS  H17R 9814   3.187   2.446   7.344 -4.9457 -1.0637  1.1913
   98SAPS  H17S 9815   3.338   2.357   7.393 -0.2143  0.2844  0.5547
   98SAPS  C218 9816   3.156   2.285   7.475  0.0113  0.3942 -0.1252
   98SAPS  H18R 9817   3.201   2.183   7.477 -0.1016  0.3592  1.0547
   98SAPS  H18S 9818   3.045   2.288   7.465  0.1591  0.2926 -2.4206
   98SAPS  C219 9819   3.216   2.345   7.598 -0.0709  0.5520 -1.1592
   98SAPS  H19R 9820   3.322   2.313   7.609 -0.0120  1.2427  0.6948
   98SAPS  H19S 9821   3.162   2.306   7.687 -1.2936 -0.1639 -2.1908
   98SAPS  C220 9822   3.197   2.495   7.612 -0.0951 -0.1416  0.7803
   98SAPS  H20R 9823   3.232   2.542   7.706 -0.1168  1.1758  0.1489
   98SAPS  H20S 9824   3.092   2.531   7.607  0.2565  0.7614 -1.4647
   98SAPS  H20T 9825   3.268   2.539   7.539  0.2957 -0.4401  0.9743
   98SAPS   C33 9826   3.631   2.617   7.050 -0.1752  0.5789 -0.4330
   98SAPS   H3X 9827   3.658   2.510   7.038 -0.1672  0.8830 -4.3353
   98SAPS   H3Y 9828   3.522   2.639   7.061 -0.6482 -1.9508  0.6154
   98SAPS   C34 9829   3.694   2.680   7.176 -0.1355 -0.5698  0.0537
   98SAPS   H4X 9830   3.669   2.788   7.181 -2.1589 -1.0452  1.9241
   98SAPS   H4Y 9831   3.805   2.666   7.179 -0.0815 -0.3703 -0.8441
   98SAPS   C35 9832   3.650   2.599   7.307  0.3807 -0.0370 -0.0552
   98SAPS   H5X 9833   3.716   2.513   7.330  0.2442 -0.5791 -1.6336
   98SAPS   H5Y 9834   3.546   2.567   7.283  0.8587 -0.5250 -1.5115
   98SAPS   C36 9835   3.646   2.688   7.434 -0.2965  0.0575 -0.4606
   98SAPS   H6X 9836   3.573   2.768   7.409  0.5183  1.3519  1.0690
   98SAPS   H6Y 9837   3.740   2.743   7.457 -0.5452 -0.1124  1.1036
   98SAPS   C37 9838   3.604   2.600   7.554  0.4800  0.2110 -0.3324
   98SAPS   H7X 9839   3.663   2.507   7.564 -0.2307 -0.2996 -0.7877
   98SAPS   H7Y 9840   3.499   2.582   7.524  0.9622 -0.7031 -1.5895
   98SAPS   C38 9841   3.606   2.662   7.690  0.0001 -0.5437 -0.0444
   98SAPS   H8X 9842   3.515   2.618   7.736  1.0406 -0.0697  2.6466
   98SAPS   H8Y 9843   3.600   2.772   7.702 -2.3303 -0.4368 -1.6661
   98SAPS   C39 9844   3.721   2.606   7.774  0.6157  0.2604 -0.6672
   98SAPS   H9X 9845   3.809   2.667   7.747 -0.4530  2.3976  0.4424
   98SAPS   H9Y 9846   3.733   2.496   7.764 -0.1213  0.0841  0.1639
   98SAPS  C310 9847   3.699   2.632   7.928 -0.3288 -0.1960  0.0124
   98SAPS  H10X 9848   3.591   2.607   7.937 -0.6231 -0.5170 -3.1381
   98SAPS  H10Y 9849   3.726   2.733   7.964 -0.0177 -0.6370  1.0604
   98SAPS  C311 9850   3.787   2.536   8.011  0.0353  0.4081 -0.6721
   98SAPS  H11X 9851   3.888   2.530   7.964  0.5030  1.1450  0.1992
   98SAPS  H11Y 9852   3.741   2.436   7.999  0.2821  0.0085  1.3941
   98SAPS  C312 9853   3.794   2.556   8.166  0.2867 -0.0768  0.9978
   98SAPS  H12X 9854   3.824   2.662   8.178 -0.2537  0.6719 -3.0060
   98SAPS  H12Y 9855   3.883   2.498   8.198  1.3142  0.4623 -0.7508
   98SAPS  C313 9856   3.675   2.523   8.262 -0.4924  0.2675 -0.1818
   98SAPS  H13X 9857   3.656   2.415   8.249 -1.1005  0.2934  0.4092
   98SAPS  H13Y 9858   3.590   2.581   8.219 -1.2388 -0.4820  0.2491
   98SAPS  C314 9859   3.705   2.559   8.408  0.0506  0.5219  0.3732
   98SAPS  H14X 9860   3.736   2.665   8.417  0.1205  0.4883  0.5238
   98SAPS  H14Y 9861   3.795   2.500   8.439 -0.9799 -1.2650  0.1113
   98SAPS  C315 9862   3.579   2.528   8.490  0.4616 -0.2625 -0.3277
   98SAPS  H15X 9863   3.549   2.428   8.452 -2.2851  0.7601 -1.0303
   98SAPS  H15Y 9864   3.499   2.600   8.463  1.0274  1.4487  2.2227
   98SAPS  C316 9865   3.597   2.508   8.640  0.5993 -0.8955  0.4534
   98SAPS  H16X 9866   3.682   2.438   8.654 -0.0082 -1.6000  0.6756
   98SAPS  H16Y 9867   3.511   2.456   8.687  0.0189 -0.4309 -0.0736
   98SAPS  C317 9868   3.633   2.642   8.713  0.5496  0.0826 -0.1080
   98SAPS  H17X 9869   3.540   2.702   8.711  0.5752  0.1121 -0.5477
   98SAPS  H17Y 9870   3.719   2.694   8.665  0.0208  1.3735  0.3003
   98SAPS  C318 9871   3.678   2.610   8.850 -0.2643  0.1382  0.0406
   98SAPS  H18X 9872   3.600   2.561   8.914 -1.4233  0.6223 -0.9583
   98SAPS  H18Y 9873   3.701   2.705   8.904  0.1283  0.5611 -0.8549
   98SAPS  H18Z 9874   3.775   2.558   8.847  1.2572  2.6651  1.7111
   99SAPS     N 9875   1.293   6.311   5.976 -0.0254  0.2216 -0.1344
   99SAPS   HN1 9876   1.254   6.350   6.065 -1.3740 -0.7506 -0.2700
   99SAPS   HN2 9877   1.243   6.353   5.895  0.6540 -0.6164 -1.0048
   99SAPS   HN3 9878   1.281   6.208   5.979 -0.1233  0.2394  0.1943
   99SAPS   C12 9879   1.440   6.332   5.953  0.1923 -0.3375  0.1685
   99SAPS  H12A 9880   1.489   6.269   6.027  1.0583 -0.4361 -0.4801
   99SAPS   C13 9881   1.507   6.299   5.818  0.2287  0.1524 -0.6104
   99SAPS  O13A 9882   1.450   6.236   5.724  0.0927 -0.6239  0.1112
   99SAPS  O13B 9883   1.634   6.318   5.814 -0.4099  0.4110 -0.3118
   99SAPS   C11 9884   1.472   6.491   5.990  0.5358  1.0711 -0.3966
   99SAPS  H11A 9885   1.415   6.545   5.911  0.3642  3.7129  1.4289
   99SAPS  H11B 9886   1.582   6.502   5.978  1.1453 -2.8803  0.0606
   99SAPS     P 9887   1.504   6.558   6.240  0.0280  0.3832 -0.1886
   99SAPS   O13 9888   1.638   6.611   6.205  0.6352 -0.0111  0.6087
   99SAPS   O14 9889   1.425   6.646   6.324 -0.4111 -0.7208  0.2979
   99SAPS   O12 9890   1.422   6.524   6.116  0.2275  0.1497  0.3076
   99SAPS   O11 9891   1.538   6.425   6.314 -0.3208 -0.5551 -0.1274
   99SAPS    C1 9892   1.447   6.335   6.369  0.5314 -0.3083 -0.1027
   99SAPS    HA 9893   1.357   6.327   6.305  0.1936  0.9283  0.1786
   99SAPS    HB 9894   1.491   6.233   6.362 -0.6148 -0.7759 -0.7640
   99SAPS    C2 9895   1.409   6.371   6.513 -0.0550  1.2438  0.5668
   99SAPS    HS 9896   1.345   6.461   6.499 -0.6373  0.6574 -0.6641
   99SAPS   O21 9897   1.518   6.413   6.599 -0.3560 -0.3275 -0.0204
   99SAPS   C21 9898   1.507   6.516   6.689 -0.3043  0.1717 -0.5206
   99SAPS   O22 9899   1.408   6.590   6.695  0.4585  0.0286 -0.6318
   99SAPS   C22 9900   1.624   6.513   6.783 -0.2422 -0.1463 -0.9670
   99SAPS   H2R 9901   1.659   6.408   6.796  0.7251  0.3867  1.0999
   99SAPS   H2S 9902   1.711   6.571   6.744 -0.8452  0.6742 -1.1178
   99SAPS    C3 9903   1.315   6.267   6.568 -0.2291 -0.1668 -0.1882
   99SAPS    HX 9904   1.378   6.177   6.582 -1.2543 -0.8787 -0.0096
   99SAPS    HY 9905   1.239   6.232   6.495  2.3103 -1.9218 -2.1470
   99SAPS   O31 9906   1.258   6.287   6.704 -0.5364  0.3571 -0.3245
   99SAPS   C31 9907   1.158   6.367   6.692 -0.9483  0.1179 -0.8041
   99SAPS   O32 9908   1.107   6.395   6.583 -0.3442  0.4317 -0.2524
   99SAPS   C32 9909   1.100   6.404   6.829 -0.3262  0.0186 -0.4090
   99SAPS   H2X 9910   1.004   6.350   6.838 -0.2026 -0.5018 -1.8114
   99SAPS   H2Y 9911   1.077   6.512   6.838 -1.9169 -0.4639  2.4652
   99SAPS   C23 9912   1.595   6.562   6.931 -0.0640 -0.5450  0.0789
   99SAPS   H3R 9913   1.537   6.479   6.978 -2.3380 -0.1885 -1.8932
   99SAPS   H3S 9914   1.526   6.649   6.925  0.8080  0.1909  0.5858
   99SAPS   C24 9915   1.720   6.613   7.004 -0.1736 -0.2999  0.3126
   99SAPS   H4R 9916   1.682   6.675   7.088  1.1951 -0.9481  1.4481
   99SAPS   H4S 9917   1.780   6.683   6.942  0.5741 -0.5017  0.7925
   99SAPS   C25 9918   1.807   6.504   7.050  0.1191  0.0504  0.0476
   99SAPS   H5R 9919   1.835   6.420   6.985 -1.2166 -0.8574  0.5906
   99SAPS   C26 9920   1.845   6.490   7.179 -0.1274  0.4616 -0.3761
   99SAPS   H6R 9921   1.918   6.410   7.202 -0.0436  0.9358  1.0898
   99SAPS   C27 9922   1.804   6.574   7.297 -0.0313  0.3892  0.9013
   99SAPS   H7R 9923   1.694   6.561   7.308 -0.4476  1.6683 -1.1909
   99SAPS   H7S 9924   1.810   6.684   7.286  0.7018  0.4561  1.7927
   99SAPS   C28 9925   1.871   6.534   7.423  1.0261  0.1092  0.0856
   99SAPS   H8R 9926   1.866   6.427   7.450  0.8260 -0.3525 -1.6776
   99SAPS   C29 9927   1.933   6.611   7.509 -0.0617 -0.0369 -0.0400
   99SAPS   H9R 9928   1.968   6.568   7.604 -0.7959 -1.5795 -0.4432
   99SAPS  C210 9929   1.935   6.760   7.496  0.1952 -0.0371 -0.0621
   99SAPS  H10R 9930   1.843   6.797   7.545  2.1165  0.1030  3.7794
   99SAPS  H10S 9931   1.942   6.782   7.387 -3.1833 -1.0012 -0.6044
   99SAPS  C211 9932   2.041   6.839   7.574  0.0618 -0.3509 -0.6567
   99SAPS  H11R 9933   2.121   6.887   7.517  0.4703 -0.4852 -0.2009
   99SAPS  C212 9934   2.062   6.840   7.709  0.8599 -0.1894  0.4313
   99SAPS  H12R 9935   2.133   6.910   7.756  0.0427  1.3655 -0.5705
   99SAPS  C213 9936   1.968   6.764   7.807 -0.0712 -0.4085 -0.2622
   99SAPS  H13R 9937   1.874   6.723   7.765  0.2879 -1.0577 -0.4555
   99SAPS  H13S 9938   1.930   6.844   7.874  2.7614  0.4510  0.4704
   99SAPS  C214 9939   2.037   6.658   7.885  0.4372  0.3161 -0.3926
   99SAPS  H14R 9940   2.084   6.580   7.823  0.2867  0.8039 -1.1267
   99SAPS  C215 9941   2.026   6.643   8.016 -0.3739 -0.0450 -0.0056
   99SAPS  H15R 9942   2.096   6.574   8.066  0.0435 -1.6560 -2.5832
   99SAPS  C216 9943   1.962   6.734   8.111 -0.2086  0.5141  0.2422
   99SAPS  H16R 9944   1.878   6.793   8.069 -1.2693 -0.4034  0.9933
   99SAPS  H16S 9945   2.044   6.800   8.148  1.2685 -0.6192 -0.8847
   99SAPS  C217 9946   1.901   6.666   8.235 -0.2019  0.2053 -0.6155
   99SAPS  H17R 9947   1.881   6.747   8.307  2.2242  0.3603 -0.0387
   99SAPS  H17S 9948   1.980   6.602   8.279 -1.2584 -1.0294 -0.4466
   99SAPS  C218 9949   1.766   6.590   8.214  0.3977 -0.6067 -0.0199
   99SAPS  H18R 9950   1.775   6.515   8.133 -1.2102 -0.7158 -0.1361
   99SAPS  H18S 9951   1.693   6.669   8.187  0.2351 -1.2580 -1.6084
   99SAPS  C219 9952   1.702   6.518   8.336 -0.3870  0.7979 -0.0770
   99SAPS  H19R 9953   1.706   6.593   8.419  2.8617  1.8063 -0.9778
   99SAPS  H19S 9954   1.764   6.430   8.362 -2.5873 -1.5755 -2.2947
   99SAPS  C220 9955   1.563   6.463   8.305  0.7229 -0.0655  0.6166
   99SAPS  H20R 9956   1.497   6.548   8.277  2.8340  1.4778  0.0475
   99SAPS  H20S 9957   1.530   6.411   8.397 -0.7474  1.4325  0.9844
   99SAPS  H20T 9958   1.562   6.392   8.219 -2.1716  0.5510  0.0143
   99SAPS   C33 9959   1.198   6.373   6.949 -0.7365 -0.3728  0.5040
   99SAPS   H3X 9960   1.300   6.392   6.911 -1.3810  1.1947 -0.5431
   99SAPS   H3Y 9961   1.186   6.269   6.986 -1.0758 -0.2005  0.8960
   99SAPS   C34 9962   1.185   6.477   7.068  0.0412  0.9137 -0.5190
   99SAPS   H4X 9963   1.079   6.492   7.096  0.0807  1.0881 -0.4579
   99SAPS   H4Y 9964   1.214   6.578   7.031 -1.2651  0.6933 -2.2364
   99SAPS   C35 9965   1.252   6.449   7.202  0.7751  0.1064 -0.6122
   99SAPS   H5X 9966   1.363   6.450   7.196  0.9278  2.1052  1.2724
   99SAPS   H5Y 9967   1.205   6.356   7.240 -0.6133  0.8966 -0.3258
   99SAPS   C36 9968   1.226   6.548   7.310 -0.3435 -0.5743 -0.2203
   99SAPS   H6X 9969   1.118   6.565   7.328 -0.0349  1.2687  0.0832
   99SAPS   H6Y 9970   1.278   6.641   7.278  1.0974 -0.7223  1.5268
   99SAPS   C37 9971   1.287   6.501   7.448 -0.5200 -0.1626 -0.4564
   99SAPS   H7X 9972   1.397   6.513   7.435 -0.3537 -1.8025 -0.7816
   99SAPS   H7Y 9973   1.258   6.395   7.463  0.4948 -0.3177  0.5629
   99SAPS   C38 9974   1.242   6.600   7.554 -0.7748  0.4901 -0.1115
   99SAPS   H8X 9975   1.131   6.602   7.548 -0.7322  1.9242 -0.8299
   99SAPS   H8Y 9976   1.268   6.704   7.525 -1.1664  1.0333  1.3988
   99SAPS   C39 9977   1.300   6.568   7.692  0.0980 -0.3944 -0.8878
   99SAPS   H9X 9978   1.411   6.561   7.688  0.3316  1.0567  1.3775
   99SAPS   H9Y 9979   1.267   6.466   7.723  1.9856 -0.2448  1.9627
   99SAPS  C310 9980   1.254   6.665   7.813  0.5650  0.1612 -0.1726
   99SAPS  H10X 9981   1.144   6.675   7.805  0.1937 -2.5503  0.3595
   99SAPS  H10Y 9982   1.306   6.763   7.818 -0.0877  0.5746 -1.2769
   99SAPS  C311 9983   1.276   6.609   7.956 -0.0905 -0.3627  0.2041
   99SAPS  H11X 9984   1.386   6.609   7.974  0.3831 -1.7744 -2.2751
   99SAPS  H11Y 9985   1.249   6.502   7.959  2.5768 -1.1214 -0.4644
   99SAPS  C312 9986   1.187   6.678   8.069 -0.0562  0.0895 -0.0670
   99SAPS  H12X 9987   1.164   6.597   8.142 -0.4104 -1.3127 -1.6926
   99SAPS  H12Y 9988   1.095   6.716   8.019 -0.0940  1.6907  1.1342
   99SAPS  C313 9989   1.264   6.793   8.135  1.0713  0.2978 -0.1993
   99SAPS  H13X 9990   1.297   6.871   8.063  1.4628  0.7176  0.4244
   99SAPS  H13Y 9991   1.363   6.749   8.160  1.4360  0.1549 -1.7503
   99SAPS  C314 9992   1.197   6.868   8.251 -0.2933 -0.1590  0.1665
   99SAPS  H14X 9993   1.120   6.933   8.205  1.0093  3.0545  2.1775
   99SAPS  H14Y 9994   1.273   6.937   8.293 -1.8441  0.8830  1.3492
   99SAPS  C315 9995   1.126   6.774   8.356  0.6311 -1.2959 -0.2699
   99SAPS  H15X 9996   1.068   6.691   8.313  1.1488 -2.7366  1.6615
   99SAPS  H15Y 9997   1.070   6.841   8.425  0.5911 -0.9669 -0.6177
   99SAPS  C316 9998   1.228   6.719   8.457  0.9160 -0.5191 -0.1751
   99SAPS  H16X 9999   1.307   6.794   8.481  3.2568 -2.5019 -1.2941
   99SAPS  H16Y10000   1.282   6.639   8.402 -1.6364 -1.7117 -1.1045
   99SAPS  C31710001   1.168   6.683   8.596  0.2122  1.0306 -0.1569
   99SAPS  H17X10002   1.091   6.758   8.623 -0.3845  0.6609 -0.8229
   99SAPS  H17Y10003   1.252   6.680   8.669 -0.8656  0.8249  1.1225
   99SAPS  C31810004   1.098   6.549   8.608 -0.5522 -0.3968  0.0679
   99SAPS  H18X10005   0.999   6.549   8.558  0.3372 -2.2761 -1.8094
   99SAPS  H18Y10006   1.072   6.523   8.713 -0.7839 -3.3918 -0.6674
   99SAPS  H18Z10007   1.154   6.458   8.577 -0.5999 -1.0810  1.8646
  100SAPS     N10008   1.919   2.141   6.166 -0.4098 -0.7405 -0.2123
  100SAPS   HN110009   1.916   2.160   6.064  0.3525 -0.6955 -0.2307
  100SAPS   HN210010   1.886   2.044   6.183  1.6883 -1.2217  1.4861
  100SAPS   HN310011   1.854   2.208   6.212  1.1897 -0.9559  2.5366
  100SAPS   C1210012   2.054   2.168   6.219  0.1089 -0.2081 -0.2681
  100SAPS  H12A10013   2.062   2.113   6.312  1.6128 -0.0773 -0.2951
  100SAPS   C1310014   2.176   2.117   6.136  0.0960  0.2756  0.0791
  100SAPS  O13A10015   2.152   2.056   6.028  0.7030 -0.0535 -0.4287
  100SAPS  O13B10016   2.286   2.121   6.188  0.0371  0.1937 -0.5434
  100SAPS   C1110017   2.069   2.322   6.235  0.3845 -0.2019  0.5394
  100SAPS  H11A10018   2.094   2.377   6.142 -0.8545 -1.5945 -0.6643
  100SAPS  H11B10019   2.154   2.343   6.303 -0.6392  2.1492  1.2047
  100SAPS     P10020   1.935   2.532   6.331 -0.2419  0.1476 -0.0453
  100SAPS   O1310021   2.064   2.597   6.291 -0.2897  0.1971  0.2767
  100SAPS   O1410022   1.804   2.582   6.270  0.6912  0.2595  0.2258
  100SAPS   O1210023   1.948   2.374   6.306 -0.1838 -0.4934  0.2969
  100SAPS   O1110024   1.932   2.536   6.493  0.5229 -0.0025  0.0512
  100SAPS    C110025   2.008   2.447   6.569 -0.4770 -0.7180 -0.3826
  100SAPS    HA10026   2.074   2.384   6.505  0.7056 -0.5389  0.6274
  100SAPS    HB10027   2.070   2.507   6.638 -2.0929  2.0800 -1.2043
  100SAPS    C210028   1.933   2.354   6.664  0.4109 -0.0994 -0.3259
  100SAPS    HS10029   1.848   2.311   6.607  2.3400 -0.9403 -2.7499
  100SAPS   O2110030   1.893   2.429   6.786  0.4120  0.0551 -0.6198
  100SAPS   C2110031   1.804   2.357   6.851 -0.2043 -0.0351  0.5651
  100SAPS   O2210032   1.746   2.258   6.802 -0.3252  0.2413  0.1906
  100SAPS   C2210033   1.802   2.401   6.996 -0.0176  0.2523  1.0090
  100SAPS   H2R10034   1.877   2.482   7.013  0.7920 -0.7067  2.2854
  100SAPS   H2S10035   1.699   2.435   7.020 -0.2207  1.0449 -0.8117
  100SAPS    C310036   2.026   2.238   6.711 -0.3831  0.1184 -0.0688
  100SAPS    HX10037   2.091   2.206   6.627  0.4695  1.4190  0.0803
  100SAPS    HY10038   1.966   2.149   6.741  0.4225 -0.3088  0.3105
  100SAPS   O3110039   2.102   2.272   6.831 -0.0787  0.6013 -0.3378
  100SAPS   C3110040   2.235   2.314   6.810  0.4777  0.1170  0.6204
  100SAPS   O3210041   2.280   2.339   6.696 -0.4234 -0.8546  0.5069
  100SAPS   C3210042   2.321   2.308   6.939  0.5329 -0.5416 -0.1459
  100SAPS   H2X10043   2.422   2.353   6.928 -0.4940  1.7717 -0.8217
  100SAPS   H2Y10044   2.348   2.203   6.962 -1.2613 -0.5934  2.0514
  100SAPS   C2310045   1.830   2.278   7.076 -0.1406 -0.1516 -0.9232
  100SAPS   H3R10046   1.911   2.216   7.032  0.9618  0.9213 -0.4677
  100SAPS   H3S10047   1.743   2.210   7.084  0.6331 -1.1817 -1.0393
  100SAPS   C2410048   1.888   2.316   7.216  0.3066 -0.1972 -0.5366
  100SAPS   H4R10049   1.976   2.382   7.203  0.1811  0.0653 -0.0688
  100SAPS   H4S10050   1.917   2.222   7.267 -1.8333 -0.1937  0.8275
  100SAPS   C2510051   1.789   2.389   7.308  0.2849 -0.4488 -0.3085
  100SAPS   H5R10052   1.710   2.444   7.256 -1.0690 -1.6832  0.3606
  100SAPS   C2610053   1.774   2.375   7.441  0.1406 -0.6296  0.0699
  100SAPS   H6R10054   1.688   2.418   7.494 -1.7710 -2.5966 -1.2439
  100SAPS   C2710055   1.875   2.295   7.532  0.2399 -1.0711  0.2348
  100SAPS   H7R10056   1.957   2.252   7.471  1.0639  2.3634 -1.2791
  100SAPS   H7S10057   1.816   2.213   7.579 -0.1681  0.3440  2.3209
  100SAPS   C2810058   1.936   2.390   7.632  0.3692 -0.0060  0.3688
  100SAPS   H8R10059   1.951   2.491   7.591  0.9751 -0.5714 -0.8317
  100SAPS   C2910060   1.967   2.357   7.760  0.3131  0.5969  0.3109
  100SAPS   H9R10061   1.993   2.432   7.836  1.4510  0.7818 -0.2456
  100SAPS  C21010062   1.958   2.224   7.828 -0.7929  0.3235 -0.3317
  100SAPS  H10R10063   1.956   2.150   7.746  1.8606 -0.8837  0.5950
  100SAPS  H10S10064   1.861   2.218   7.882  0.6682 -0.2552  2.4036
  100SAPS  C21110065   2.073   2.194   7.924  0.0955 -0.1862 -0.2450
  100SAPS  H11R10066   2.170   2.176   7.877  1.2768  0.7953  1.6875
  100SAPS  C21210067   2.070   2.199   8.063 -0.1771 -0.0650  0.1950
  100SAPS  H12R10068   2.163   2.175   8.117  0.1068  3.0641  1.3331
  100SAPS  C21310069   1.956   2.243   8.152 -0.1304 -0.0097 -0.1424
  100SAPS  H13R10070   1.936   2.176   8.238  1.1464  0.4147  0.5012
  100SAPS  H13S10071   1.856   2.253   8.104  0.9921  1.7291 -2.3079
  100SAPS  C21410072   1.974   2.388   8.195 -0.3241  0.2254 -0.9198
  100SAPS  H14R10073   1.967   2.463   8.114 -0.6396 -0.2618 -1.3463
  100SAPS  C21510074   1.990   2.437   8.326  0.0984  0.0570  0.1453
  100SAPS  H15R10075   1.993   2.546   8.335 -2.7741  0.0766  1.8659
  100SAPS  C21610076   1.998   2.361   8.460 -0.4131  1.2865  0.0343
  100SAPS  H16R10077   1.962   2.256   8.455 -1.4120  1.4539  2.4915
  100SAPS  H16S10078   1.945   2.425   8.534  0.3888  2.0332 -0.0151
  100SAPS  C21710079   2.147   2.345   8.497  0.3612 -0.1750 -1.3222
  100SAPS  H17R10080   2.204   2.438   8.514 -0.4495 -0.0427  1.0087
  100SAPS  H17S10081   2.187   2.276   8.419  1.1963  1.0612 -2.0196
  100SAPS  C21810082   2.171   2.269   8.629  0.2239 -0.5387  0.4026
  100SAPS  H18R10083   2.263   2.213   8.603 -0.5620 -2.1266  0.9305
  100SAPS  H18S10084   2.083   2.202   8.634 -0.4233  0.3791  2.1920
  100SAPS  C21910085   2.186   2.366   8.743 -0.4102 -0.1143  0.2071
  100SAPS  H19R10086   2.100   2.435   8.746 -1.0576 -0.7307 -2.0469
  100SAPS  H19S10087   2.285   2.412   8.721 -0.8236  0.2052 -1.1069
  100SAPS  C22010088   2.214   2.301   8.873  0.1400 -0.7317 -0.4074
  100SAPS  H20R10089   2.128   2.234   8.892  0.3340 -0.8164  0.2089
  100SAPS  H20S10090   2.207   2.383   8.949  0.9577 -1.2752  0.2723
  100SAPS  H20T10091   2.313   2.252   8.877 -0.7272 -2.5715 -0.5153
  100SAPS   C3310092   2.255   2.355   7.069 -0.4789 -0.2997 -0.3185
  100SAPS   H3X10093   2.163   2.295   7.080  0.1554 -1.1470  0.5750
  100SAPS   H3Y10094   2.222   2.460   7.052 -0.8437 -0.3883 -0.1596
  100SAPS   C3410095   2.341   2.353   7.197  0.1586 -0.0452  0.1928
  100SAPS   H4X10096   2.419   2.432   7.189 -0.0882  0.1264 -0.6760
  100SAPS   H4Y10097   2.382   2.250   7.189 -0.7695 -0.3964 -0.1593
  100SAPS   C3510098   2.262   2.384   7.322 -0.2674  0.4239 -0.3621
  100SAPS   H5X10099   2.183   2.309   7.343 -1.0629  1.6743  1.3878
  100SAPS   H5Y10100   2.194   2.468   7.297 -2.7817 -1.2843  0.3767
  100SAPS   C3610101   2.349   2.413   7.440  0.6844 -0.2496 -0.2191
  100SAPS   H6X10102   2.394   2.510   7.413  2.0878 -1.5475 -2.9485
  100SAPS   H6Y10103   2.427   2.334   7.445  1.9218  1.0075  1.0344
  100SAPS   C3710104   2.268   2.432   7.568 -0.8652 -0.0215 -0.1766
  100SAPS   H7X10105   2.209   2.339   7.588 -3.3326  0.8852 -2.6591
  100SAPS   H7Y10106   2.197   2.516   7.560  0.9717  1.7963  1.5033
  100SAPS   C3810107   2.370   2.455   7.683 -0.8930 -0.0858 -0.1920
  100SAPS   H8X10108   2.443   2.536   7.663 -0.7019 -0.2248 -0.0691
  100SAPS   H8Y10109   2.433   2.363   7.674  2.4295  2.0923 -1.0776
  100SAPS   C3910110   2.307   2.469   7.818 -0.3872 -0.5475 -0.4241
  100SAPS   H9X10111   2.246   2.377   7.831 -2.5164  0.8740  0.1545
  100SAPS   H9Y10112   2.238   2.556   7.817  1.1394  0.7553  1.4774
  100SAPS  C31010113   2.408   2.485   7.938 -0.7235  0.2994 -0.9229
  100SAPS  H10X10114   2.466   2.580   7.939 -2.3700  1.3743  1.1212
  100SAPS  H10Y10115   2.480   2.400   7.936 -1.8805 -0.7861  0.9404
  100SAPS  C31110116   2.340   2.477   8.079  0.0892  0.2169 -0.5983
  100SAPS  H11X10117   2.248   2.416   8.065  0.5945 -0.3957 -1.4024
  100SAPS  H11Y10118   2.301   2.576   8.109  1.1775  0.5231 -0.1246
  100SAPS  C31210119   2.423   2.414   8.193  0.7670  0.2184  0.7542
  100SAPS  H12X10120   2.473   2.324   8.151 -1.2414 -1.0805  1.0286
  100SAPS  H12Y10121   2.345   2.377   8.263 -2.1296  0.9092 -1.8821
  100SAPS  C31310122   2.517   2.513   8.257  0.5390 -0.2941  0.3523
  100SAPS  H13X10123   2.475   2.610   8.292  0.7742 -0.4357  1.0332
  100SAPS  H13Y10124   2.590   2.543   8.179 -0.3830 -0.8333 -0.7506
  100SAPS  C31410125   2.589   2.466   8.385 -0.1683  0.1259 -0.0506
  100SAPS  H14X10126   2.651   2.541   8.439  2.3912 -1.9330  0.0210
  100SAPS  H14Y10127   2.676   2.406   8.350 -1.4270 -1.1527 -1.1113
  100SAPS  C31510128   2.518   2.390   8.492  0.6575  0.1514  0.5130
  100SAPS  H15X10129   2.491   2.297   8.437 -2.0964  1.6425 -0.8620
  100SAPS  H15Y10130   2.432   2.458   8.512  1.1614  1.8294 -2.4588
  100SAPS  C31610131   2.597   2.340   8.603 -0.4337  0.2017 -0.2674
  100SAPS  H16X10132   2.685   2.289   8.558  0.1103  2.2330 -1.6259
  100SAPS  H16Y10133   2.534   2.272   8.665 -0.9234 -0.1618 -1.1501
  100SAPS  C31710134   2.663   2.445   8.695 -0.1694  0.0181 -0.2086
  100SAPS  H17X10135   2.724   2.519   8.640  0.4871  1.7612  2.6681
  100SAPS  H17Y10136   2.733   2.399   8.767  0.9830  0.2170 -1.1627
  100SAPS  C31810137   2.558   2.523   8.776 -0.1391 -0.5340 -0.1410
  100SAPS  H18X10138   2.489   2.463   8.840 -1.0238  0.1383 -0.4425
  100SAPS  H18Y10139   2.491   2.582   8.709  0.1180 -2.2495 -2.0246
  100SAPS  H18Z10140   2.608   2.594   8.845 -1.4759 -2.5254  3.1466
  101OSM      N10141   5.747   1.020  10.532  0.2722  0.3041 -0.3311
  101OSM    C1510142   5.644   1.127  10.540 -0.6145  0.1847  0.6315
  101OSM   H15A10143   5.671   1.203  10.468  1.6094 -0.0198  1.1625
  101OSM   H15B10144   5.647   1.183  10.632  1.8230  1.3877 -0.0923
  101OSM   H15C10145   5.547   1.089  10.515 -0.2702  0.8187 -1.9332
  101OSM    C1410146   5.748   0.963  10.398  0.4797  0.0611 -0.0818
  101OSM   H14A10147   5.647   0.942  10.365 -0.6216  3.8534  0.4670
  101OSM   H14B10148   5.813   0.878  10.384 -0.1665 -0.6166  0.9245
  101OSM   H14C10149   5.794   1.034  10.331  1.6505 -1.1122 -0.5753
  101OSM    C1310150   5.879   1.096  10.559  0.5085 -0.0591  0.8828
  101OSM   H13A10151   5.953   1.018  10.564  1.3735  0.7627  1.1284
  101OSM   H13B10152   5.896   1.135  10.658  0.1695 -1.3139  1.4578
  101OSM   H13C10153   5.890   1.175  10.486 -0.0610  1.1542  2.0692
  101OSM    C1210154   5.723   0.922  10.644  0.4576 -0.3726 -0.5166
  101OSM   H12A10155   5.629   0.869  10.635  0.5118 -0.6230  0.2921
  101OSM   H12B10156   5.719   0.988  10.730 -0.4340  0.7366 -1.3848
  101OSM    C1110157   5.825   0.807  10.675  0.0137 -0.3518 -0.2241
  101OSM   H11A10158   5.803   0.729  10.598 -1.2749 -0.9434  0.7029
  101OSM   H11B10159   5.787   0.763  10.770 -1.0948  0.4330 -0.2740
  101OSM      P10160   6.074   0.733  10.686  0.2218 -0.4149  0.3825
  101OSM    O1310161   6.159   0.754  10.806  0.1755 -0.1592  0.0316
  101OSM    O1410162   6.006   0.602  10.656  0.2711 -0.3633 -0.3088
  101OSM    O1110163   6.151   0.783  10.563 -0.3425 -0.2502 -0.4112
  101OSM    O1210164   5.960   0.848  10.688 -0.0831  0.0160  0.2901
  101OSM    C1S10165   6.090   0.814  10.436 -0.4231 -0.0547 -0.8532
  101OSM    H1S10166   6.018   0.898  10.441  0.7750  0.9484  2.4298
  101OSM    H1T10167   6.036   0.725  10.396  1.5897 -1.3978 -0.7364
  101OSM     NF10168   6.129   0.860  10.201  0.5304 -0.0036 -0.0102
  101OSM    HNF10169   6.123   0.786  10.135 -1.6440 -0.0473  0.1824
  101OSM    C2S10170   6.199   0.860  10.326 -0.8615  0.9988 -0.2105
  101OSM    H2S10171   6.246   0.960  10.339 -1.3739  1.3065 -0.6781
  101OSM    C3S10172   6.299   0.748  10.331  0.1933 -1.1239  0.0416
  101OSM    H3S10173   6.244   0.653  10.312 -0.7213 -0.5444 -0.3023
  101OSM     O310174   6.376   0.725  10.451 -0.2560 -0.0528 -0.9982
  101OSM    HO310175   6.336   0.775  10.523  1.0844 -1.2195  0.6207
  101OSM    C4S10176   6.396   0.764  10.212  0.3075  0.2388 -0.2865
  101OSM    H4S10177   6.375   0.694  10.130 -1.4511 -0.7646  0.9411
  101OSM    C5S10178   6.510   0.832  10.200 -0.1672  0.4764 -0.3974
  101OSM    H5S10179   6.541   0.886  10.290 -2.4339  1.4268 -0.1085
  101OSM    C6S10180   6.607   0.834  10.081  0.0132 -0.1460 -0.6541
  101OSM    H6S10181   6.707   0.795  10.112 -0.0537 -1.1113 -1.6267
  101OSM    H6T10182   6.612   0.940  10.047 -0.1451 -0.4147 -1.5175
  101OSM    C7S10183   6.557   0.760   9.956  1.0342  0.1239  0.1606
  101OSM    H7S10184   6.454   0.798   9.935  2.1886  2.0138 -2.8064
  101OSM    H7T10185   6.555   0.649   9.961 -1.6267  0.0236 -0.9773
  101OSM    C8S10186   6.635   0.786   9.836  0.4433 -0.1373  1.1652
  101OSM    H8S10187   6.742   0.775   9.864  0.2515  1.1695  2.5729
  101OSM    H8T10188   6.613   0.890   9.801 -0.1863 -1.0002 -1.1831
  101OSM    C9S10189   6.574   0.717   9.721  0.1598 -0.2036  0.3085
  101OSM    H9S10190   6.468   0.748   9.711  0.0578 -0.7724 -0.4473
  101OSM    H9T10191   6.567   0.607   9.739 -0.6005 -0.7073 -2.5850
  101OSM   C10S10192   6.632   0.742   9.579  0.4173 -0.1790 -0.5497
  101OSM   H10S10193   6.726   0.685   9.563 -0.8677 -2.3189 -0.9500
  101OSM   H10T10194   6.638   0.852   9.573 -1.1839 -0.0676 -0.5848
  101OSM   C11S10195   6.536   0.695   9.462 -0.6959  0.1104 -0.2824
  101OSM   H11S10196   6.429   0.694   9.491 -0.8819  1.1091 -0.8966
  101OSM   H11T10197   6.570   0.591   9.443 -0.5669  0.1613 -0.3313
  101OSM   C12S10198   6.563   0.765   9.332 -0.0452  0.1346  0.3857
  101OSM   H12S10199   6.672   0.755   9.313 -0.1291  0.9050 -0.5405
  101OSM   H12T10200   6.549   0.868   9.370  0.9185 -0.0700  1.3659
  101OSM   C13S10201   6.474   0.719   9.217 -0.5989 -0.2069 -0.0523
  101OSM   H13S10202   6.370   0.749   9.239 -0.8294  0.5162 -1.9040
  101OSM   H13T10203   6.479   0.609   9.204 -0.5175 -0.2008 -0.0742
  101OSM   C14S10204   6.512   0.781   9.082 -0.5285  0.1682  0.2543
  101OSM   H14S10205   6.618   0.759   9.057 -0.2058  1.6870  0.1744
  101OSM   H14T10206   6.504   0.892   9.078  0.6949  0.2429 -0.8809
  101OSM   C15S10207   6.418   0.720   8.974  0.1303 -0.2312 -0.0968
  101OSM   H15S10208   6.312   0.750   8.989  0.0117  1.4165 -3.2999
  101OSM   H15T10209   6.425   0.609   8.981  2.3954 -0.0844  1.0305
  101OSM   C16S10210   6.467   0.747   8.831  0.1074  0.1736 -0.0787
  101OSM   H16S10211   6.401   0.697   8.757  0.7991 -0.2906 -0.3973
  101OSM   H16T10212   6.569   0.703   8.821  1.3518  3.0309 -1.1152
  101OSM   C17S10213   6.475   0.889   8.790  1.0059  0.2385 -0.4890
  101OSM   H17S10214   6.542   0.938   8.864  2.1337 -1.6942 -0.1606
  101OSM   H17T10215   6.372   0.931   8.796  0.0072 -2.1672  0.5702
  101OSM   C18S10216   6.524   0.912   8.644  0.4411 -0.1846 -0.2934
  101OSM   H18S10217   6.508   1.019   8.620 -0.6979  0.2674  2.2018
  101OSM   H18T10218   6.456   0.847   8.584  1.5324 -1.2985 -0.3718
  101OSM   H18U10219   6.626   0.875   8.620  0.5275  1.5206 -2.9591
  101OSM    C1F10220   6.050   0.963  10.172  0.1778  0.2590  0.2085
  101OSM     OF10221   6.051   1.072  10.228 -0.4721  0.2208  0.2477
  101OSM    C2F10222   5.974   0.934  10.052 -0.2612 -0.3255  0.2405
  101OSM    H2F10223   5.921   0.837  10.058  1.0940 -1.0199  1.7732
  101OSM    H2G10224   6.045   0.929   9.966  0.3124  0.5207  0.6420
  101OSM    C3F10225   5.864   1.043  10.022 -0.2090  0.3154  0.3744
  101OSM    H3F10226   5.915   1.135   9.989  0.2283  0.4509  1.3804
  101OSM    H3G10227   5.812   1.053  10.120 -0.2734 -1.2650  0.5332
  101OSM    C4F10228   5.756   1.006   9.922  0.3750  0.3211  0.1803
  101OSM    H4F10229   5.694   1.098   9.913  1.2364  0.9188  0.2734
  101OSM    H4G10230   5.689   0.930   9.966  0.5715  1.1742  2.0276
  101OSM    C5F10231   5.808   0.982   9.776  0.2700 -0.0268 -0.2300
  101OSM    H5F10232   5.886   0.903   9.780  0.5859  0.2016 -1.4653
  101OSM    H5G10233   5.852   1.077   9.739  0.9619  0.8806  2.6531
  101OSM    C6F10234   5.690   0.957   9.686 -0.1343  0.0251  0.6395
  101OSM    H6F10235   5.623   1.043   9.704  0.4822  0.5170  0.6296
  101OSM    H6G10236   5.652   0.856   9.712  1.6507 -0.8399  0.0871
  101OSM    C7F10237   5.736   0.954   9.536 -0.4226  0.0214  0.0017
  101OSM    H7F10238   5.823   0.891   9.510 -0.9124  0.2097 -2.2625
  101OSM    H7G10239   5.777   1.056   9.524  0.9744 -0.1265  2.7896
  101OSM    C8F10240   5.609   0.928   9.454  0.7823 -0.5612 -0.4373
  101OSM    H8F10241   5.626   0.954   9.347  0.6598  0.7285 -0.1580
  101OSM    H8G10242   5.533   1.005   9.482 -0.6019 -2.0313 -0.0068
  101OSM    C9F10243   5.535   0.798   9.466 -0.2952  0.2477 -0.0075
  101OSM    H9F10244   5.483   0.766   9.557 -0.3631  0.8885  0.1832
  101OSM   C10F10245   5.539   0.713   9.360  0.6361  0.1631  0.3788
  101OSM   H10F10246   5.494   0.614   9.375 -0.2622  0.4853 -0.0919
  101OSM   C11F10247   5.599   0.728   9.219 -0.5172  0.6507 -0.6495
  101OSM   H11F10248   5.648   0.635   9.186 -1.0345  0.3357 -0.5449
  101OSM   H11G10249   5.666   0.816   9.208  0.6637  0.0325  1.1226
  101OSM   C12F10250   5.482   0.751   9.122  0.4058  0.3473  0.7026
  101OSM   H12F10251   5.414   0.827   9.166  0.2409 -0.5891  2.1457
  101OSM   H12G10252   5.433   0.652   9.107 -1.0647  0.7135  2.6013
  101OSM   C13F10253   5.528   0.810   8.982  0.3081  0.5328  0.1860
  101OSM   H13F10254   5.632   0.848   8.996  0.6405 -0.4688  0.5549
  101OSM   H13G10255   5.458   0.893   8.959  0.2021  0.4115  0.0700
  101OSM   C14F10256   5.534   0.723   8.860 -0.4453  0.8230 -0.1549
  101OSM   H14F10257   5.556   0.796   8.780 -0.8748  1.8344  0.6328
  101OSM   H14G10258   5.437   0.672   8.839  0.1149 -0.1651 -0.4004
  101OSM   C15F10259   5.657   0.625   8.859  0.8767  0.2260  0.1265
  101OSM   H15F10260   5.654   0.557   8.947  0.2080  0.6260  0.4301
  101OSM   H15G10261   5.755   0.677   8.861  1.2564 -0.4627  2.1380
  101OSM   C16F10262   5.639   0.538   8.733 -0.4678  0.0208 -0.0203
  101OSM   H16F10263   5.681   0.590   8.644  0.3162  0.0701  0.3691
  101OSM   H16G10264   5.532   0.507   8.732 -1.1861  2.2505  1.1367
  101OSM   C17F10265   5.727   0.411   8.746 -0.5350  0.5364 -0.0442
  101OSM   H17F10266   5.697   0.337   8.824  1.5349  0.6959  0.9864
  101OSM   H17G10267   5.829   0.440   8.780 -0.8798  0.6193  0.9421
  101OSM   C18F10268   5.742   0.330   8.614  0.4040  0.4003 -0.2840
  101OSM   H18F10269   5.650   0.269   8.599  0.8174 -0.4436  0.4958
  101OSM   H18G10270   5.821   0.252   8.614  1.0046  0.9496  1.6198
  101OSM   H18H10271   5.766   0.399   8.530  2.8316 -0.2375 -0.1877
  102OSM      N10272   6.750   1.926  11.229  0.4059  0.7992 -0.5873
  102OSM    C1510273   6.707   1.797  11.304  0.2053 -0.2220 -0.0044
  102OSM   H15A10274   6.606   1.772  11.277  0.0699  0.5329 -0.2210
  102OSM   H15B10275   6.698   1.816  11.409 -0.6280  0.1008 -0.1265
  102OSM   H15C10276   6.777   1.718  11.279 -0.1588 -0.6049  0.1794
  102OSM    C1410277   6.644   2.022  11.269  0.5459  0.3947 -0.5836
  102OSM   H14A10278   6.547   1.986  11.240  0.2849  0.8038 -0.2338
  102OSM   H14B10279   6.668   2.117  11.223  0.4171  0.3576 -0.7248
  102OSM   H14C10280   6.640   2.034  11.376  0.8030  0.3912 -0.5703
  102OSM    C1310281   6.879   1.971  11.281  0.2496  0.4860  0.2849
  102OSM   H13A10282   6.880   1.962  11.389 -1.5928  0.1062  0.3067
  102OSM   H13B10283   6.908   2.073  11.261  0.7206  0.5488  1.2233
  102OSM   H13C10284   6.951   1.903  11.238 -1.0046 -1.5852  1.3058
  102OSM    C1210285   6.769   1.912  11.082  0.6706 -0.1154  0.1729
  102OSM   H12A10286   6.834   1.827  11.065 -0.0001 -1.1405  2.3660
  102OSM   H12B10287   6.812   2.000  11.036 -1.6765  1.1972  0.3297
  102OSM    C1110288   6.640   1.881  10.996 -0.4157  0.2053 -0.9405
  102OSM   H11A10289   6.667   1.894  10.889 -0.4972  1.1763 -0.8485
  102OSM   H11B10290   6.562   1.956  11.021 -0.4343 -0.0862 -0.0826
  102OSM      P10291   6.653   1.629  10.959  0.2465 -0.3646 -0.3830
  102OSM    O1310292   6.803   1.646  10.975  0.0745 -0.0649  0.4170
  102OSM    O1410293   6.595   1.503  11.008  0.2634  0.0977  0.3334
  102OSM    O1110294   6.620   1.663  10.803 -0.4613  0.4079 -0.3462
  102OSM    O1210295   6.587   1.752  11.037  0.5416 -0.5261 -0.2204
  102OSM    C1S10296   6.483   1.690  10.765  0.2463 -0.0390  0.3462
  102OSM    H1S10297   6.447   1.778  10.823 -0.2349 -0.8975  1.3847
  102OSM    H1T10298   6.413   1.606  10.787 -0.1211  0.1999  0.1138
  102OSM     NF10299   6.350   1.752  10.557 -0.3731  0.0259  0.0424
  102OSM    HNF10300   6.316   1.695  10.482 -0.2009 -2.4472  1.7578
  102OSM    C2S10301   6.478   1.713  10.607  0.1601 -0.6321 -0.0050
  102OSM    H2S10302   6.548   1.799  10.595 -2.1317  1.5886  1.5125
  102OSM    C3S10303   6.539   1.592  10.525  0.7961  0.3478 -1.0640
  102OSM    H3S10304   6.472   1.505  10.539 -0.6491  1.7573  1.6229
  102OSM     O310305   6.663   1.545  10.578  0.2432 -0.5722  0.2560
  102OSM    HO310306   6.677   1.598  10.656 -2.8925  1.9185 -0.6478
  102OSM    C4S10307   6.557   1.619  10.372 -0.0485  0.8253  0.0049
  102OSM    H4S10308   6.474   1.580  10.310 -1.8340  3.0640  0.8721
  102OSM    C5S10309   6.657   1.680  10.314 -0.0013  0.3468 -0.2390
  102OSM    H5S10310   6.743   1.724  10.367  0.1844  1.5870 -1.4940
  102OSM    C6S10311   6.667   1.693  10.162 -0.6502 -0.1297 -0.3912
  102OSM    H6S10312   6.771   1.671  10.129 -0.7453 -2.3047  0.5880
  102OSM    H6T10313   6.646   1.797  10.129 -0.9855  0.1061  0.5516
  102OSM    C7S10314   6.582   1.592  10.074  0.0052  0.3837 -0.5997
  102OSM    H7S10315   6.474   1.596  10.100 -0.5057 -2.9861 -1.7766
  102OSM    H7T10316   6.623   1.490  10.085 -2.0541 -0.4150  0.0300
  102OSM    C8S10317   6.591   1.630   9.928 -0.5978  0.3704  0.2775
  102OSM    H8S10318   6.697   1.625   9.894 -0.7278 -0.7006 -0.0009
  102OSM    H8T10319   6.543   1.730   9.921 -0.6367  0.3255 -0.1179
  102OSM    C9S10320   6.506   1.545   9.833 -0.3695  0.3704 -0.4691
  102OSM    H9S10321   6.400   1.547   9.865  0.4212  0.2202  2.4335
  102OSM    H9T10322   6.539   1.441   9.857  0.6051  0.5094 -1.1368
  102OSM   C10S10323   6.527   1.580   9.682 -0.4034  0.3082  0.8088
  102OSM   H10S10324   6.637   1.587   9.668 -0.2693  1.2284  2.0936
  102OSM   H10T10325   6.475   1.677   9.668 -1.3838 -0.0802  1.6032
  102OSM   C11S10326   6.481   1.483   9.583  0.7927  0.0577 -1.0586
  102OSM   H11S10327   6.371   1.478   9.593  0.8053  1.3503 -0.0768
  102OSM   H11T10328   6.533   1.390   9.614  0.7020 -0.2689 -1.8623
  102OSM   C12S10329   6.500   1.513   9.436  0.0565  0.8376  0.2124
  102OSM   H12S10330   6.594   1.465   9.402 -0.8645 -1.5113  0.7780
  102OSM   H12T10331   6.497   1.616   9.394  0.0529 -0.3071 -2.7812
  102OSM   C13S10332   6.391   1.439   9.361  0.6499 -0.5587 -0.0643
  102OSM   H13S10333   6.286   1.474   9.377  0.6833 -0.3546 -0.2970
  102OSM   H13T10334   6.389   1.331   9.387 -1.7407 -0.4795  0.3829
  102OSM   C14S10335   6.417   1.448   9.212  0.1617  0.4910  0.2984
  102OSM   H14S10336   6.519   1.416   9.184 -0.5037  0.8807 -2.9568
  102OSM   H14T10337   6.424   1.559   9.200 -0.3851  0.3650 -1.4683
  102OSM   C15S10338   6.310   1.388   9.117 -0.2049  0.1502 -1.0163
  102OSM   H15S10339   6.208   1.407   9.156 -0.1381 -0.1193 -0.6969
  102OSM   H15T10340   6.328   1.279   9.106  1.0331  0.0597  1.3248
  102OSM   C16S10341   6.320   1.448   8.973 -0.3637  0.0827 -0.3747
  102OSM   H16S10342   6.332   1.558   8.976 -0.0140  0.0331  1.4251
  102OSM   H16T10343   6.235   1.424   8.906 -1.3974  0.1413  0.8709
  102OSM   C17S10344   6.442   1.391   8.908 -0.7748  0.1956  0.3246
  102OSM   H17S10345   6.454   1.282   8.926 -2.6897  0.2692  2.5550
  102OSM   H17T10346   6.535   1.433   8.950  0.4900 -0.2729 -1.8457
  102OSM   C18S10347   6.454   1.406   8.755  0.1971  0.0117 -0.1178
  102OSM   H18S10348   6.467   1.516   8.746 -2.7729  0.2808 -2.9416
  102OSM   H18T10349   6.364   1.377   8.697  0.9281 -1.1508 -0.7027
  102OSM   H18U10350   6.545   1.361   8.711  0.3888 -1.1723  1.4111
  102OSM    C1F10351   6.286   1.855  10.604 -0.3712 -0.2688 -0.1180
  102OSM     OF10352   6.337   1.924  10.689 -0.4663  0.3365 -0.3725
  102OSM    C2F10353   6.157   1.885  10.551 -0.1626 -0.3717  0.0483
  102OSM    H2F10354   6.097   1.919  10.638  0.4652  2.6024 -0.5485
  102OSM    H2G10355   6.110   1.801  10.495 -0.1689 -1.0259  1.0094
  102OSM    C3F10356   6.165   2.004  10.448 -0.1723  0.3648  0.3233
  102OSM    H3F10357   6.237   2.082  10.480 -0.2779  1.0781 -1.1200
  102OSM    H3G10358   6.066   2.053  10.453 -0.5052 -0.3613  1.0698
  102OSM    C4F10359   6.201   1.972  10.307 -0.3998  0.2918  0.6553
  102OSM    H4F10360   6.140   1.888  10.268  1.2202  0.2174 -1.9568
  102OSM    H4G10361   6.305   1.934  10.317  0.2964  2.2532  1.2748
  102OSM    C5F10362   6.215   2.075  10.208 -0.6856  0.6454  1.0259
  102OSM    H5F10363   6.291   2.148  10.242  0.3377  0.6868 -1.1894
  102OSM    H5G10364   6.124   2.140  10.211 -0.7610  0.6150 -0.2816
  102OSM    C6F10365   6.240   2.024  10.063 -0.8314  0.3370 -0.1990
  102OSM    H6F10366   6.153   1.967  10.024 -1.1615  0.2235  0.6643
  102OSM    H6G10367   6.325   1.953  10.072 -1.0982  0.2249  1.9706
  102OSM    C7F10368   6.283   2.132   9.957  0.3726  0.0009  0.0265
  102OSM    H7F10369   6.393   2.139   9.968  0.5335  0.5184 -1.6143
  102OSM    H7G10370   6.249   2.231   9.996 -0.5435 -1.0503  2.0536
  102OSM    C8F10371   6.229   2.112   9.806 -0.6125  0.4507 -0.2471
  102OSM    H8F10372   6.236   2.211   9.755 -1.6388  0.7967  0.2539
  102OSM    H8G10373   6.121   2.085   9.807 -0.6567  0.6068  1.3750
  102OSM    C9F10374   6.313   2.003   9.734 -0.1039 -0.1910 -0.1049
  102OSM    H9F10375   6.419   2.000   9.763 -0.3940  0.0335  1.0340
  102OSM   C10F10376   6.272   1.911   9.641 -0.0146 -1.2087  0.3511
  102OSM   H10F10377   6.343   1.843   9.593  0.5639 -1.3884  1.4184
  102OSM   C11F10378   6.131   1.909   9.588  0.1086  0.4032 -0.2432
  102OSM   H11F10379   6.098   2.011   9.560 -0.2337  1.2188  2.7870
  102OSM   H11G10380   6.063   1.864   9.664  1.0029  0.6681  0.7350
  102OSM   C12F10381   6.103   1.818   9.464  0.0680 -0.1245 -0.5935
  102OSM   H12F10382   6.129   1.712   9.485 -1.1965 -1.0981 -3.4287
  102OSM   H12G10383   6.169   1.847   9.379 -1.0160 -0.4646 -1.5704
  102OSM   C13F10384   5.955   1.842   9.417 -0.2314 -0.3619 -0.1803
  102OSM   H13F10385   5.933   1.934   9.360 -0.7188 -1.4133 -1.7522
  102OSM   H13G10386   5.881   1.856   9.499 -1.5403  0.8608 -1.5182
  102OSM   C14F10387   5.919   1.732   9.321 -0.3882 -0.6159 -0.3060
  102OSM   H14F10388   5.812   1.707   9.330 -0.1278 -1.1537  2.1729
  102OSM   H14G10389   5.973   1.640   9.349  0.1128 -1.0627 -2.5738
  102OSM   C15F10390   5.960   1.775   9.177  0.1105 -0.3866 -0.4827
  102OSM   H15F10391   6.069   1.793   9.188 -0.4381  1.8990  2.4770
  102OSM   H15G10392   5.912   1.871   9.147  0.3908  0.1644  0.7683
  102OSM   C16F10393   5.951   1.664   9.072 -0.0787 -0.0581 -0.1236
  102OSM   H16F10394   5.842   1.648   9.056  0.2139 -1.7723 -0.5772
  102OSM   H16G10395   5.987   1.566   9.109 -0.1791  0.1709  0.6022
  102OSM   C17F10396   6.013   1.689   8.935 -0.1786 -0.3630 -0.4387
  102OSM   H17F10397   6.005   1.611   8.856  2.0151  0.0836 -1.1680
  102OSM   H17G10398   6.123   1.699   8.938 -0.2562  0.4407  0.0410
  102OSM   C18F10399   5.948   1.813   8.878 -0.1745  0.8349  0.7012
  102OSM   H18F10400   5.967   1.835   8.771  0.7283  0.8040  0.8465
  102OSM   H18G10401   5.976   1.905   8.934 -2.7847  0.5665  2.6092
  102OSM   H18H10402   5.841   1.792   8.896 -0.2486 -0.4037 -0.9452
  103OSM      N10403   0.572   1.757  10.838  0.4140 -0.2287 -0.0050
  103OSM    C1510404   0.513   1.694  10.961  0.2589 -0.1157 -0.2335
  103OSM   H15A10405   0.445   1.760  11.011  0.3932  1.2910 -1.8422
  103OSM   H15B10406   0.590   1.657  11.028  0.7691  0.6258 -0.3999
  103OSM   H15C10407   0.463   1.602  10.935 -0.4675  0.1657  0.1396
  103OSM    C1410408   0.636   1.655  10.751 -0.2206  0.5825 -0.2626
  103OSM   H14A10409   0.692   1.714  10.679  1.1866  3.3526  2.8430
  103OSM   H14B10410   0.557   1.598  10.706  0.0482  0.1595 -0.1980
  103OSM   H14C10411   0.699   1.587  10.806 -2.0464  0.2831  1.5524
  103OSM    C1310412   0.451   1.822  10.767 -0.0779 -0.2915 -0.0236
  103OSM   H13A10413   0.390   1.892  10.822 -0.2592  0.3432 -1.0082
  103OSM   H13B10414   0.385   1.743  10.733  0.9729 -1.6103  0.8643
  103OSM   H13C10415   0.477   1.863  10.670  0.8833 -1.9752 -0.5387
  103OSM    C1210416   0.670   1.869  10.882 -0.8845 -0.1567  0.3225
  103OSM   H12A10417   0.706   1.935  10.805  2.4211  0.4403  2.1880
  103OSM   H12B10418   0.757   1.819  10.921 -1.1167  0.1376  1.2452
  103OSM    C1110419   0.632   1.966  11.001  0.2733  0.2864  1.3066
  103OSM   H11A10420   0.720   2.015  11.048 -0.6894  1.0737  2.3375
  103OSM   H11B10421   0.576   1.908  11.078  0.0312 -2.0653 -0.5444
  103OSM      P10422   0.589   2.192  10.882  0.0440 -0.0313 -0.0759
  103OSM    O1310423   0.484   2.277  10.832  0.6921  0.1051  0.1236
  103OSM    O1410424   0.675   2.264  10.973  0.2847 -0.6813 -0.1565
  103OSM    O1110425   0.683   2.140  10.769 -0.1721  0.3730 -0.1814
  103OSM    O1210426   0.538   2.058  10.948  0.0642  0.2743 -0.0423
  103OSM    C1S10427   0.644   2.150  10.631 -0.8341  0.0685 -0.4185
  103OSM    H1S10428   0.540   2.187  10.614 -1.7335 -1.5143  1.2341
  103OSM    H1T10429   0.650   2.048  10.586  1.4440 -0.2790  0.5369
  103OSM     NF10430   0.683   2.257  10.410 -0.7008 -0.0992 -0.1081
  103OSM    HNF10431   0.735   2.220  10.333  0.0696  1.3488 -0.3303
  103OSM    C2S10432   0.728   2.253  10.548  0.0820  0.1854  0.1730
  103OSM    H2S10433   0.716   2.350  10.602  1.5196  0.2676  0.3854
  103OSM    C3S10434   0.878   2.223  10.571  0.0049  0.1326  0.1747
  103OSM    H3S10435   0.895   2.120  10.532 -2.4750 -1.4524  2.8993
  103OSM     O310436   0.922   2.215  10.708  0.0484  0.2921 -0.0336
  103OSM    HO310437   0.846   2.236  10.763 -1.3966  2.3597 -2.6234
  103OSM    C4S10438   0.958   2.314  10.483 -0.5034 -0.0422  0.1126
  103OSM    H4S10439   0.988   2.267  10.388  1.8002 -0.0437  0.7903
  103OSM    C5S10440   1.007   2.433  10.502 -0.3892 -0.1170  0.0469
  103OSM    H5S10441   0.984   2.492  10.592 -0.5918  0.3817 -0.3275
  103OSM    C6S10442   1.088   2.498  10.399 -0.2412 -0.2976 -0.3934
  103OSM    H6S10443   1.143   2.580  10.450 -0.5426 -0.3066 -0.0500
  103OSM    H6T10444   1.028   2.552  10.322 -1.3610 -3.1831 -1.7036
  103OSM    C7S10445   1.187   2.402  10.314  0.4688 -0.7242 -0.1086
  103OSM    H7S10446   1.116   2.349  10.247 -3.0275 -0.7120  3.2204
  103OSM    H7T10447   1.233   2.320  10.373  0.8050  0.3248  1.1074
  103OSM    C8S10448   1.298   2.481  10.235  0.3366 -0.0537  0.2110
  103OSM    H8S10449   1.365   2.402  10.195 -0.7207 -1.6651  1.4782
  103OSM    H8T10450   1.358   2.540  10.308 -2.4387  0.2730  2.4207
  103OSM    C9S10451   1.240   2.565  10.120 -0.4480 -0.2771 -0.5276
  103OSM    H9S10452   1.214   2.664  10.163  1.4213  1.6009 -3.3433
  103OSM    H9T10453   1.148   2.522  10.076  1.0839 -2.9435 -1.3350
  103OSM   C10S10454   1.351   2.581  10.019  0.5937 -0.5587  0.2649
  103OSM   H10S10455   1.403   2.487   9.990  0.1619 -0.3511 -1.2632
  103OSM   H10T10456   1.434   2.639  10.065  0.0314  0.3887  0.0950
  103OSM   C11S10457   1.302   2.650   9.885  0.1741 -0.5715  0.4860
  103OSM   H11S10458   1.291   2.759   9.902  0.7482 -0.3428 -0.5382
  103OSM   H11T10459   1.210   2.603   9.844  0.0329 -0.8089  1.0555
  103OSM   C12S10460   1.406   2.631   9.776  0.1952 -0.4944  0.6063
  103OSM   H12S10461   1.411   2.521   9.761 -0.0015 -0.3977 -0.2020
  103OSM   H12T10462   1.506   2.671   9.805  0.6774 -1.3583  0.1632
  103OSM   C13S10463   1.359   2.710   9.648  0.2930 -0.0943  0.1332
  103OSM   H13S10464   1.360   2.819   9.669 -0.7648  0.3146 -1.7665
  103OSM   H13T10465   1.259   2.677   9.614  0.9437 -0.2708 -1.6847
  103OSM   C14S10466   1.456   2.702   9.525 -0.4006 -0.2070  0.1678
  103OSM   H14S10467   1.470   2.593   9.518 -2.0549 -0.6166  2.0727
  103OSM   H14T10468   1.551   2.752   9.555 -1.2750  2.7861 -1.5949
  103OSM   C15S10469   1.383   2.740   9.395  0.1463 -0.2237  0.1572
  103OSM   H15S10470   1.332   2.835   9.423  1.4690 -0.0127  2.0629
  103OSM   H15T10471   1.295   2.677   9.374 -1.3211  1.9502 -0.5928
  103OSM   C16S10472   1.471   2.758   9.276  0.4203  0.7933 -0.7574
  103OSM   H16S10473   1.536   2.674   9.245 -0.7739 -0.4717  0.0346
  103OSM   H16T10474   1.544   2.834   9.311 -0.4873  1.4128 -0.1504
  103OSM   C17S10475   1.403   2.823   9.162  0.6660  0.3313 -0.1787
  103OSM   H17S10476   1.473   2.877   9.094 -0.2340  0.1241 -1.3138
  103OSM   H17T10477   1.331   2.899   9.199  1.4170  1.0169 -0.0904
  103OSM   C18S10478   1.337   2.720   9.066 -0.1617  0.2476 -0.0879
  103OSM   H18S10479   1.421   2.683   9.003  0.5353  1.0739  0.3382
  103OSM   H18T10480   1.244   2.762   9.022 -1.2892  1.6169  3.2844
  103OSM   H18U10481   1.305   2.629   9.122 -2.2053  1.0888  0.1851
  103OSM    C1F10482   0.568   2.310  10.379  1.1663  0.0868  0.1244
  103OSM     OF10483   0.491   2.359  10.460  0.4831 -0.8713  0.1318
  103OSM    C2F10484   0.533   2.309  10.233 -0.0386  0.5426 -0.5002
  103OSM    H2F10485   0.561   2.209  10.195  1.6578  1.1799 -1.0471
  103OSM    H2G10486   0.600   2.381  10.180  1.5143 -0.1546  0.4514
  103OSM    C3F10487   0.388   2.346  10.196 -0.0699 -0.5433 -0.3250
  103OSM    H3F10488   0.374   2.448  10.239  1.3919  0.5886 -2.3751
  103OSM    H3G10489   0.314   2.281  10.247 -0.7135  0.5942  0.2386
  103OSM    C4F10490   0.356   2.359  10.043  0.2743  0.1321  0.2783
  103OSM    H4F10491   0.371   2.258  10.000 -0.4625  1.2151 -2.7384
  103OSM    H4G10492   0.423   2.435   9.998 -1.0455  1.2188  0.0741
  103OSM    C5F10493   0.208   2.395  10.021 -0.8590 -0.2842 -0.1725
  103OSM    H5F10494   0.187   2.498  10.055  0.7040 -0.6971  2.3311
  103OSM    H5G10495   0.125   2.348  10.078 -0.4827 -1.0337 -0.2192
  103OSM    C6F10496   0.166   2.395   9.873  0.4475  0.2286 -0.1460
  103OSM    H6F10497   0.055   2.410   9.871 -0.0120 -2.6462 -0.3063
  103OSM    H6G10498   0.183   2.297   9.823 -1.1218 -0.0361 -0.2355
  103OSM    C7F10499   0.223   2.503   9.783  0.0765  0.5267  0.5219
  103OSM    H7F10500   0.334   2.500   9.782  0.1139  1.0155  1.4481
  103OSM    H7G10501   0.203   2.607   9.818 -1.6038  1.3600 -2.5428
  103OSM    C8F10502   0.162   2.490   9.638 -0.0792  0.4403  0.1441
  103OSM    H8F10503   0.052   2.488   9.623 -0.2830 -1.6272  1.3945
  103OSM    H8G10504   0.191   2.383   9.622 -0.0643  0.3464  0.7412
  103OSM    C9F10505   0.214   2.586   9.540 -0.0210 -0.0885 -0.2966
  103OSM    H9F10506   0.162   2.681   9.557  0.0851  0.3146 -2.0158
  103OSM   C10F10507   0.311   2.569   9.446 -0.2354  0.0555  0.1604
  103OSM   H10F10508   0.345   2.655   9.387 -1.1262  0.8159  0.7248
  103OSM   C11F10509   0.384   2.446   9.410 -0.5052  0.6600  0.6279
  103OSM   H11F10510   0.328   2.353   9.433  0.6234 -0.3261 -0.4392
  103OSM   H11G10511   0.481   2.452   9.463 -1.2275  1.8143  1.8876
  103OSM   C12F10512   0.429   2.449   9.260 -0.1017  0.1689 -0.6777
  103OSM   H12F10513   0.506   2.371   9.242  0.3679  0.1193  1.2860
  103OSM   H12G10514   0.473   2.547   9.232  0.1639  0.8662  1.8964
  103OSM   C13F10515   0.314   2.408   9.167  0.2816 -0.2923  0.2348
  103OSM   H13F10516   0.276   2.306   9.186  0.6565 -0.4679  0.0626
  103OSM   H13G10517   0.235   2.486   9.174  0.4389 -0.3125  3.3436
  103OSM   C14F10518   0.362   2.421   9.013 -0.2195 -0.1307 -0.5228
  103OSM   H14F10519   0.465   2.382   8.996  0.9890  3.6200 -3.2794
  103OSM   H14G10520   0.366   2.532   9.005  0.2889  0.0824  1.9596
  103OSM   C15F10521   0.272   2.356   8.902 -0.4753  0.7673 -0.3118
  103OSM   H15F10522   0.167   2.368   8.934 -1.1072 -2.7928 -0.6599
  103OSM   H15G10523   0.295   2.248   8.911  0.9289  1.0081 -0.7324
  103OSM   C16F10524   0.296   2.391   8.760  0.3813  0.1377  0.0732
  103OSM   H16F10525   0.227   2.330   8.698  0.2236  0.9123 -0.5319
  103OSM   H16G10526   0.397   2.353   8.736 -0.5702 -1.9745 -0.8541
  103OSM   C17F10527   0.273   2.536   8.734 -0.0765 -0.9882  0.1303
  103OSM   H17F10528   0.363   2.585   8.777  1.3272 -4.0772  1.0087
  103OSM   H17G10529   0.180   2.570   8.786  0.1730 -1.0105  0.6023
  103OSM   C18F10530   0.262   2.572   8.586 -0.4401 -0.0666 -0.0294
  103OSM   H18F10531   0.168   2.529   8.546  1.1967 -0.4516 -3.9878
  103OSM   H18G10532   0.349   2.526   8.533 -0.8005 -1.6956  0.7212
  103OSM   H18H10533   0.266   2.682   8.571  0.8515 -0.3166 -1.8544
  104OSM      N10534   4.178   3.708  10.974 -0.2482  0.8032  0.2237
  104OSM    C1510535   4.257   3.698  11.104 -0.1096 -0.4029 -0.2901
  104OSM   H15A10536   4.339   3.767  11.116 -1.6689  1.3133  1.0179
  104OSM   H15B10537   4.288   3.595  11.117  1.2323  0.1795  1.5425
  104OSM   H15C10538   4.192   3.716  11.189  1.0530 -1.0940  0.7975
  104OSM    C1410539   4.272   3.678  10.860 -0.6815 -0.5573 -0.4762
  104OSM   H14A10540   4.226   3.687  10.763  0.0112  0.8267 -0.6988
  104OSM   H14B10541   4.326   3.587  10.877  0.5084  0.4450  1.4279
  104OSM   H14C10542   4.360   3.739  10.845 -0.6486 -0.7599 -1.1233
  104OSM    C1310543   4.066   3.611  10.974  0.5264  0.3976  0.4842
  104OSM   H13A10544   4.117   3.517  10.961  1.0847  0.7334  0.1731
  104OSM   H13B10545   3.998   3.627  10.892  1.1015  1.9115  0.2611
  104OSM   H13C10546   4.021   3.611  11.072 -0.9773 -0.3200 -0.1793
  104OSM    C1210547   4.132   3.856  10.959 -0.1118 -0.5112 -0.4611
  104OSM   H12A10548   4.229   3.902  10.944  1.4438 -2.6015  2.2344
  104OSM   H12B10549   4.083   3.887  11.050  0.5485  1.5719 -0.7561
  104OSM    C1110550   4.043   3.893  10.842 -0.0057  0.6089 -0.0295
  104OSM   H11A10551   4.091   3.835  10.761 -1.2161 -0.2364 -0.1537
  104OSM   H11B10552   4.043   4.002  10.820 -0.0552  0.9555  1.5812
  104OSM      P10553   3.794   3.942  10.924  0.2437 -0.3332  0.1316
  104OSM    O1310554   3.728   3.858  11.025  0.5820  0.2821  0.1202
  104OSM    O1410555   3.842   4.073  10.976  0.0620  0.2977  0.5675
  104OSM    O1110556   3.691   3.972  10.808  0.2380  0.8539 -0.5666
  104OSM    O1210557   3.905   3.849  10.860 -0.2761 -0.4400 -0.5385
  104OSM    C1S10558   3.737   4.049  10.693 -0.4860 -0.2174  0.0818
  104OSM    H1S10559   3.837   4.093  10.709 -0.4345 -0.5913  0.8493
  104OSM    H1T10560   3.672   4.137  10.674  0.4706  0.2502 -1.1176
  104OSM     NF10561   3.788   4.049  10.453 -0.8816  0.4033 -0.3870
  104OSM    HNF10562   3.739   4.097  10.380  0.2904  1.4923 -0.4914
  104OSM    C2S10563   3.733   3.971  10.558 -0.1355 -0.4196  0.0687
  104OSM    H2S10564   3.797   3.883  10.580 -2.8111 -2.8905 -1.3167
  104OSM    C3S10565   3.592   3.918  10.535 -0.2883  0.3645 -0.4072
  104OSM    H3S10566   3.528   4.005  10.512  0.1542  0.7948 -0.0292
  104OSM     O310567   3.539   3.842  10.646 -0.1747 -0.1183  0.0416
  104OSM    HO310568   3.581   3.882  10.722  1.2809 -0.0193 -0.7816
  104OSM    C4S10569   3.580   3.836  10.409  0.4948  0.4616 -0.7596
  104OSM    H4S10570   3.607   3.890  10.316 -1.0352 -1.2471 -2.2725
  104OSM    C5S10571   3.552   3.703  10.392 -0.7957 -0.7659 -0.3705
  104OSM    H5S10572   3.514   3.648  10.479  0.5339 -1.6231 -0.2921
  104OSM    C6S10573   3.554   3.623  10.267 -0.2153  0.5864  0.0220
  104OSM    H6S10574   3.544   3.691  10.180  1.7216 -1.5234 -1.9893
  104OSM    H6T10575   3.478   3.543  10.263  0.5042 -0.0524 -1.7823
  104OSM    C7S10576   3.695   3.567  10.252 -0.7129  0.2980  0.2702
  104OSM    H7S10577   3.732   3.506  10.336  3.4832  1.3823 -0.5668
  104OSM    H7T10578   3.767   3.651  10.244 -0.1572 -0.2870 -1.4774
  104OSM    C8S10579   3.713   3.498  10.117 -0.4038 -0.0047 -0.6823
  104OSM    H8S10580   3.811   3.527  10.076  0.4247  0.6671  1.6284
  104OSM    H8T10581   3.637   3.537  10.046  0.7738  4.8528  0.3528
  104OSM    C9S10582   3.706   3.342  10.125  0.4979  0.2821  0.1219
  104OSM    H9S10583   3.602   3.322  10.160  0.4042  0.6509  0.0660
  104OSM    H9T10584   3.777   3.305  10.201  0.5805 -2.7281 -1.3055
  104OSM   C10S10585   3.741   3.279   9.991  0.0553 -0.0877 -0.8214
  104OSM   H10S10586   3.739   3.169  10.009 -0.7734  0.3874  2.6802
  104OSM   H10T10587   3.843   3.302   9.954  0.1496  2.2441  0.6435
  104OSM   C11S10588   3.643   3.286   9.877  0.7524 -0.8189 -0.4933
  104OSM   H11S10589   3.604   3.385   9.843  0.4578 -0.5108  0.7109
  104OSM   H11T10590   3.565   3.212   9.903  0.2082  0.3331  1.3383
  104OSM   C12S10591   3.708   3.231   9.748  0.8482 -0.0251 -0.1779
  104OSM   H12S10592   3.749   3.131   9.774 -1.9737 -0.7068  2.1566
  104OSM   H12T10593   3.796   3.293   9.720  1.4055  0.0045  1.4920
  104OSM   C13S10594   3.597   3.214   9.641  0.0161 -0.3487 -0.1835
  104OSM   H13S10595   3.556   3.315   9.619 -0.1676 -0.4191 -0.1654
  104OSM   H13T10596   3.517   3.143   9.671  1.2091 -0.7497  2.2777
  104OSM   C14S10597   3.655   3.161   9.511 -0.2250  0.4922 -0.3972
  104OSM   H14S10598   3.695   3.060   9.534 -3.5080 -0.7378  0.5400
  104OSM   H14T10599   3.737   3.226   9.475  2.6345 -1.1580  2.6454
  104OSM   C15S10600   3.554   3.131   9.403 -0.2042 -0.6847 -0.4180
  104OSM   H15S10601   3.500   3.225   9.382  1.0488  0.3704  0.8659
  104OSM   H15T10602   3.489   3.056   9.452  0.0251  0.8606  2.4296
  104OSM   C16S10603   3.624   3.080   9.270 -0.3374 -1.0234  0.2658
  104OSM   H16S10604   3.659   2.977   9.291  0.0949 -0.6771  1.3130
  104OSM   H16T10605   3.706   3.145   9.235 -1.9018  0.2379 -1.2272
  104OSM   C17S10606   3.527   3.076   9.155  0.3775 -0.0935  0.0004
  104OSM   H17S10607   3.587   3.042   9.068  0.7490  1.3089 -0.3221
  104OSM   H17T10608   3.491   3.178   9.131  0.3547 -0.0100  0.3835
  104OSM   C18S10609   3.413   2.977   9.167  0.5931  0.0947 -0.3514
  104OSM   H18S10610   3.455   2.876   9.186  1.4031  0.8762  2.5303
  104OSM   H18T10611   3.362   2.971   9.068 -0.2183 -1.6978  0.1379
  104OSM   H18U10612   3.343   3.000   9.250  0.6136  0.9633 -0.5686
  104OSM    C1F10613   3.918   4.077  10.442  0.4522  0.3748  0.4887
  104OSM     OF10614   4.003   4.028  10.522  0.2349  0.1347 -0.6887
  104OSM    C2F10615   3.948   4.176  10.334 -0.5761 -0.0355  0.1483
  104OSM    H2F10616   3.887   4.268  10.349 -0.2356  0.4095 -1.1116
  104OSM    H2G10617   3.928   4.129  10.236  1.0957 -0.2498 -0.1177
  104OSM    C3F10618   4.096   4.219  10.338 -0.2578  0.3712  0.6456
  104OSM    H3F10619   4.158   4.129  10.320 -0.1759 -0.0602  2.7899
  104OSM    H3G10620   4.135   4.268  10.430  1.7959 -0.1018  0.0638
  104OSM    C4F10621   4.119   4.312  10.215 -0.3277  0.8338 -0.1673
  104OSM    H4F10622   4.048   4.398  10.220  0.5666  1.5763  0.0524
  104OSM    H4G10623   4.088   4.250  10.128  1.2765 -1.3608  0.7413
  104OSM    C5F10624   4.260   4.341  10.177  0.1201 -0.2548 -0.5546
  104OSM    H5F10625   4.317   4.246  10.184  1.1261  0.3138 -0.8759
  104OSM    H5G10626   4.298   4.404  10.260 -0.9044 -1.7843  1.1733
  104OSM    C6F10627   4.281   4.405  10.034  0.1843  0.8282  0.3055
  104OSM    H6F10628   4.194   4.472  10.022 -0.3986 -0.0201 -0.3407
  104OSM    H6G10629   4.272   4.321   9.961  0.3808  0.0402  1.1639
  104OSM    C7F10630   4.403   4.491  10.016 -0.1334  0.0554 -0.4195
  104OSM    H7F10631   4.485   4.421   9.991  0.5008  0.3552  0.7427
  104OSM    H7G10632   4.422   4.533  10.117 -2.1082  2.0628 -0.8194
  104OSM    C8F10633   4.380   4.605   9.912  0.1359  0.0531  0.7558
  104OSM    H8F10634   4.298   4.675   9.940  0.1950  0.0621  0.9071
  104OSM    H8G10635   4.345   4.562   9.815 -0.0944  0.6163  0.5834
  104OSM    C9F10636   4.509   4.673   9.887  0.0118  0.0498  0.2494
  104OSM    H9F10637   4.576   4.695   9.972 -0.9045  3.4165  0.2455
  104OSM   C10F10638   4.541   4.720   9.765  0.0707  0.0622  0.1894
  104OSM   H10F10639   4.645   4.755   9.759  0.0613 -0.0713 -0.9568
  104OSM   C11F10640   4.473   4.719   9.633 -0.2184  0.1485  0.0227
  104OSM   H11F10641   4.447   4.824   9.606  2.2177  0.8848  0.3154
  104OSM   H11G10642   4.380   4.658   9.632 -0.2554  0.1923  0.4571
  104OSM   C12F10643   4.558   4.666   9.523  0.1089 -0.3354  0.1874
  104OSM   H12F10644   4.577   4.557   9.535  1.4948 -0.2588 -1.0930
  104OSM   H12G10645   4.656   4.718   9.523  0.0592 -0.2344  0.6421
  104OSM   C13F10646   4.496   4.689   9.386  0.4650 -0.2606 -0.1240
  104OSM   H13F10647   4.488   4.795   9.355  0.1425  0.2077  1.4366
  104OSM   H13G10648   4.387   4.671   9.393  0.0803  1.7886 -0.2744
  104OSM   C14F10649   4.577   4.617   9.280  0.3103  1.0678  0.4672
  104OSM   H14F10650   4.583   4.511   9.312 -0.1751  0.2295 -2.0006
  104OSM   H14G10651   4.680   4.658   9.271  1.3322 -1.7443 -2.9610
  104OSM   C15F10652   4.527   4.617   9.138  0.0427  0.0607 -0.6910
  104OSM   H15F10653   4.566   4.701   9.078 -2.8738  0.9725 -1.4625
  104OSM   H15G10654   4.416   4.630   9.143  0.0609 -0.1210  0.9204
  104OSM   C16F10655   4.546   4.480   9.068  0.6865  0.0393  0.3570
  104OSM   H16F10656   4.502   4.406   9.138  1.8899  0.7388  1.9201
  104OSM   H16G10657   4.650   4.451   9.042  0.3246 -1.6831  0.7084
  104OSM   C17F10658   4.475   4.473   8.928  0.6097  0.1303 -0.4320
  104OSM   H17F10659   4.369   4.500   8.945  0.1065 -2.6441  1.4546
  104OSM   H17G10660   4.472   4.366   8.897 -3.0585 -0.0452  0.1223
  104OSM   C18F10661   4.538   4.563   8.817  0.3221  0.3246 -0.3685
  104OSM   H18F10662   4.475   4.571   8.726  0.0955 -0.5685 -0.3068
  104OSM   H18G10663   4.637   4.518   8.796  0.9588  2.5512 -2.5213
  104OSM   H18H10664   4.541   4.664   8.863  1.9035 -0.3098  1.0092
  105OSM      N10665   2.848   3.340  11.085 -0.5087  0.0387 -0.1675
  105OSM    C1510666   2.873   3.447  11.189  0.2532 -0.5275 -0.0835
  105OSM   H15A10667   2.824   3.424  11.282  1.9984 -0.8501  0.8010
  105OSM   H15B10668   2.838   3.534  11.134  2.8335  1.2800  0.9142
  105OSM   H15C10669   2.979   3.465  11.196  0.7489 -1.8097 -3.0186
  105OSM    C1410670   2.901   3.211  11.135 -0.2642 -0.2035 -0.1995
  105OSM   H14A10671   2.877   3.212  11.240 -1.6391 -0.3717 -0.4924
  105OSM   H14B10672   3.006   3.197  11.114  0.0626  0.3049  1.0158
  105OSM   H14C10673   2.848   3.125  11.098 -1.8056  0.6942 -0.1305
  105OSM    C1310674   2.692   3.329  11.083 -0.3458  0.0144 -0.8037
  105OSM   H13A10675   2.642   3.419  11.049 -0.4747  0.4407  0.4554
  105OSM   H13B10676   2.659   3.303  11.182  1.9979 -0.9634 -0.2092
  105OSM   H13C10677   2.662   3.242  11.027  1.3443 -2.6035  2.0611
  105OSM    C1210678   2.893   3.363  10.947  0.3487  0.3156  0.4340
  105OSM   H12A10679   2.875   3.271  10.894 -1.2939  0.7901  0.0997
  105OSM   H12B10680   3.001   3.370  10.947  0.3404  0.5200 -0.2334
  105OSM    C1110681   2.812   3.476  10.875  0.1885  0.2398  0.0087
  105OSM   H11A10682   2.706   3.444  10.865 -0.1898  1.1052  1.1393
  105OSM   H11B10683   2.849   3.477  10.770  0.2136  2.2367  0.0063
  105OSM      P10684   2.718   3.716  10.900  0.0993 -0.2539 -0.2752
  105OSM    O1310685   2.597   3.673  10.970  0.1724 -0.2556  0.1098
  105OSM    O1410686   2.779   3.846  10.947 -0.0740 -0.0240 -0.1228
  105OSM    O1110687   2.698   3.722  10.744 -0.1789  1.0202  0.1995
  105OSM    O1210688   2.829   3.605  10.934 -0.8642  0.2735  0.1542
  105OSM    C1S10689   2.815   3.763  10.660 -0.1081  1.0962 -1.1857
  105OSM    H1S10690   2.908   3.711  10.691  0.6426  1.7322 -2.2776
  105OSM    H1T10691   2.828   3.873  10.673 -0.8762  1.0167  0.5263
  105OSM     NF10692   2.919   3.771  10.440  0.4800 -0.4413 -0.3588
  105OSM    HNF10693   2.925   3.855  10.386  1.5884  0.7578  1.4762
  105OSM    C2S10694   2.792   3.741  10.506 -0.5640 -0.6960 -0.1174
  105OSM    H2S10695   2.775   3.631  10.499 -0.8590 -0.8344  1.9760
  105OSM    C3S10696   2.667   3.821  10.451  0.1970  0.5104 -0.3531
  105OSM    H3S10697   2.691   3.929  10.453  0.0907  0.5389 -0.5627
  105OSM     O310698   2.548   3.796  10.531  0.5510 -0.8624 -0.1578
  105OSM    HO310699   2.585   3.769  10.615 -1.5330 -0.5663  0.9103
  105OSM    C4S10700   2.635   3.790  10.303  0.1833 -0.2460 -0.5656
  105OSM    H4S10701   2.589   3.690  10.298  1.3731 -0.8704  0.4131
  105OSM    C5S10702   2.658   3.873  10.193 -0.1423 -0.8454 -0.0727
  105OSM    H5S10703   2.689   3.978  10.204 -0.1997 -0.9341  1.1041
  105OSM    C6S10704   2.617   3.835  10.054  0.4759  0.2511 -0.4378
  105OSM    H6S10705   2.576   3.921   9.997  1.1271  0.2874 -0.8620
  105OSM    H6T10706   2.544   3.753  10.067 -0.2053  1.0854  1.3131
  105OSM    C7S10707   2.743   3.800   9.971 -0.3282  0.1866 -0.5137
  105OSM    H7S10708   2.802   3.721  10.022  0.0888 -1.0257 -2.7416
  105OSM    H7T10709   2.811   3.887   9.958  0.2223 -0.3027 -0.9715
  105OSM    C8S10710   2.701   3.748   9.828 -0.2188  0.8256 -0.3559
  105OSM    H8S10711   2.667   3.836   9.769 -0.4509 -1.3044 -3.6090
  105OSM    H8T10712   2.618   3.675   9.824  1.7940 -1.5375 -1.3061
  105OSM    C9S10713   2.827   3.699   9.750  0.0479  0.9782  0.2310
  105OSM    H9S10714   2.860   3.601   9.792  1.1305  0.3608 -1.9369
  105OSM    H9T10715   2.908   3.775   9.754  0.5095  0.4589  1.3929
  105OSM   C10S10716   2.790   3.674   9.604 -0.5107  0.1784  0.2480
  105OSM   H10S10717   2.752   3.768   9.559 -1.1291 -0.0739  0.2223
  105OSM   H10T10718   2.704   3.606   9.587  0.9531 -1.8975  0.7518
  105OSM   C11S10719   2.916   3.609   9.540  0.1836  0.8440  0.6676
  105OSM   H11S10720   2.946   3.514   9.589 -1.1578 -0.9960 -1.8991
  105OSM   H11T10721   3.006   3.674   9.552  0.8844  0.6345 -2.5525
  105OSM   C12S10722   2.896   3.585   9.383  0.1485  0.2237 -0.0248
  105OSM   H12S10723   2.862   3.681   9.337  0.2214 -0.5877 -1.8902
  105OSM   H12T10724   2.817   3.507   9.374 -1.0869  1.5871 -1.8534
  105OSM   C13S10725   3.011   3.519   9.312 -0.6859  0.0239  0.4786
  105OSM   H13S10726   3.047   3.426   9.361  2.0086  1.3662  1.2512
  105OSM   H13T10727   3.090   3.597   9.311 -0.1367 -0.5223 -0.0157
  105OSM   C14S10728   2.997   3.478   9.157  0.6444 -0.2102  0.7673
  105OSM   H14S10729   3.090   3.430   9.120  0.0958 -1.7577  1.3081
  105OSM   H14T10730   2.974   3.567   9.094  3.4563 -0.4872 -0.8343
  105OSM   C15S10731   2.887   3.372   9.139  0.0404 -0.8684 -0.9611
  105OSM   H15S10732   2.784   3.410   9.157  0.0727 -1.3652  0.3606
  105OSM   H15T10733   2.896   3.293   9.217 -1.1087 -0.4945 -0.4237
  105OSM   C16S10734   2.883   3.312   8.999 -0.1893 -0.1198  0.5560
  105OSM   H16S10735   2.828   3.215   9.001  0.2991 -0.4308  3.1931
  105OSM   H16T10736   2.987   3.283   8.975 -0.7437  0.0373 -2.4510
  105OSM   C17S10737   2.829   3.405   8.884  0.2840 -0.1685 -0.0923
  105OSM   H17S10738   2.902   3.488   8.869 -0.3219  0.6537  1.3486
  105OSM   H17T10739   2.737   3.457   8.917 -0.3269 -0.2855 -1.5580
  105OSM   C18S10740   2.813   3.330   8.746 -0.7724  0.3115  0.3556
  105OSM   H18S10741   2.788   3.401   8.665  1.2754  0.3492 -0.3147
  105OSM   H18T10742   2.741   3.247   8.764 -0.5159  0.2902  1.4005
  105OSM   H18U10743   2.905   3.275   8.716 -0.6066  1.4457 -1.3325
  105OSM    C1F10744   3.032   3.700  10.448 -0.0476 -0.5052  0.3837
  105OSM     OF10745   3.041   3.603  10.526  0.2440  0.0017  0.5195
  105OSM    C2F10746   3.143   3.741  10.360  0.0931  0.0417 -0.6570
  105OSM    H2F10747   3.239   3.696  10.392  1.0902  1.0388 -2.0922
  105OSM    H2G10748   3.151   3.851  10.345  0.0521 -0.2590 -3.3312
  105OSM    C3F10749   3.096   3.693  10.220 -0.2666 -0.2497  0.1331
  105OSM    H3F10750   3.020   3.765  10.182  1.5725  0.1693 -3.1377
  105OSM    H3G10751   3.043   3.596  10.218 -2.6375  0.9914 -0.0853
  105OSM    C4F10752   3.200   3.694  10.106 -0.1356  0.0002 -0.6864
  105OSM    H4F10753   3.287   3.632  10.136 -1.3081 -1.1412  0.5088
  105OSM    H4G10754   3.246   3.794  10.097  0.3482 -0.1536 -0.0003
  105OSM    C5F10755   3.141   3.651   9.973  0.5638 -0.1738 -0.4594
  105OSM    H5F10756   3.040   3.699   9.971 -1.3639 -3.7209  1.2811
  105OSM    H5G10757   3.116   3.542   9.972  0.9119 -0.2518 -0.6074
  105OSM    C6F10758   3.207   3.704   9.844  0.4683  0.1810 -0.1521
  105OSM    H6F10759   3.211   3.815   9.844  0.4964  0.3365  4.2117
  105OSM    H6G10760   3.137   3.688   9.759  1.1340 -0.6689 -0.5657
  105OSM    C7F10761   3.345   3.643   9.835 -1.3741 -0.0598  0.3393
  105OSM    H7F10762   3.350   3.542   9.881  2.6022  0.9540  2.5967
  105OSM    H7G10763   3.418   3.689   9.904  1.8979 -1.6813 -1.7983
  105OSM    C8F10764   3.409   3.654   9.692  0.3916  0.2157 -0.2023
  105OSM    H8F10765   3.512   3.614   9.686 -0.1488 -1.1719 -0.8030
  105OSM    H8G10766   3.416   3.764   9.675 -0.2548  0.6052  1.8438
  105OSM    C9F10767   3.319   3.583   9.599 -0.0514  0.1510  0.6143
  105OSM    H9F10768   3.236   3.526   9.643  0.2538 -1.8251 -1.2030
  105OSM   C10F10769   3.336   3.572   9.469 -0.3622 -0.5248  0.3138
  105OSM   H10F10770   3.270   3.512   9.405 -0.2710 -1.4811  1.1088
  105OSM   C11F10771   3.442   3.646   9.392 -0.7422 -0.0311 -0.3521
  105OSM   H11F10772   3.541   3.621   9.435  0.6069  0.6572 -2.8631
  105OSM   H11G10773   3.433   3.756   9.409  0.0787  0.1029 -0.7400
  105OSM   C12F10774   3.451   3.621   9.240 -0.8278  0.5353 -0.7295
  105OSM   H12F10775   3.522   3.700   9.206 -0.0873  0.0531 -0.3203
  105OSM   H12G10776   3.352   3.635   9.191 -1.2800 -0.0339  0.0040
  105OSM   C13F10777   3.497   3.483   9.185  0.8579 -0.3648  0.1047
  105OSM   H13F10778   3.448   3.401   9.243 -0.6366  0.0285 -0.5484
  105OSM   H13G10779   3.604   3.467   9.210  0.8506 -0.1133  0.2980
  105OSM   C14F10780   3.462   3.474   9.039 -0.2885 -0.6385  0.3232
  105OSM   H14F10781   3.352   3.475   9.024 -0.2157  0.8451 -0.3002
  105OSM   H14G10782   3.496   3.374   9.002  1.4712 -0.5909  1.7097
  105OSM   C15F10783   3.517   3.582   8.949  0.3664 -0.1851 -0.9375
  105OSM   H15F10784   3.626   3.589   8.969  0.2691 -1.0566 -0.0248
  105OSM   H15G10785   3.452   3.672   8.959 -1.8076 -1.6103 -1.4865
  105OSM   C16F10786   3.515   3.549   8.797  0.0546 -0.1633 -0.3240
  105OSM   H16F10787   3.593   3.471   8.782  2.1507  1.9331 -0.7425
  105OSM   H16G10788   3.548   3.635   8.736 -0.6846  0.4764  0.1626
  105OSM   C17F10789   3.381   3.495   8.745  1.3395 -0.3384 -0.7096
  105OSM   H17F10790   3.298   3.565   8.767  1.5799 -0.1586 -0.3844
  105OSM   H17G10791   3.363   3.393   8.786  2.1476 -0.4466 -0.6144
  105OSM   C18F10792   3.377   3.489   8.595  0.8715  0.6237 -1.4280
  105OSM   H18F10793   3.313   3.404   8.562  1.8598 -1.0962  0.8574
  105OSM   H18G10794   3.480   3.483   8.553  2.0581 -0.7449  1.4421
  105OSM   H18H10795   3.323   3.582   8.568 -0.4036  0.5358  0.6386
  106OSM      N10796   3.800   0.760  11.020  0.3104 -0.5392  0.1057
  106OSM    C1510797   3.677   0.818  11.070 -0.3803 -0.7459  0.2072
  106OSM   H15A10798   3.658   0.901  11.003  1.1341 -1.3348 -1.0044
  106OSM   H15B10799   3.693   0.863  11.166  0.2390 -1.2131  0.3294
  106OSM   H15C10800   3.595   0.747  11.067  0.1692 -1.3617 -1.4663
  106OSM    C1410801   3.903   0.871  11.026  0.2046 -0.5472  0.5831
  106OSM   H14A10802   3.906   0.926  11.118 -0.8190  0.3989  0.0716
  106OSM   H14B10803   3.892   0.943  10.946  2.3215  0.2613  0.9680
  106OSM   H14C10804   4.002   0.830  11.013  0.2609 -0.5626  1.0675
  106OSM    C1310805   3.848   0.660  11.117  0.0156 -0.2136 -0.4226
  106OSM   H13A10806   3.778   0.581  11.137 -1.3847  1.3963  1.4915
  106OSM   H13B10807   3.870   0.701  11.215 -0.6313 -2.2104  0.6159
  106OSM   H13C10808   3.942   0.620  11.081  0.7315  1.4877 -0.5328
  106OSM    C1210809   3.773   0.710  10.877  0.4117  0.7682  0.1592
  106OSM   H12A10810   3.694   0.638  10.870 -2.2501  3.5452 -0.7735
  106OSM   H12B10811   3.867   0.671  10.841 -1.7013 -2.4459 -2.3373
  106OSM    C1110812   3.723   0.811  10.773 -0.4364 -0.5782 -0.5304
  106OSM   H11A10813   3.638   0.865  10.819 -0.7479 -0.2249 -1.4935
  106OSM   H11B10814   3.680   0.761  10.684  1.7309  0.5729 -2.3565
  106OSM      P10815   3.796   1.046  10.680 -0.2212  0.2166  0.0122
  106OSM    O1310816   3.725   1.131  10.779 -0.4391 -0.0154 -0.3547
  106OSM    O1410817   3.928   1.086  10.629  0.3658  0.4817 -0.0004
  106OSM    O1110818   3.700   1.017  10.555 -0.2135  0.1137  0.4583
  106OSM    O1210819   3.823   0.904  10.736 -0.1200  0.2080  0.1906
  106OSM    C1S10820   3.696   1.111  10.448 -0.1157 -0.2856  0.3273
  106OSM    H1S10821   3.797   1.155  10.434 -0.7159  0.8074 -0.7255
  106OSM    H1T10822   3.623   1.191  10.473  1.1037  0.8900  0.2226
  106OSM     NF10823   3.674   1.116  10.190 -0.1404  0.3403  0.1836
  106OSM    HNF10824   3.602   1.120  10.122 -0.1236  0.3765  0.1687
  106OSM    C2S10825   3.645   1.042  10.312 -0.5079  0.6388 -0.0725
  106OSM    H2S10826   3.705   0.950  10.296 -1.2699  0.2388 -0.7321
  106OSM    C3S10827   3.496   1.002  10.324 -0.5665  0.2084 -0.6031
  106OSM    H3S10828   3.442   1.098  10.311 -0.4779  0.4977  0.9917
  106OSM     O310829   3.460   0.952  10.450 -0.1243 -0.0256 -0.5859
  106OSM    HO310830   3.534   0.989  10.500  1.0834 -3.7193  0.7000
  106OSM    C4S10831   3.456   0.898  10.221  0.5133 -0.9823  0.5806
  106OSM    H4S10832   3.461   0.797  10.264 -1.3366 -1.0916  0.6102
  106OSM    C5S10833   3.376   0.923  10.113 -0.6897 -0.3582  0.1360
  106OSM    H5S10834   3.330   1.023  10.107 -3.5402 -1.5840 -0.2293
  106OSM    C6S10835   3.329   0.813  10.016 -0.4734 -0.3620  0.0358
  106OSM    H6S10836   3.235   0.782  10.066  0.9135 -2.3383  1.5872
  106OSM    H6T10837   3.406   0.734  10.004  0.1727  0.1077  0.9513
  106OSM    C7S10838   3.293   0.859   9.873  0.0845 -0.0207 -0.3243
  106OSM    H7S10839   3.227   0.948   9.883  1.0841  0.8706 -1.4661
  106OSM    H7T10840   3.251   0.780   9.807  2.0630 -0.2465 -1.3832
  106OSM    C8S10841   3.412   0.917   9.794  0.2200  0.0217  0.4348
  106OSM    H8S10842   3.464   0.825   9.761  0.8411 -0.1555  1.8366
  106OSM    H8T10843   3.484   0.974   9.858 -0.8570  1.5529  0.3394
  106OSM    C9S10844   3.364   0.999   9.669  0.0503  0.1683  0.5129
  106OSM    H9S10845   3.303   1.086   9.701  1.4890  1.2764  0.3642
  106OSM    H9T10846   3.304   0.921   9.618  1.0798  0.3884 -1.1046
  106OSM   C10S10847   3.475   1.039   9.567 -0.0234 -0.5596 -0.2898
  106OSM   H10S10848   3.548   0.956   9.564  0.7746  0.1176  0.0840
  106OSM   H10T10849   3.525   1.135   9.594  2.8959 -1.7792 -0.9583
  106OSM   C11S10850   3.433   1.057   9.424 -0.4737  0.1766 -0.1332
  106OSM   H11S10851   3.347   1.127   9.430  1.1455  2.1449  1.4558
  106OSM   H11T10852   3.396   0.960   9.384  0.3580 -0.0996 -0.2592
  106OSM   C12S10853   3.548   1.096   9.327  0.3977  0.8741 -0.0981
  106OSM   H12S10854   3.620   1.012   9.337 -0.9794 -0.5253 -1.4591
  106OSM   H12T10855   3.594   1.196   9.343  0.9149  0.9210 -1.6942
  106OSM   C13S10856   3.510   1.098   9.176  0.3293  1.2043 -0.2330
  106OSM   H13S10857   3.423   1.165   9.156 -0.7737 -0.8181 -2.8275
  106OSM   H13T10858   3.459   1.001   9.158 -0.9764  2.0872 -1.4911
  106OSM   C14S10859   3.624   1.120   9.085 -0.5517 -0.0668 -0.0436
  106OSM   H14S10860   3.703   1.042   9.092  0.0140  0.6064  1.4231
  106OSM   H14T10861   3.669   1.211   9.130 -0.8493  0.2621 -0.4081
  106OSM   C15S10862   3.578   1.137   8.943  0.4112  0.2971 -0.1651
  106OSM   H15S10863   3.484   1.196   8.951 -0.5215 -1.3824  3.1030
  106OSM   H15T10864   3.541   1.042   8.899 -0.8825 -0.0610  1.5699
  106OSM   C16S10865   3.680   1.203   8.856 -0.4214 -0.0226 -0.0944
  106OSM   H16S10866   3.780   1.158   8.836 -1.2237 -0.2578 -4.5169
  106OSM   H16T10867   3.693   1.303   8.903 -2.5543  0.1417  0.2702
  106OSM   C17S10868   3.634   1.218   8.711  0.6574 -0.2749 -0.5447
  106OSM   H17S10869   3.610   1.120   8.664  1.0149 -0.3795 -0.5095
  106OSM   H17T10870   3.713   1.254   8.641  1.3887 -3.1019 -1.2861
  106OSM   C18S10871   3.513   1.319   8.685  0.8056  0.6035  0.2129
  106OSM   H18S10872   3.533   1.425   8.709  0.2461  1.6059 -3.1715
  106OSM   H18T10873   3.435   1.297   8.762  1.5236  0.2835  0.8582
  106OSM   H18U10874   3.470   1.306   8.583  1.8117 -0.1883 -0.1196
  106OSM    C1F10875   3.801   1.156  10.159  0.6430 -0.1971 -0.1919
  106OSM     OF10876   3.897   1.118  10.226  0.2088  1.0524  0.2070
  106OSM    C2F10877   3.824   1.242  10.032  0.0637  0.0768  0.5417
  106OSM    H2F10878   3.862   1.341  10.065  1.8283  0.3239 -1.9956
  106OSM    H2G10879   3.728   1.243   9.977 -0.7676  0.0235  1.9357
  106OSM    C3F10880   3.931   1.160   9.954 -0.2397  0.1218  0.0320
  106OSM    H3F10881   3.907   1.052   9.956 -0.4806  0.0692 -2.6899
  106OSM    H3G10882   4.029   1.167  10.006 -1.0044  0.7724  1.4449
  106OSM    C4F10883   3.958   1.198   9.813  0.6139 -0.1089 -0.0456
  106OSM    H4F10884   4.033   1.128   9.770  0.8706  0.1358 -0.0022
  106OSM    H4G10885   3.997   1.301   9.802  0.8810  0.0746  2.0868
  106OSM    C5F10886   3.831   1.190   9.722  0.5101 -0.1944  0.3605
  106OSM    H5F10887   3.750   1.257   9.758  0.2646 -0.9665  1.2939
  106OSM    H5G10888   3.804   1.085   9.745  1.5789 -1.0832 -2.1141
  106OSM    C6F10889   3.866   1.207   9.580 -0.3778  0.3718 -0.2366
  106OSM    H6F10890   3.964   1.257   9.566  0.5348  0.4587  4.5907
  106OSM    H6G10891   3.782   1.263   9.534 -2.0614 -1.7983  0.0356
  106OSM    C7F10892   3.893   1.071   9.520  0.3690 -0.4213  0.3721
  106OSM    H7F10893   3.802   1.009   9.533 -0.5436  0.3627 -1.8229
  106OSM    H7G10894   3.965   1.016   9.583  0.3588  0.9449  1.6427
  106OSM    C8F10895   3.950   1.074   9.370  0.9321 -0.2674  0.3952
  106OSM    H8F10896   3.876   1.128   9.308  2.4624  0.9553 -0.4273
  106OSM    H8G10897   3.955   0.969   9.335  0.3091 -1.1058  2.5923
  106OSM    C9F10898   4.084   1.134   9.352 -0.0964 -0.1101 -0.4829
  106OSM    H9F10899   4.135   1.156   9.446  0.5387 -1.3943 -0.5031
  106OSM   C10F10900   4.156   1.135   9.238  0.0427  0.3560 -0.0150
  106OSM   H10F10901   4.264   1.159   9.243  0.0507  0.8018 -1.7571
  106OSM   C11F10902   4.116   1.076   9.103  0.0763 -0.6893 -0.3795
  106OSM   H11F10903   4.127   1.150   9.022  1.4163  0.8513  1.1176
  106OSM   H11G10904   4.013   1.035   9.111 -0.3091  0.1059 -1.1368
  106OSM   C12F10905   4.194   0.950   9.055  0.0871 -0.0506 -0.1223
  106OSM   H12F10906   4.291   0.986   9.016 -0.9347  2.7562 -0.3091
  106OSM   H12G10907   4.142   0.915   8.963  2.0340 -0.5812 -1.0632
  106OSM   C13F10908   4.201   0.837   9.158  0.4348 -0.7546 -0.0606
  106OSM   H13F10909   4.101   0.828   9.206  1.2194 -0.4424  1.7174
  106OSM   H13G10910   4.279   0.857   9.236 -0.7889  1.4820  0.7033
  106OSM   C14F10911   4.239   0.708   9.095  0.4162 -0.1486 -0.8288
  106OSM   H14F10912   4.343   0.708   9.056  1.0149 -0.6987  0.6833
  106OSM   H14G10913   4.158   0.682   9.024 -0.8954 -3.1715  1.5403
  106OSM   C15F10914   4.237   0.589   9.187 -0.5574 -0.5273 -0.5345
  106OSM   H15F10915   4.142   0.579   9.244 -0.6839  1.5271 -0.2915
  106OSM   H15G10916   4.311   0.601   9.269  0.2843  0.5254 -1.4044
  106OSM   C16F10917   4.265   0.466   9.103 -1.2265 -0.6050  0.2009
  106OSM   H16F10918   4.311   0.384   9.163  0.1825  1.2913  1.8868
  106OSM   H16G10919   4.339   0.493   9.025 -0.8878 -0.9670  0.3942
  106OSM   C17F10920   4.142   0.394   9.036  0.0360 -0.4616 -0.3793
  106OSM   H17F10921   4.184   0.325   8.959  2.8911  1.7787 -1.0099
  106OSM   H17G10922   4.075   0.459   8.977 -0.4929 -1.3653 -0.8021
  106OSM   C18F10923   4.063   0.321   9.140 -0.2124  0.0326  0.0133
  106OSM   H18F10924   4.037   0.387   9.226 -0.1714  1.1226 -0.7918
  106OSM   H18G10925   4.128   0.251   9.197 -1.6906 -1.4887 -0.0792
  106OSM   H18H10926   3.964   0.278   9.113 -0.5731  0.6635  0.2922
  107OSM      N10927   6.521   4.691  11.188  1.3475  0.6960  0.6410
  107OSM    C1510928   6.618   4.591  11.136  0.1360  0.2246  0.5551
  107OSM   H15A10929   6.635   4.612  11.031  1.4539 -0.8006  0.5240
  107OSM   H15B10930   6.577   4.491  11.129  0.9306 -0.1247  0.7332
  107OSM   H15C10931   6.709   4.594  11.194 -1.5551  0.1992  3.3530
  107OSM    C1410932   6.498   4.661  11.332 -0.0807 -0.0131 -0.3467
  107OSM   H14A10933   6.413   4.721  11.362 -1.7357 -1.1642 -2.4492
  107OSM   H14B10934   6.583   4.671  11.398 -0.3340  1.3290 -0.1797
  107OSM   H14C10935   6.478   4.557  11.350 -0.6874  0.5613  3.1792
  107OSM    C1310936   6.584   4.818  11.176  0.1719 -0.3202  0.0688
  107OSM   H13A10937   6.677   4.835  11.229  0.0391 -0.2713  0.2874
  107OSM   H13B10938   6.521   4.902  11.201 -0.7718 -1.3503  1.3244
  107OSM   H13C10939   6.605   4.832  11.071 -1.1865 -1.4725 -0.3904
  107OSM    C1210940   6.396   4.689  11.109  0.4645 -0.1639  0.2783
  107OSM   H12A10941   6.353   4.590  11.112 -1.0181  0.4049 -0.7554
  107OSM   H12B10942   6.413   4.712  11.005  1.7959  0.3575  0.5980
  107OSM    C1110943   6.274   4.773  11.152 -0.1080 -0.5902 -0.3814
  107OSM   H11A10944   6.248   4.740  11.256 -1.4549  0.9782 -0.1793
  107OSM   H11B10945   6.184   4.751  11.091 -1.1369  0.0024  0.8673
  107OSM      P10946   6.280   4.999  11.021  0.2916 -0.0934 -0.0732
  107OSM    O1310947   6.138   5.040  11.014  0.3429  0.0219  0.5766
  107OSM    O1410948   6.378   5.111  11.023  0.1229 -0.6340 -0.0636
  107OSM    O1110949   6.302   4.898  10.900 -0.1980 -0.4067  0.3108
  107OSM    O1210950   6.296   4.916  11.154 -0.1858  0.3975 -0.7995
  107OSM    C1S10951   6.280   4.933  10.761  0.2875 -0.7722 -0.1015
  107OSM    H1S10952   6.380   4.956  10.719  0.0720  1.5809  0.5176
  107OSM    H1T10953   6.206   5.014  10.743 -0.1244 -0.6867  1.7134
  107OSM     NF10954   6.234   4.831  10.549 -0.6094 -0.6337 -0.1068
  107OSM    HNF10955   6.152   4.856  10.499 -0.3009 -0.3436 -0.4819
  107OSM    C2S10956   6.212   4.814  10.687 -0.4147  0.3301 -0.2063
  107OSM    H2S10957   6.262   4.722  10.722  2.3284  1.6981 -0.2020
  107OSM    C3S10958   6.059   4.798  10.734 -0.1865 -0.3263 -0.6568
  107OSM    H3S10959   6.007   4.894  10.719  0.9803  0.5982  0.8901
  107OSM     O310960   6.044   4.777  10.874 -0.3860  0.8940 -0.8675
  107OSM    HO310961   6.131   4.786  10.915 -1.5077 -0.1949  2.0274
  107OSM    C4S10962   5.993   4.685  10.660 -0.0051 -0.4239 -0.4037
  107OSM    H4S10963   5.892   4.710  10.626  0.3403  1.0180 -0.4140
  107OSM    C5S10964   6.025   4.556  10.657 -0.0965  0.2703 -0.8530
  107OSM    H5S10965   6.115   4.527  10.713 -0.8493 -2.8102 -1.0654
  107OSM    C6S10966   5.935   4.457  10.585  0.3287  0.1608  0.3545
  107OSM    H6S10967   5.903   4.380  10.659 -0.0372  1.0659  1.1598
  107OSM    H6T10968   5.995   4.406  10.507 -1.3948 -0.6969 -0.4653
  107OSM    C7S10969   5.804   4.501  10.521 -0.1411  0.1391  0.0003
  107OSM    H7S10970   5.818   4.599  10.471 -0.3918  0.0087 -0.3259
  107OSM    H7T10971   5.747   4.515  10.616  0.6233  0.6519  0.4019
  107OSM    C8S10972   5.737   4.398  10.431  1.0641 -0.5218  0.2792
  107OSM    H8S10973   5.628   4.417  10.437  0.9453 -1.6535  3.0129
  107OSM    H8T10974   5.762   4.298  10.471 -0.1252 -0.5593  0.9451
  107OSM    C9S10975   5.784   4.421  10.287  0.2130 -0.4611  0.6279
  107OSM    H9S10976   5.894   4.408  10.282  0.2094 -0.1955 -0.8427
  107OSM    H9T10977   5.781   4.530  10.265 -0.9979 -0.6678 -0.3599
  107OSM   C10S10978   5.708   4.356  10.163  0.3303 -0.3586  0.2201
  107OSM   H10S10979   5.727   4.246  10.167 -0.3850 -0.5617 -1.2200
  107OSM   H10T10980   5.758   4.399  10.073 -1.3936  2.1271  0.3532
  107OSM   C11S10981   5.555   4.375  10.168 -0.2290  0.3324 -0.9031
  107OSM   H11S10982   5.536   4.481  10.143  0.8744  0.3587 -1.7405
  107OSM   H11T10983   5.519   4.348  10.270  0.5355  0.7364 -0.5149
  107OSM   C12S10984   5.477   4.281  10.075  0.0350  0.5192  0.3711
  107OSM   H12S10985   5.386   4.243  10.126  0.6525 -2.5349 -0.5541
  107OSM   H12T10986   5.546   4.195  10.059 -1.5954 -1.1662  1.9104
  107OSM   C13S10987   5.455   4.333   9.933 -0.9042 -0.1165 -0.1763
  107OSM   H13S10988   5.556   4.356   9.893 -0.4941 -0.9475  0.3563
  107OSM   H13T10989   5.394   4.425   9.946  1.6688  2.0608 -2.2782
  107OSM   C14S10990   5.393   4.233   9.840 -0.0034 -0.4908  0.2951
  107OSM   H14S10991   5.292   4.207   9.877  0.6506 -0.3824  2.3047
  107OSM   H14T10992   5.454   4.139   9.837  0.7085 -0.1798  2.9283
  107OSM   C15S10993   5.376   4.293   9.690 -0.8031  0.1234 -0.4280
  107OSM   H15S10994   5.469   4.336   9.648 -1.9122  1.7235 -1.3580
  107OSM   H15T10995   5.301   4.374   9.705 -1.7599 -0.4732 -1.8552
  107OSM   C16S10996   5.327   4.181   9.600  0.0696 -0.2590  0.3224
  107OSM   H16S10997   5.232   4.135   9.636  0.1995 -1.3379 -0.6609
  107OSM   H16T10998   5.402   4.099   9.604 -2.3173 -2.4922  1.7275
  107OSM   C17S10999   5.304   4.230   9.461  0.2282 -0.4674 -0.0588
  107OSM   H17S11000   5.396   4.272   9.415 -0.3598  2.0420  0.8883
  107OSM   H17T11001   5.235   4.317   9.462  0.7987 -0.0152  0.8774
  107OSM   C18S11002   5.255   4.123   9.360 -0.0676  0.1761  0.6291
  107OSM   H18S11003   5.162   4.076   9.396  0.8463  1.5516  5.5262
  107OSM   H18T11004   5.324   4.037   9.347 -1.6248 -1.1101  0.6060
  107OSM   H18U11005   5.242   4.170   9.259 -0.7573 -2.0642 -0.3759
  107OSM    C1F11006   6.353   4.840  10.485 -0.5264 -0.2652 -0.1531
  107OSM     OF11007   6.456   4.786  10.532  0.1681 -0.7170  0.1737
  107OSM    C2F11008   6.366   4.918  10.361  0.1847 -0.0641 -0.0468
  107OSM    H2F11009   6.348   5.022  10.396 -1.2093  1.4628 -4.5769
  107OSM    H2G11010   6.287   4.882  10.292  1.0723 -1.0801 -0.5500
  107OSM    C3F11011   6.498   4.911  10.290 -0.0561  0.5263 -0.7224
  107OSM    H3F11012   6.526   4.807  10.263 -2.2446 -0.3789  0.2618
  107OSM    H3G11013   6.573   4.953  10.359  1.3293  0.7594 -2.3066
  107OSM    C4F11014   6.509   4.993  10.164  0.2375 -0.2626  0.7394
  107OSM    H4F11015   6.616   4.988  10.134  0.5573 -0.5354  1.8728
  107OSM    H4G11016   6.488   5.101  10.177  0.4867  0.0493 -1.1749
  107OSM    C5F11017   6.435   4.918  10.048 -0.8718 -0.2980 -0.7395
  107OSM    H5F11018   6.334   4.898  10.089 -0.6617  1.4962  0.8064
  107OSM    H5G11019   6.492   4.827  10.022  1.3260 -0.0677  2.6021
  107OSM    C6F11020   6.437   5.009   9.921 -0.3741 -0.6315 -0.3650
  107OSM    H6F11021   6.537   5.044   9.889  0.3002 -1.9777  0.1658
  107OSM    H6G11022   6.380   5.100   9.950 -1.0852 -0.3346 -2.5008
  107OSM    C7F11023   6.376   4.951   9.792  0.5320 -0.3555 -0.3759
  107OSM    H7F11024   6.269   4.928   9.808  0.5576 -0.1134  0.1767
  107OSM    H7G11025   6.422   4.852   9.771 -1.5085 -1.6791  1.0096
  107OSM    C8F11026   6.376   5.042   9.664  0.8450 -0.4318  0.3271
  107OSM    H8F11027   6.344   5.146   9.683 -0.0813 -0.5383 -0.5877
  107OSM    H8G11028   6.295   5.001   9.601  0.7365 -1.8861  1.3645
  107OSM    C9F11029   6.506   5.021   9.591 -0.5462  0.2458  0.1590
  107OSM    H9F11030   6.583   5.099   9.600 -1.7467  1.6715 -1.3579
  107OSM   C10F11031   6.544   4.909   9.527 -0.0627 -0.6194  0.3645
  107OSM   H10F11032   6.637   4.923   9.470  0.1073  0.9538  0.9944
  107OSM   C11F11033   6.474   4.774   9.500 -0.4054  0.5900 -0.1528
  107OSM   H11F11034   6.377   4.793   9.551  0.0179  0.4437  0.7363
  107OSM   H11G11035   6.503   4.688   9.565 -2.1866  0.5628  0.6613
  107OSM   C12F11036   6.467   4.750   9.347  0.2018 -0.4726  0.3118
  107OSM   H12F11037   6.569   4.723   9.312  0.5847 -0.7383  1.5820
  107OSM   H12G11038   6.442   4.845   9.293 -0.8190 -1.5918 -1.2803
  107OSM   C13F11039   6.370   4.632   9.301  0.1214 -0.9810 -0.2564
  107OSM   H13F11040   6.260   4.648   9.300  0.1325 -0.9544 -1.0123
  107OSM   H13G11041   6.388   4.559   9.383 -0.7443 -1.4386 -0.4615
  107OSM   C14F11042   6.405   4.565   9.164 -0.6866 -0.0960  0.0362
  107OSM   H14F11043   6.512   4.534   9.165 -0.9413 -1.2310 -1.7728
  107OSM   H14G11044   6.382   4.644   9.089  0.2041  0.2638  0.1395
  107OSM   C15F11045   6.314   4.445   9.133 -0.0772  0.1488  0.6368
  107OSM   H15F11046   6.208   4.459   9.163 -0.5489 -0.4031 -0.6712
  107OSM   H15G11047   6.357   4.368   9.200  0.9855  1.7444  1.8501
  107OSM   C16F11048   6.316   4.391   8.988 -0.2263 -0.0017  0.4242
  107OSM   H16F11049   6.249   4.461   8.934  1.7990  1.1059 -0.7721
  107OSM   H16G11050   6.260   4.295   8.990  1.0099 -0.7851 -0.7275
  107OSM   C17F11051   6.453   4.358   8.918 -0.3255  0.3099  0.6159
  107OSM   H17F11052   6.507   4.282   8.978 -0.0686 -3.4923 -3.8414
  107OSM   H17G11053   6.521   4.446   8.920 -0.5792  0.6575 -2.0947
  107OSM   C18F11054   6.441   4.308   8.769  0.0987 -0.2716 -0.1072
  107OSM   H18F11055   6.385   4.213   8.765 -0.0904 -0.1216 -1.6082
  107OSM   H18G11056   6.544   4.296   8.729  0.0022  0.6001 -0.6546
  107OSM   H18H11057   6.380   4.380   8.710 -2.2635  0.9078  3.4657
  108OSM      N11058   3.672   2.522  11.137  0.0149  0.4258  0.3220
  108OSM    C1511059   3.645   2.469  11.000  0.3715 -0.8617  0.0906
  108OSM   H15A11060   3.610   2.367  11.007  0.4664 -1.0161 -1.4618
  108OSM   H15B11061   3.733   2.465  10.938  0.2221 -0.4917 -0.1487
  108OSM   H15C11062   3.570   2.532  10.955  0.3982 -1.0481 -0.2205
  108OSM    C1411063   3.551   2.516  11.221 -0.0085 -0.4647 -0.4566
  108OSM   H14A11064   3.487   2.435  11.191  0.5704 -1.2288  0.3169
  108OSM   H14B11065   3.495   2.606  11.202  0.2293 -0.0948  0.5430
  108OSM   H14C11066   3.570   2.515  11.327 -1.1359 -1.1892 -0.2514
  108OSM    C1311067   3.773   2.431  11.200 -0.0022 -0.1208 -0.0805
  108OSM   H13A11068   3.874   2.451  11.168  0.1859 -2.4200 -1.1210
  108OSM   H13B11069   3.750   2.326  11.185 -0.2321 -0.1171  0.2207
  108OSM   H13C11070   3.772   2.453  11.306  1.1226  0.2117 -0.1279
  108OSM    C1211071   3.737   2.657  11.123 -0.3431 -0.2804 -0.3305
  108OSM   H12A11072   3.826   2.645  11.064 -0.0958 -2.9139  0.4261
  108OSM   H12B11073   3.787   2.685  11.215  0.6976  1.2077 -1.3044
  108OSM    C1111074   3.659   2.779  11.061 -0.5388 -0.4104  0.0441
  108OSM   H11A11075   3.668   2.772  10.950 -0.2029 -0.9034  0.0987
  108OSM   H11B11076   3.719   2.868  11.088 -0.4079 -0.8155  1.0995
  108OSM      P11077   3.406   2.801  11.004  0.1495  0.4931 -0.0341
  108OSM    O1311078   3.282   2.764  11.080  0.2945  0.1379 -0.6425
  108OSM    O1411079   3.415   2.923  10.927  0.3646 -0.4981 -0.3183
  108OSM    O1111080   3.445   2.680  10.910  0.2184 -0.0337  0.1543
  108OSM    O1211081   3.529   2.805  11.106  0.5849 -0.2842 -0.2320
  108OSM    C1S11082   3.361   2.655  10.800  0.1456  0.1346  0.5924
  108OSM    H1S11083   3.266   2.711  10.805 -0.3274 -0.6786  0.9337
  108OSM    H1T11084   3.326   2.550  10.807  0.0349  0.1540  0.3417
  108OSM     NF11085   3.327   2.640  10.561 -0.0483 -0.0328 -0.0316
  108OSM    HNF11086   3.329   2.543  10.539 -1.4547 -0.1040  0.1071
  108OSM    C2S11087   3.424   2.676  10.663  0.0186  0.1481  0.4414
  108OSM    H2S11088   3.456   2.782  10.656  2.8274 -0.7310 -2.1900
  108OSM    C3S11089   3.556   2.594  10.659  0.0242 -0.2353  0.3679
  108OSM    H3S11090   3.527   2.488  10.679 -0.9290 -0.1282 -0.3390
  108OSM     O311091   3.661   2.627  10.750 -0.2928 -0.3890 -0.2153
  108OSM    HO311092   3.618   2.681  10.817 -0.3569 -0.6792 -0.0195
  108OSM    C4S11093   3.610   2.597  10.515 -0.1056 -0.0960  0.0106
  108OSM    H4S11094   3.629   2.697  10.473 -0.4774 -0.5661 -1.3328
  108OSM    C5S11095   3.637   2.487  10.433  0.2512 -0.4710  0.8907
  108OSM    H5S11096   3.605   2.388  10.469 -0.8475  0.0621  1.4238
  108OSM    C6S11097   3.705   2.496  10.294 -0.2056  0.2594 -0.1899
  108OSM    H6S11098   3.753   2.401  10.262  2.2412  1.4005 -0.1566
  108OSM    H6T11099   3.794   2.561  10.308 -0.4654  0.5510  0.1333
  108OSM    C7S11100   3.609   2.538  10.183  0.1220  0.7397 -0.1544
  108OSM    H7S11101   3.672   2.555  10.093  0.3284  1.9764  0.2061
  108OSM    H7T11102   3.572   2.640  10.206 -1.7804 -0.0415  0.4777
  108OSM    C8S11103   3.507   2.431  10.156  1.0243 -0.0493 -0.0935
  108OSM    H8S11104   3.449   2.396  10.244 -0.1277  3.3423  0.6468
  108OSM    H8T11105   3.550   2.335  10.121 -0.9998 -1.3731  0.8825
  108OSM    C9S11106   3.410   2.478  10.044 -0.0020 -0.1291  0.0347
  108OSM    H9S11107   3.473   2.507   9.957  0.6894 -0.8290  0.2934
  108OSM    H9T11108   3.347   2.563  10.079 -1.7707 -1.4453  0.2019
  108OSM   C10S11109   3.304   2.378   9.997  0.0507  0.5152  0.5594
  108OSM   H10S11110   3.258   2.414   9.902  2.0758 -3.6023 -2.2334
  108OSM   H10T11111   3.221   2.375  10.071 -0.8626 -1.0782 -0.4809
  108OSM   C11S11112   3.350   2.229   9.964 -0.4798 -0.0930 -0.0835
  108OSM   H11S11113   3.400   2.198  10.059 -0.9108  0.0935  0.2079
  108OSM   H11T11114   3.434   2.247   9.894 -1.2412 -1.0142 -1.2865
  108OSM   C12S11115   3.224   2.149   9.918  0.3868 -0.2147 -0.0827
  108OSM   H12S11116   3.145   2.177   9.991  0.9781 -1.5527  1.1177
  108OSM   H12T11117   3.243   2.041   9.938  1.2124  0.0587  0.6522
  108OSM   C13S11118   3.189   2.186   9.769 -0.2436 -0.7478  0.8502
  108OSM   H13S11119   3.274   2.169   9.699  0.8816  3.9790  0.7756
  108OSM   H13T11120   3.159   2.290   9.744  1.2717 -1.0212 -2.6152
  108OSM   C14S11121   3.068   2.100   9.725 -0.1038  0.3715  0.1167
  108OSM   H14S11122   2.980   2.128   9.787  0.3843 -2.7371  2.5050
  108OSM   H14T11123   3.090   1.991   9.738  2.7481  0.7093 -1.0703
  108OSM   C15S11124   3.034   2.104   9.577  0.9153  0.2841  0.0002
  108OSM   H15S11125   2.998   2.208   9.567 -0.6196 -0.1070  1.1124
  108OSM   H15T11126   2.954   2.027   9.566  2.0759 -0.9442 -0.2116
  108OSM   C16S11127   3.143   2.091   9.469 -0.0617 -0.4795  0.6703
  108OSM   H16S11128   3.191   1.991   9.472  0.2425 -0.3511  0.1143
  108OSM   H16T11129   3.224   2.166   9.486  2.4977 -2.6590 -1.0962
  108OSM   C17S11130   3.086   2.114   9.326 -0.3226  0.4648 -0.7532
  108OSM   H17S11131   3.011   2.195   9.326  0.4489  1.2122  0.7595
  108OSM   H17T11132   3.034   2.020   9.295  1.5524 -1.4990  1.5684
  108OSM   C18S11133   3.193   2.120   9.215  0.0476 -0.3779 -0.5041
  108OSM   H18S11134   3.242   2.021   9.200  0.6584 -0.2900  0.7830
  108OSM   H18T11135   3.262   2.202   9.243 -0.0950 -0.0098 -1.2205
  108OSM   H18U11136   3.152   2.162   9.121 -0.5265 -2.6520 -1.3288
  108OSM    C1F11137   3.229   2.726  10.525 -1.2211  0.3468  0.1085
  108OSM     OF11138   3.228   2.837  10.578  0.2658 -0.2177  0.0069
  108OSM    C2F11139   3.125   2.690  10.433 -0.1939  0.2653  0.9363
  108OSM    H2F11140   3.023   2.720  10.468  0.1261  1.2698  1.0270
  108OSM    H2G11141   3.122   2.584  10.402  2.1532 -0.0083  1.5241
  108OSM    C3F11142   3.152   2.761  10.301  0.5802 -0.8423  0.4896
  108OSM    H3F11143   3.246   2.737  10.247  0.2489  0.0058 -0.4834
  108OSM    H3G11144   3.143   2.870  10.321 -2.2735 -0.7238 -0.9783
  108OSM    C4F11145   3.044   2.732  10.196 -0.1555 -0.4937  1.0256
  108OSM    H4F11146   3.043   2.823  10.132  0.0109 -2.0004 -1.2273
  108OSM    H4G11147   2.952   2.728  10.258 -1.6774 -0.3688 -1.1076
  108OSM    C5F11148   3.063   2.624  10.090  0.5015 -0.3465  0.1073
  108OSM    H5F11149   3.074   2.529  10.145  1.5213 -0.5682 -0.4465
  108OSM    H5G11150   3.155   2.649  10.033  1.4686 -2.0532  0.8706
  108OSM    C6F11151   2.948   2.614   9.986 -0.1244 -0.2184  0.7215
  108OSM    H6F11152   2.928   2.718   9.953 -0.5256  0.1475  2.0359
  108OSM    H6G11153   2.851   2.573  10.023 -0.7799 -1.6246 -2.2755
  108OSM    C7F11154   2.993   2.519   9.873 -0.3368 -0.1576  0.0258
  108OSM    H7F11155   3.052   2.435   9.915  1.2473  0.5799 -0.6681
  108OSM    H7G11156   3.059   2.580   9.808  2.2764 -1.1348  1.5991
  108OSM    C8F11157   2.880   2.446   9.799  0.4549 -0.3787  0.1735
  108OSM    H8F11158   2.813   2.405   9.878  1.3050  1.5509  1.9852
  108OSM    H8G11159   2.903   2.356   9.737 -2.2320 -0.6819 -0.5405
  108OSM    C9F11160   2.808   2.549   9.720 -0.3709  0.2155  0.2950
  108OSM    H9F11161   2.773   2.635   9.779 -2.0235 -0.3728  0.2115
  108OSM   C10F11162   2.784   2.550   9.587  0.5549  0.0529 -0.2399
  108OSM   H10F11163   2.729   2.633   9.541 -1.2288 -2.0718 -2.2619
  108OSM   C11F11164   2.827   2.443   9.488  0.1560  0.4641  0.6397
  108OSM   H11F11165   2.752   2.371   9.451  0.6198  0.9973 -1.4241
  108OSM   H11G11166   2.912   2.384   9.530  0.0348  0.7926  1.3627
  108OSM   C12F11167   2.876   2.496   9.351  0.0487 -0.0629  0.4742
  108OSM   H12F11168   2.909   2.410   9.289 -0.8141  0.1449 -0.2950
  108OSM   H12G11169   2.952   2.576   9.362 -2.1236  2.0294  1.0467
  108OSM   C13F11170   2.768   2.572   9.278 -0.2473 -0.6047 -0.5006
  108OSM   H13F11171   2.821   2.619   9.192 -0.1320 -1.2500 -0.7901
  108OSM   H13G11172   2.719   2.645   9.346 -1.7383 -1.8289 -0.1780
  108OSM   C14F11173   2.657   2.477   9.220 -0.7907  0.2423  0.2375
  108OSM   H14F11174   2.603   2.427   9.304  0.1690 -0.9097  0.2022
  108OSM   H14G11175   2.698   2.403   9.148 -2.5438 -0.2182 -0.3640
  108OSM   C15F11176   2.540   2.550   9.145  0.2623  0.6474 -0.3711
  108OSM   H15F11177   2.459   2.475   9.134 -0.2788  1.3492 -1.3065
  108OSM   H15G11178   2.572   2.598   9.049  1.3566  2.0738  0.6587
  108OSM   C16F11179   2.480   2.659   9.233  0.3713 -0.1116 -0.1582
  108OSM   H16F11180   2.553   2.731   9.276  0.2166 -1.2206  2.0982
  108OSM   H16G11181   2.451   2.608   9.327  3.4775  0.2957  1.1459
  108OSM   C17F11182   2.368   2.726   9.163 -0.3989 -0.5747 -0.0048
  108OSM   H17F11183   2.274   2.667   9.174 -0.9699  0.4903  1.0859
  108OSM   H17G11184   2.392   2.744   9.056 -0.4455  2.1544  0.3872
  108OSM   C18F11185   2.316   2.865   9.211  0.3116  0.2579  0.1924
  108OSM   H18F11186   2.359   2.949   9.152 -1.1480  1.7815  1.1907
  108OSM   H18G11187   2.350   2.886   9.315  1.6756  0.2559 -0.2304
  108OSM   H18H11188   2.206   2.876   9.200  0.3751  0.6482 -0.0764
  109OSM      N11189   3.380   4.108  11.009  0.0271  0.0244 -0.6245
  109OSM    C1511190   3.470   4.223  11.035  0.1796  0.2112  0.5860
  109OSM   H15A11191   3.451   4.298  10.960  2.7313 -0.7212 -1.1497
  109OSM   H15B11192   3.570   4.194  11.007  1.3132  3.6791  0.5274
  109OSM   H15C11193   3.493   4.253  11.136  1.4829  2.1861 -0.2330
  109OSM    C1411194   3.430   4.000  11.107  0.2331  0.1174 -0.1551
  109OSM   H14A11195   3.537   3.991  11.114  0.4546  0.8461 -2.0374
  109OSM   H14B11196   3.389   3.901  11.095  1.0897 -0.1257 -1.2127
  109OSM   H14C11197   3.395   4.035  11.204 -0.9172  1.2851 -0.9477
  109OSM    C1311198   3.241   4.144  11.036  0.5844  0.7307  0.4045
  109OSM   H13A11199   3.180   4.055  11.026  4.0349 -2.0524  1.7430
  109OSM   H13B11200   3.211   4.212  10.958  1.3884  1.0006  0.3163
  109OSM   H13C11201   3.236   4.200  11.128  0.7721  2.2840 -0.4993
  109OSM    C1211202   3.406   4.057  10.872  0.0852  0.0337 -0.1989
  109OSM   H12A11203   3.350   3.966  10.855  0.8155 -0.4003 -0.3512
  109OSM   H12B11204   3.513   4.042  10.861 -0.0828 -1.2931 -0.1345
  109OSM    C1111205   3.365   4.150  10.749 -0.3501  0.2488 -0.7931
  109OSM   H11A11206   3.418   4.104  10.663  0.4401 -1.1980  0.4129
  109OSM   H11B11207   3.408   4.251  10.761  1.6887 -0.7365  0.9402
  109OSM      P11208   3.135   4.055  10.672  0.0441  0.4818 -0.1439
  109OSM    O1311209   3.200   3.925  10.698 -0.0412  0.5831  0.5146
  109OSM    O1411210   2.999   4.079  10.719  0.6454 -0.4607  0.2081
  109OSM    O1111211   3.134   4.086  10.522  0.4031  0.0873 -0.5853
  109OSM    O1211212   3.224   4.163  10.728 -0.1398 -0.4898 -0.4314
  109OSM    C1S11213   3.174   4.209  10.467 -0.1263  0.2906 -0.3199
  109OSM    H1S11214   3.274   4.246  10.500 -0.8243 -0.9173  3.5956
  109OSM    H1T11215   3.095   4.282  10.495  1.0601  1.5222 -0.0728
  109OSM     NF11216   3.209   4.329  10.263  0.2338 -0.7108 -0.3042
  109OSM    HNF11217   3.139   4.397  10.247 -2.1248 -2.0798  3.0562
  109OSM    C2S11218   3.160   4.204  10.310  0.1957  0.6610 -0.1013
  109OSM    H2S11219   3.237   4.129  10.283  0.6175  0.6995  0.9611
  109OSM    C3S11220   3.015   4.166  10.268  0.0738  0.2490 -0.8031
  109OSM    H3S11221   2.948   4.249  10.298 -0.0495  0.0316 -0.4779
  109OSM     O311222   2.956   4.048  10.323 -0.9423  0.0825 -0.2253
  109OSM    HO311223   3.024   4.044  10.390 -1.0383  0.9747 -0.0700
  109OSM    C4S11224   3.008   4.148  10.119  0.0024  0.3916  0.3414
  109OSM    H4S11225   2.988   4.246  10.074 -1.5822  0.5405  1.2847
  109OSM    C5S11226   3.021   4.035  10.040  1.1453 -1.2179  0.4887
  109OSM    H5S11227   3.024   3.934  10.084 -4.1063 -1.2114  1.5917
  109OSM    C6S11228   3.014   4.049   9.890 -0.1957 -0.6107  0.7171
  109OSM    H6S11229   2.942   4.127   9.858  0.7622 -0.2186 -0.5915
  109OSM    H6T11230   2.979   3.950   9.854  1.6857 -0.3883 -1.9927
  109OSM    C7S11231   3.155   4.080   9.824  0.2002  0.2060 -0.6373
  109OSM    H7S11232   3.239   4.008   9.826  1.3159  1.4005 -1.9859
  109OSM    H7T11233   3.202   4.168   9.874 -1.9324  0.8108  0.3952
  109OSM    C8S11234   3.144   4.109   9.676  1.0867  0.2954  0.7240
  109OSM    H8S11235   3.237   4.160   9.644  0.4790 -0.0375 -1.7994
  109OSM    H8T11236   3.064   4.185   9.666  0.3094 -0.4984  0.6978
  109OSM    C9S11237   3.117   3.993   9.582 -0.5024  0.3001 -0.2622
  109OSM    H9S11238   3.016   3.959   9.613 -0.9467  2.9918  1.5529
  109OSM    H9T11239   3.200   3.921   9.601 -0.0747  0.5539 -1.1234
  109OSM   C10S11240   3.126   4.027   9.438 -0.2004 -0.1023  0.2310
  109OSM   H10S11241   3.230   4.060   9.414 -1.5472  1.9356 -3.5461
  109OSM   H10T11242   3.068   4.117   9.410  0.0004  0.1420  0.5857
  109OSM   C11S11243   3.099   3.910   9.349 -0.0971  0.1063  0.2456
  109OSM   H11S11244   2.991   3.884   9.356 -0.2114  0.5435  0.1975
  109OSM   H11T11245   3.146   3.817   9.386 -0.3855 -0.7217 -1.3724
  109OSM   C12S11246   3.141   3.937   9.205 -0.0363 -0.1147 -0.5103
  109OSM   H12S11247   3.251   3.946   9.218  0.2540 -2.3794 -1.1173
  109OSM   H12T11248   3.107   4.039   9.175 -1.3545  0.2462  1.8640
  109OSM   C13S11249   3.096   3.840   9.091  0.4566  0.2185  0.0393
  109OSM   H13S11250   2.986   3.824   9.091  0.2895  1.2365 -0.9816
  109OSM   H13T11251   3.147   3.743   9.112 -0.4321 -0.3931 -0.5455
  109OSM   C14S11252   3.143   3.887   8.946 -0.1037 -0.8214 -0.8422
  109OSM   H14S11253   3.254   3.894   8.940 -0.1842  0.2764 -1.1458
  109OSM   H14T11254   3.115   3.994   8.934  0.8349 -0.6227 -1.3889
  109OSM   C15S11255   3.077   3.795   8.836  0.5581 -0.2173 -1.4735
  109OSM   H15S11256   2.969   3.788   8.859  0.8245 -0.8427 -0.3342
  109OSM   H15T11257   3.130   3.698   8.846 -0.6791 -0.7661  0.0922
  109OSM   C16S11258   3.087   3.834   8.693 -0.1044  0.0680 -1.2402
  109OSM   H16S11259   3.196   3.828   8.670 -0.3643 -0.5385 -2.3868
  109OSM   H16T11260   3.041   3.931   8.667  0.8014  0.5280 -1.1649
  109OSM   C17S11261   3.014   3.731   8.603 -0.1446  0.4989 -0.3519
  109OSM   H17S11262   3.050   3.632   8.638  2.7264  0.5617 -2.6861
  109OSM   H17T11263   3.046   3.759   8.500  1.5656  1.6318  0.4428
  109OSM   C18S11264   2.862   3.741   8.616  0.9018 -0.2914 -0.3581
  109OSM   H18S11265   2.832   3.845   8.589  1.1571 -0.7778 -2.6751
  109OSM   H18T11266   2.827   3.726   8.721  0.9955 -0.7814 -0.3957
  109OSM   H18U11267   2.818   3.667   8.546 -0.1089  2.0066 -2.2888
  109OSM    C1F11268   3.333   4.369  10.247  0.2864 -0.0499 -0.1836
  109OSM     OF11269   3.426   4.287  10.264  0.0384 -0.4008 -0.0595
  109OSM    C2F11270   3.351   4.508  10.219 -0.5924  0.1752 -0.4960
  109OSM    H2F11271   3.332   4.573  10.307 -1.5721 -0.4978 -0.1917
  109OSM    H2G11272   3.275   4.526  10.140 -1.3244 -3.2384 -0.7218
  109OSM    C3F11273   3.498   4.535  10.173 -0.0555 -0.1715 -0.2702
  109OSM    H3F11274   3.545   4.459  10.107  2.8725  1.2932 -0.0492
  109OSM    H3G11275   3.559   4.533  10.266  0.1437 -0.9827 -0.4093
  109OSM    C4F11276   3.518   4.667  10.099  0.5792  0.6565 -0.7591
  109OSM    H4F11277   3.623   4.701  10.115  0.2728  1.6670 -0.8037
  109OSM    H4G11278   3.450   4.745  10.140  0.6781  0.9988 -1.2383
  109OSM    C5F11279   3.487   4.640   9.945 -0.2387  0.5157 -0.1602
  109OSM    H5F11280   3.389   4.587   9.946 -0.4137  0.7487 -1.6989
  109OSM    H5G11281   3.563   4.566   9.910  0.3172  0.6658  0.6990
  109OSM    C6F11282   3.486   4.761   9.853  0.3544  0.4032 -0.5763
  109OSM    H6F11283   3.540   4.839   9.911 -2.6977  1.7641  0.5932
  109OSM    H6G11284   3.385   4.804   9.846  1.2843  2.4198 -2.7588
  109OSM    C7F11285   3.551   4.728   9.711 -0.0599 -0.4992 -0.6746
  109OSM    H7F11286   3.506   4.632   9.679 -0.6115 -0.2424 -0.6761
  109OSM    H7G11287   3.658   4.698   9.721 -0.0369 -1.7294 -3.7135
  109OSM    C8F11288   3.540   4.845   9.616 -0.2802 -0.1595  0.8912
  109OSM    H8F11289   3.438   4.888   9.605 -0.0574  0.9457  2.7114
  109OSM    H8G11290   3.569   4.803   9.517  0.0508 -0.9704  1.3240
  109OSM    C9F11291   3.631   4.953   9.673  0.2944 -0.1551  0.0955
  109OSM    H9F11292   3.588   5.001   9.763  0.4399 -1.8899  1.1286
  109OSM   C10F11293   3.736   5.006   9.609 -1.0353  0.4139 -0.5743
  109OSM   H10F11294   3.790   5.089   9.658  0.6381 -0.5055 -0.8096
  109OSM   C11F11295   3.802   4.971   9.477  0.1764 -0.0950 -0.1507
  109OSM   H11F11296   3.777   4.870   9.439  1.5102  0.2445 -2.0546
  109OSM   H11G11297   3.912   4.961   9.488 -0.0316 -2.5678  0.0774
  109OSM   C12F11298   3.766   5.084   9.379 -0.2161  0.2192 -0.4648
  109OSM   H12F11299   3.750   5.184   9.423  1.2068 -0.5251  1.9270
  109OSM   H12G11300   3.674   5.060   9.322 -0.6039  0.5227  0.0218
  109OSM   C13F11301   3.872   5.099   9.264 -0.2198 -0.4070  0.3193
  109OSM   H13F11302   3.972   5.077   9.306  0.4894 -1.0356 -1.5885
  109OSM   H13G11303   3.867   5.201   9.219  2.3680  0.4560  1.7815
  109OSM   C14F11304   3.856   5.000   9.149  0.2908 -0.1308  0.2460
  109OSM   H14F11305   3.764   5.032   9.097  0.4846  1.4241  0.8120
  109OSM   H14G11306   3.840   4.898   9.190 -1.6521  0.6742  1.6065
  109OSM   C15F11307   3.983   4.999   9.054  0.0202  0.5810  0.4791
  109OSM   H15F11308   4.023   5.100   9.034  0.2822  0.6489  1.3050
  109OSM   H15G11309   3.944   4.960   8.957  0.8183 -0.2357  0.4660
  109OSM   C16F11310   4.101   4.920   9.105 -1.3985  0.3981 -0.1369
  109OSM   H16F11311   4.075   4.831   9.166  0.1227 -0.7612 -1.0768
  109OSM   H16G11312   4.150   4.987   9.180 -0.6543  0.6466 -0.8234
  109OSM   C17F11313   4.201   4.875   9.001  0.5714  0.0227  0.9497
  109OSM   H17F11314   4.300   4.832   9.029  1.4877 -0.8565 -2.9610
  109OSM   H17G11315   4.225   4.961   8.935 -0.2864 -1.0533 -0.8319
  109OSM   C18F11316   4.150   4.765   8.905  0.1322  0.0593 -0.4268
  109OSM   H18F11317   4.228   4.751   8.827  0.4616  0.9712 -0.2741
  109OSM   H18G11318   4.054   4.802   8.862 -0.2846 -1.6184 -1.0195
  109OSM   H18H11319   4.130   4.671   8.960  0.6242  0.3458  0.2559
  110OSM      N11320   4.100   2.034  11.188  0.0408 -0.2678  0.3601
  110OSM    C1511321   4.217   1.954  11.243 -0.4240  0.0330 -0.0054
  110OSM   H15A11322   4.196   1.849  11.231 -2.7744  0.5451 -0.9739
  110OSM   H15B11323   4.224   1.972  11.350 -2.4457  3.3773 -0.2993
  110OSM   H15C11324   4.304   1.978  11.185 -0.8530  1.4788 -0.0851
  110OSM    C1411325   3.975   2.000  11.258 -0.9766  0.3606 -0.1092
  110OSM   H14A11326   3.965   1.893  11.265 -0.7625  0.0323 -3.2606
  110OSM   H14B11327   3.886   2.040  11.210 -1.6852 -1.6520 -0.5674
  110OSM   H14C11328   3.976   2.050  11.354  0.8070  1.7261 -0.7700
  110OSM    C1311329   4.128   2.180  11.210 -0.2698 -0.2838 -0.0432
  110OSM   H13A11330   4.051   2.248  11.175 -0.4204 -1.0646 -1.3072
  110OSM   H13B11331   4.209   2.218  11.149 -0.4921 -0.8244 -0.6882
  110OSM   H13C11332   4.139   2.193  11.316 -1.4432 -1.6776  0.2725
  110OSM    C1211333   4.080   2.011  11.041 -0.5580  0.0359  0.5215
  110OSM   H12A11334   4.033   2.093  10.989  1.9155  0.5656 -1.0570
  110OSM   H12B11335   4.018   1.923  11.027  0.7500 -0.9044  0.4908
  110OSM    C1111336   4.208   1.975  10.961 -0.3727  0.1706  0.1458
  110OSM   H11A11337   4.174   1.954  10.857  1.0214  1.0027 -0.5079
  110OSM   H11B11338   4.253   1.881  10.999  1.2823  1.1951  0.8613
  110OSM      P11339   4.298   2.214  10.893 -0.0032  0.0255 -0.4495
  110OSM    O1311340   4.158   2.225  10.849  0.2450 -0.3394  0.7620
  110OSM    O1411341   4.355   2.316  10.981 -0.2729 -0.0840 -0.0496
  110OSM    O1111342   4.395   2.201  10.774  0.1774  0.0330  0.0173
  110OSM    O1211343   4.312   2.072  10.962  0.0564 -0.0325  0.5253
  110OSM    C1S11344   4.524   2.146  10.779 -0.3331 -0.1759  0.3638
  110OSM    H1S11345   4.538   2.051  10.833  1.4296 -0.5291 -0.6298
  110OSM    H1T11346   4.593   2.218  10.828  0.0535  0.2143 -0.7009
  110OSM     NF11347   4.697   2.043  10.636 -0.1382  0.4126  0.2375
  110OSM    HNF11348   4.782   2.074  10.593 -1.1681  0.3091 -2.0364
  110OSM    C2S11349   4.578   2.121  10.639 -0.0929 -0.6157  0.1439
  110OSM    H2S11350   4.492   2.063  10.600  0.3395 -1.9471  1.1007
  110OSM    C3S11351   4.596   2.256  10.560  0.2104  0.0256  0.2056
  110OSM    H3S11352   4.684   2.316  10.592  1.2284 -0.2496 -1.9137
  110OSM     O311353   4.485   2.351  10.572 -0.1129  0.2629  0.0006
  110OSM    HO311354   4.415   2.297  10.610  0.5896 -0.9936 -0.4381
  110OSM    C4S11355   4.620   2.231  10.416  0.5800 -0.0307  0.4679
  110OSM    H4S11356   4.725   2.246  10.387  0.2949 -0.8663 -1.1266
  110OSM    C5S11357   4.536   2.209  10.315  0.7873  0.1745 -0.3457
  110OSM    H5S11358   4.430   2.226  10.335  0.5857 -1.0664 -0.2898
  110OSM    C6S11359   4.570   2.185  10.173 -0.7491 -0.0886 -0.4388
  110OSM    H6S11360   4.512   2.252  10.106 -1.3408  0.3086  0.4517
  110OSM    H6T11361   4.549   2.083  10.136 -0.3198 -0.1734 -0.4524
  110OSM    C7S11362   4.727   2.220  10.144  0.5888  0.8502 -0.1338
  110OSM    H7S11363   4.780   2.151  10.212 -0.9711  2.5143  2.9843
  110OSM    H7T11364   4.746   2.323  10.182 -1.5579  0.3267  2.6002
  110OSM    C8S11365   4.768   2.211  10.001  0.3777  0.3175 -0.2679
  110OSM    H8S11366   4.725   2.296   9.943 -2.1497  0.2630  1.3957
  110OSM    H8T11367   4.724   2.119   9.956  0.5009  0.3502 -0.4597
  110OSM    C9S11368   4.916   2.208   9.978 -0.2662 -0.1470 -0.3285
  110OSM    H9S11369   4.956   2.120  10.034  0.8373  0.1219 -0.6626
  110OSM    H9T11370   4.974   2.299  10.004  1.9228 -0.8831 -2.2092
  110OSM   C10S11371   4.952   2.186   9.832  0.1381 -0.2453  0.6213
  110OSM   H10S11372   4.885   2.106   9.793  1.4226 -0.9345 -0.2796
  110OSM   H10T11373   5.056   2.148   9.823  0.2245  0.1461 -0.0818
  110OSM   C11S11374   4.931   2.312   9.748  0.0378 -0.5164 -0.1897
  110OSM   H11S11375   4.991   2.396   9.789 -1.5676  1.2966 -1.3569
  110OSM   H11T11376   4.825   2.344   9.762  0.2634  0.1794 -0.0467
  110OSM   C12S11377   4.939   2.280   9.598  0.1367  0.3771 -1.0030
  110OSM   H12S11378   4.882   2.187   9.578  1.7947 -0.0968 -4.1312
  110OSM   H12T11379   5.046   2.257   9.581  0.0809  0.2790 -1.2302
  110OSM   C13S11380   4.894   2.398   9.503  0.1974  0.7063  0.5791
  110OSM   H13S11381   4.968   2.480   9.517  1.8535 -0.7438  0.7388
  110OSM   H13T11382   4.791   2.434   9.520  0.1409  1.0277 -0.3852
  110OSM   C14S11383   4.889   2.347   9.362  0.0914  0.3804 -0.5610
  110OSM   H14S11384   4.819   2.261   9.360  1.2011 -0.6011  1.1493
  110OSM   H14T11385   4.988   2.311   9.328  0.4355  1.2435 -0.5067
  110OSM   C15S11386   4.829   2.446   9.258 -0.7068 -0.4120 -0.7347
  110OSM   H15S11387   4.737   2.488   9.303 -0.2430 -0.5417  0.3719
  110OSM   H15T11388   4.803   2.406   9.157  0.0047  3.4109 -2.5979
  110OSM   C16S11389   4.922   2.563   9.228  0.0895 -0.2225  0.6731
  110OSM   H16S11390   5.016   2.515   9.192  2.0979  3.5343  0.4506
  110OSM   H16T11391   4.942   2.613   9.326  0.6507 -0.3129  0.6109
  110OSM   C17S11392   4.882   2.669   9.129  0.4492 -0.6375  0.4860
  110OSM   H17S11393   4.836   2.625   9.039  3.3711 -1.4994 -0.7145
  110OSM   H17T11394   4.975   2.712   9.086  0.2705  0.1445  0.8508
  110OSM   C18S11395   4.797   2.774   9.194  0.2835 -0.7807 -0.4888
  110OSM   H18S11396   4.748   2.842   9.121 -2.5840 -1.3757  0.7503
  110OSM   H18T11397   4.866   2.824   9.266  0.6472 -0.8756 -0.7722
  110OSM   H18U11398   4.717   2.725   9.253 -1.7127  0.8925 -1.6973
  110OSM    C1F11399   4.691   1.913  10.666  0.2522  0.4234  0.3746
  110OSM     OF11400   4.589   1.852  10.691 -0.3850 -0.1850 -0.1167
  110OSM    C2F11401   4.831   1.850  10.667 -0.2147  0.6728  0.2276
  110OSM    H2F11402   4.859   1.837  10.774  3.0860 -1.1687 -0.7210
  110OSM    H2G11403   4.911   1.905  10.613 -0.9280  0.6758 -0.8604
  110OSM    C3F11404   4.823   1.703  10.611 -0.5486 -0.3123 -0.1144
  110OSM    H3F11405   4.746   1.638  10.658  1.5487 -2.8707 -0.0153
  110OSM    H3G11406   4.921   1.654  10.628  0.0281  0.0720 -2.0828
  110OSM    C4F11407   4.794   1.702  10.459  0.2947 -0.9517  0.4841
  110OSM    H4F11408   4.703   1.764  10.443  1.1426  0.2584  0.2684
  110OSM    H4G11409   4.759   1.600  10.432  0.0499 -0.7375 -0.0327
  110OSM    C5F11410   4.900   1.779  10.373  0.4833 -0.5902  0.9236
  110OSM    H5F11411   5.000   1.745  10.407  1.7702  3.7170  2.0175
  110OSM    H5G11412   4.896   1.887  10.396 -0.4792 -0.7684  1.6651
  110OSM    C6F11413   4.892   1.749  10.225  0.1005 -0.2425  0.2152
  110OSM    H6F11414   4.928   1.647  10.204  0.2495 -0.5335  1.7461
  110OSM    H6G11415   4.966   1.822  10.185 -0.6619  1.2798  1.4579
  110OSM    C7F11416   4.754   1.760  10.150  0.6034 -0.0122 -0.3515
  110OSM    H7F11417   4.710   1.862  10.148 -1.9242 -0.9977  0.6721
  110OSM    H7G11418   4.680   1.697  10.203 -1.6836  2.5703 -0.2336
  110OSM    C8F11419   4.778   1.707  10.006  0.1825 -0.3795  0.5587
  110OSM    H8F11420   4.853   1.625  10.004 -0.2986 -0.8092  0.0091
  110OSM    H8G11421   4.838   1.788   9.959 -0.9470 -0.1592 -0.5386
  110OSM    C9F11422   4.653   1.675   9.925  0.5632  0.1952 -1.0944
  110OSM    H9F11423   4.623   1.573   9.954 -1.6967  0.9949 -0.3821
  110OSM   C10F11424   4.596   1.744   9.825  0.3832  0.1023 -0.8489
  110OSM   H10F11425   4.510   1.702   9.770  1.8663 -2.0336 -1.6868
  110OSM   C11F11426   4.635   1.875   9.762  0.6028 -0.1253 -0.3088
  110OSM   H11F11427   4.742   1.887   9.787  0.7720 -1.1375 -0.4793
  110OSM   H11G11428   4.573   1.950   9.816 -0.5621 -1.3935  0.1781
  110OSM   C12F11429   4.602   1.870   9.612  0.3917  0.0755 -0.7833
  110OSM   H12F11430   4.492   1.873   9.592  0.2689  0.5779 -0.0577
  110OSM   H12G11431   4.648   1.781   9.564  0.3339 -0.2687 -0.2121
  110OSM   C13F11432   4.659   1.990   9.549 -0.5827  0.0242 -0.4909
  110OSM   H13F11433   4.768   1.987   9.567 -0.4397 -0.0884 -1.3165
  110OSM   H13G11434   4.622   2.072   9.614 -1.7758 -0.4229 -0.5765
  110OSM   C14F11435   4.607   2.000   9.409 -0.0788 -0.8773 -0.1342
  110OSM   H14F11436   4.636   2.091   9.353  0.6711 -2.1277 -1.8350
  110OSM   H14G11437   4.496   2.003   9.409 -0.2271 -2.7445  2.4731
  110OSM   C15F11438   4.660   1.892   9.316 -0.5230 -0.1025 -0.1935
  110OSM   H15F11439   4.626   1.798   9.364  0.1123 -0.2484 -0.0212
  110OSM   H15G11440   4.771   1.891   9.315 -0.5199 -1.3704 -0.6289
  110OSM   C16F11441   4.606   1.884   9.179 -0.2897 -0.3612 -0.3069
  110OSM   H16F11442   4.496   1.894   9.188 -0.3384 -1.0133 -0.1632
  110OSM   H16G11443   4.644   1.794   9.127  1.1515  0.4008 -0.6427
  110OSM   C17F11444   4.645   1.998   9.081  0.4512  0.1783 -0.3159
  110OSM   H17F11445   4.750   2.031   9.095  0.8629 -1.3797  0.4368
  110OSM   H17G11446   4.580   2.086   9.102  1.3283  0.7016  0.2800
  110OSM   C18F11447   4.626   1.960   8.935  0.1653 -0.3465  0.2263
  110OSM   H18F11448   4.519   1.940   8.914  0.5856 -1.0187 -1.4796
  110OSM   H18G11449   4.688   1.875   8.899  0.9570  0.5516 -0.5636
  110OSM   H18H11450   4.656   2.052   8.880  1.8966  0.0903  1.8025
  111OSM      N11451   6.460   6.448  10.997 -0.1861  0.2914 -0.5695
  111OSM    C1511452   6.337   6.509  11.062  0.7098 -0.1879 -0.5779
  111OSM   H15A11453   6.328   6.443  11.146  0.9289 -0.3757 -0.7005
  111OSM   H15B11454   6.249   6.502  11.000  0.2454  2.6791 -0.4103
  111OSM   H15C11455   6.343   6.611  11.099 -0.9480 -0.5668  0.8712
  111OSM    C1411456   6.569   6.471  11.089 -0.5599 -0.3029 -0.4777
  111OSM   H14A11457   6.556   6.424  11.186  0.0425 -3.0930 -1.6273
  111OSM   H14B11458   6.574   6.577  11.108  2.6132 -0.7296  1.8480
  111OSM   H14C11459   6.670   6.450  11.057 -0.9532 -0.7861 -1.4477
  111OSM    C1311460   6.438   6.296  10.982  0.3259 -1.0046  0.8620
  111OSM   H13A11461   6.523   6.253  10.930  2.3796  1.0619  2.2663
  111OSM   H13B11462   6.347   6.287  10.925 -1.0913  2.1719  2.3621
  111OSM   H13C11463   6.435   6.258  11.083 -0.6000  0.2840  1.3427
  111OSM    C1211464   6.488   6.521  10.867  0.5950 -0.2690 -0.6163
  111OSM   H12A11465   6.591   6.508  10.838  0.2587 -4.8179 -0.4645
  111OSM   H12B11466   6.475   6.623  10.898  0.5449 -0.3264 -0.4480
  111OSM    C1111467   6.400   6.490  10.741 -0.4544 -0.2502 -0.3201
  111OSM   H11A11468   6.425   6.388  10.703  2.0256 -0.5590  1.8717
  111OSM   H11B11469   6.441   6.560  10.666 -0.0328 -0.7764 -0.5827
  111OSM      P11470   6.199   6.656  10.748 -0.1957  0.3833  0.3345
  111OSM    O1311471   6.053   6.651  10.730 -0.6606  0.4265 -0.4015
  111OSM    O1411472   6.260   6.724  10.862 -0.1441 -0.6336 -0.2252
  111OSM    O1111473   6.256   6.730  10.624 -0.1724 -0.0366 -0.0826
  111OSM    O1211474   6.261   6.505  10.752 -0.2668 -0.0815 -0.3163
  111OSM    C1S11475   6.266   6.671  10.493  0.1636  0.0255 -0.2350
  111OSM    H1S11476   6.283   6.563  10.506 -1.3398 -0.0917  1.0134
  111OSM    H1T11477   6.334   6.731  10.428 -0.3910 -0.3849 -1.2112
  111OSM     NF11478   6.163   6.642  10.284 -1.0268  0.6756  0.0624
  111OSM    HNF11479   6.206   6.711  10.226 -0.7888  0.6188  0.1711
  111OSM    C2S11480   6.139   6.688  10.415  0.7763  0.1384  0.2616
  111OSM    H2S11481   6.056   6.633  10.464 -0.4453  1.3366 -0.3868
  111OSM    C3S11482   6.099   6.843  10.413  0.7734 -0.5985  0.0292
  111OSM    H3S11483   6.194   6.891  10.382  2.9438 -2.8964  2.5807
  111OSM     O311484   6.065   6.912  10.532 -0.3294 -0.1988  0.0021
  111OSM    HO311485   6.111   6.864  10.602 -1.1911  0.8674  1.3633
  111OSM    C4S11486   6.002   6.859  10.302  0.0964 -0.1390 -0.2030
  111OSM    H4S11487   6.047   6.904  10.212 -0.8680  0.8908 -0.1888
  111OSM    C5S11488   5.876   6.830  10.289  0.1134  0.7927  0.3922
  111OSM    H5S11489   5.814   6.791  10.371  1.7740 -0.2286  1.1946
  111OSM    C6S11490   5.806   6.857  10.157 -0.0034 -0.2045  0.2259
  111OSM    H6S11491   5.737   6.943  10.171 -1.1238 -1.2314  1.1670
  111OSM    H6T11492   5.733   6.774  10.149 -1.0190  0.8043 -1.6848
  111OSM    C7S11493   5.884   6.865  10.032  0.2449 -0.6706  0.3637
  111OSM    H7S11494   5.979   6.809  10.045  0.7386  0.0916  0.1314
  111OSM    H7T11495   5.907   6.973  10.016  0.8058 -0.2585  3.3494
  111OSM    C8S11496   5.808   6.800   9.922 -0.3664  0.1501  0.3907
  111OSM    H8S11497   5.716   6.852   9.886 -0.8468 -1.3834 -0.7312
  111OSM    H8T11498   5.782   6.696   9.951  2.2438 -0.3932  0.9414
  111OSM    C9S11499   5.905   6.773   9.806  0.0566  0.1617 -0.2341
  111OSM    H9S11500   5.995   6.714   9.834 -0.8994 -1.1787  0.1467
  111OSM    H9T11501   5.939   6.868   9.760 -1.2785 -0.3200 -2.3197
  111OSM   C10S11502   5.825   6.699   9.696 -0.6019  0.1167  0.0489
  111OSM   H10S11503   5.720   6.737   9.696  0.0167  1.9658  0.1745
  111OSM   H10T11504   5.803   6.594   9.723  1.0903 -0.3845 -0.4404
  111OSM   C11S11505   5.891   6.721   9.554 -0.0298  0.0567 -0.1537
  111OSM   H11S11506   5.996   6.684   9.551  0.0178  0.1149  0.5358
  111OSM   H11T11507   5.898   6.830   9.537  0.9339  0.1510  0.7216
  111OSM   C12S11508   5.809   6.651   9.444  0.6591 -0.1142 -0.1813
  111OSM   H12S11509   5.699   6.652   9.461  0.7958  0.4528  0.7845
  111OSM   H12T11510   5.835   6.544   9.446 -0.1149 -0.4402 -3.2481
  111OSM   C13S11511   5.844   6.719   9.310 -0.0924 -0.3339  0.3735
  111OSM   H13S11512   5.947   6.701   9.274  0.4788  0.3559  1.6246
  111OSM   H13T11513   5.813   6.825   9.310  2.1409  0.3634  0.5632
  111OSM   C14S11514   5.759   6.652   9.189  0.0095 -0.4240 -0.0369
  111OSM   H14S11515   5.664   6.628   9.242  0.8454 -1.7033  0.9513
  111OSM   H14T11516   5.799   6.549   9.174 -0.6419 -0.5902 -0.7116
  111OSM   C15S11517   5.750   6.742   9.060 -0.8800  0.9542  0.1986
  111OSM   H15S11518   5.741   6.852   9.074 -0.7591  0.8791  0.8721
  111OSM   H15T11519   5.661   6.705   9.006  1.0070 -0.3301 -2.2293
  111OSM   C16S11520   5.879   6.693   8.977  0.4936 -0.2981  0.4188
  111OSM   H16S11521   5.877   6.582   8.986 -0.5374 -0.2511  0.8966
  111OSM   H16T11522   5.968   6.720   9.038  1.1183  0.0725 -0.6267
  111OSM   C17S11523   5.890   6.738   8.831  0.1178  0.1384  0.2658
  111OSM   H17S11524   5.976   6.694   8.776  0.5643  0.6231  0.5607
  111OSM   H17T11525   5.889   6.849   8.832  0.4517  0.2022 -2.1392
  111OSM   C18S11526   5.755   6.713   8.760  0.4763 -0.3173  0.1599
  111OSM   H18S11527   5.669   6.745   8.822 -0.7465 -1.3863 -0.9251
  111OSM   H18T11528   5.740   6.603   8.757  0.1315 -0.2572 -1.2549
  111OSM   H18U11529   5.741   6.757   8.659 -2.2126 -0.1208  0.5577
  111OSM    C1F11530   6.155   6.517  10.264  0.0004 -1.0865 -0.7071
  111OSM     OF11531   6.107   6.437  10.345 -0.3827 -0.4422  0.3104
  111OSM    C2F11532   6.184   6.462  10.131 -0.0607  0.5146  0.4318
  111OSM    H2F11533   6.294   6.448  10.130 -0.0678  0.1860 -2.0738
  111OSM    H2G11534   6.145   6.539  10.061  0.3912  0.8081  0.4952
  111OSM    C3F11535   6.119   6.326  10.101  0.4850  0.6219  0.3763
  111OSM    H3F11536   6.011   6.320  10.124  0.5119  1.0410  0.6193
  111OSM    H3G11537   6.168   6.252  10.167  1.7816 -0.5645 -1.7832
  111OSM    C4F11538   6.132   6.290   9.954 -0.5529  0.1218 -0.0813
  111OSM    H4F11539   6.110   6.182   9.941  0.7097 -0.1772  0.0635
  111OSM    H4G11540   6.242   6.298   9.935 -0.2971  1.7837  1.7625
  111OSM    C5F11541   6.063   6.372   9.853  0.1756  0.1612 -0.8785
  111OSM    H5F11542   6.095   6.479   9.856  3.9109 -0.8297 -0.3026
  111OSM    H5G11543   5.952   6.371   9.864  0.2024 -2.0408 -0.3477
  111OSM    C6F11544   6.083   6.320   9.711 -0.3233  0.8630  0.5284
  111OSM    H6F11545   6.030   6.224   9.692 -0.8386  1.0630  0.9390
  111OSM    H6G11546   6.186   6.279   9.707 -0.9653 -0.8520  0.8102
  111OSM    C7F11547   6.051   6.423   9.594  0.5206 -0.4785 -0.0341
  111OSM    H7F11548   6.113   6.515   9.603 -1.0534  0.6710 -0.5427
  111OSM    H7G11549   5.942   6.445   9.594  0.1570 -1.5881  3.4466
  111OSM    C8F11550   6.084   6.354   9.468  0.5521 -0.1051  0.4056
  111OSM    H8F11551   6.038   6.254   9.449  1.4678 -0.0169 -3.1684
  111OSM    H8G11552   6.192   6.328   9.454  0.9708  2.7057 -2.9635
  111OSM    C9F11553   6.065   6.440   9.350  0.1593 -0.1191 -0.1577
  111OSM    H9F11554   6.075   6.547   9.372  0.6250 -0.5072  1.6235
  111OSM   C10F11555   6.045   6.404   9.224 -0.2917 -0.4645  0.2634
  111OSM   H10F11556   6.027   6.493   9.162  0.4516  0.7110  1.6600
  111OSM   C11F11557   6.033   6.268   9.169  0.3616 -0.4255  0.3418
  111OSM   H11F11558   5.962   6.201   9.223 -3.2418  0.1500 -3.2130
  111OSM   H11G11559   6.134   6.222   9.157  0.4551 -0.4096  0.9878
  111OSM   C12F11560   5.974   6.288   9.030  0.3949  0.3582 -0.2853
  111OSM   H12F11561   5.879   6.346   9.037  1.6791  2.5126  0.2003
  111OSM   H12G11562   5.929   6.190   9.003 -0.0893  0.5497 -0.1841
  111OSM   C13F11563   6.072   6.362   8.931 -0.6055  1.2803  0.8651
  111OSM   H13F11564   6.172   6.327   8.965 -0.8839 -0.3064  0.1433
  111OSM   H13G11565   6.065   6.473   8.933 -0.1025  1.4763 -2.4613
  111OSM   C14F11566   6.051   6.324   8.784 -0.9061  0.0406 -0.0665
  111OSM   H14F11567   5.961   6.376   8.747 -1.3758  0.0587  1.0545
  111OSM   H14G11568   6.040   6.214   8.780 -2.5797  0.1822  0.0953
  111OSM   C15F11569   6.178   6.372   8.704  0.9197 -0.2382 -0.0028
  111OSM   H15F11570   6.260   6.321   8.758  0.1835 -2.4463 -0.8605
  111OSM   H15G11571   6.177   6.483   8.705 -1.7965 -0.1959  0.0584
  111OSM   C16F11572   6.186   6.323   8.559  0.1438  0.2294 -0.1879
  111OSM   H16F11573   6.177   6.213   8.552 -2.2822  0.3585  0.2792
  111OSM   H16G11574   6.291   6.341   8.526 -0.0167  0.5833 -0.5115
  111OSM   C17F11575   6.088   6.383   8.459 -0.7060 -0.1781 -0.2832
  111OSM   H17F11576   6.084   6.494   8.468 -0.3205 -0.1649 -0.2712
  111OSM   H17G11577   5.987   6.349   8.493 -0.6043  1.4432  1.8380
  111OSM   C18F11578   6.103   6.332   8.314 -0.1006  0.0013 -0.3937
  111OSM   H18F11579   6.186   6.379   8.257 -0.8211  1.1559 -0.5068
  111OSM   H18G11580   6.004   6.350   8.267 -2.4593 -1.7974  3.4352
  111OSM   H18H11581   6.111   6.221   8.310  1.3878  0.0986 -0.8685
  112OSM      N11582   4.882   2.772  11.183  0.1795 -0.3427 -0.1528
  112OSM    C1511583   4.736   2.755  11.153  0.2315 -0.1426 -0.4217
  112OSM   H15A11584   4.682   2.707  11.234 -0.0511  1.3081  0.2845
  112OSM   H15B11585   4.725   2.700  11.061  1.5772 -0.4843 -0.3924
  112OSM   H15C11586   4.693   2.853  11.141  0.0323  0.1109  1.8344
  112OSM    C1411587   4.898   2.854  11.310 -0.7651  0.0392 -0.2484
  112OSM   H14A11588   4.998   2.884  11.339 -1.5886  2.3429  0.3779
  112OSM   H14B11589   4.847   2.805  11.392 -1.6152  3.8589  1.7415
  112OSM   H14C11590   4.849   2.948  11.294  0.0715  0.4156 -0.6256
  112OSM    C1311591   4.945   2.638  11.203  0.3847 -0.4160 -0.5867
  112OSM   H13A11592   5.051   2.655  11.220  0.4425 -0.8286 -0.5117
  112OSM   H13B11593   4.930   2.576  11.115 -0.6397  0.2567 -0.9070
  112OSM   H13C11594   4.897   2.591  11.287 -0.6437 -1.0757 -1.5108
  112OSM    C1211595   4.951   2.840  11.070 -0.4075 -0.1982  0.2133
  112OSM   H12A11596   5.056   2.860  11.089  0.0825 -0.6062 -1.8423
  112OSM   H12B11597   4.911   2.940  11.069 -1.4405 -0.6006 -0.3541
  112OSM    C1111598   4.943   2.766  10.930  0.1589 -0.0534 -0.2626
  112OSM   H11A11599   4.962   2.843  10.853 -1.2758  0.5311 -0.0557
  112OSM   H11B11600   4.842   2.732  10.899  0.3917 -0.6968 -0.3271
  112OSM      P11601   5.188   2.680  10.935 -0.1424  0.4325 -0.0223
  112OSM    O1311602   5.225   2.676  11.078  0.0864  0.6514 -0.4940
  112OSM    O1411603   5.258   2.582  10.848  0.3978  0.2248 -0.4410
  112OSM    O1111604   5.228   2.829  10.880 -0.2563  0.2778 -0.3509
  112OSM    O1211605   5.035   2.657  10.914 -0.1756  0.1569 -0.3708
  112OSM    C1S11606   5.222   2.878  10.751 -0.1896  0.2514 -0.0713
  112OSM    H1S11607   5.132   2.834  10.703  0.7940 -0.3194 -1.4353
  112OSM    H1T11608   5.309   2.838  10.695  0.0680 -0.8840  1.0959
  112OSM     NF11609   5.193   3.077  10.608 -0.4257  0.0938  0.5444
  112OSM    HNF11610   5.284   3.103  10.575  0.7039 -1.7639  1.9931
  112OSM    C2S11611   5.208   3.034  10.745 -0.4689 -0.4601  0.2111
  112OSM    H2S11612   5.116   3.067  10.798 -0.4927  0.2993 -0.2956
  112OSM    C3S11613   5.324   3.097  10.820 -0.0409  0.3488  0.4958
  112OSM    H3S11614   5.412   3.053  10.769 -0.4457  0.7493 -0.5752
  112OSM     O311615   5.342   3.058  10.954 -0.7595  0.3626  0.2432
  112OSM    HO311616   5.292   2.976  10.956 -0.2966  0.0510 -0.7754
  112OSM    C4S11617   5.335   3.240  10.792  0.8721 -0.7345 -0.4454
  112OSM    H4S11618   5.234   3.283  10.789  0.0430 -2.3627  1.7353
  112OSM    C5S11619   5.437   3.325  10.782  0.2198 -0.7557 -0.7688
  112OSM    H5S11620   5.532   3.274  10.805  0.4361  0.6365  1.9064
  112OSM    C6S11621   5.430   3.472  10.749  0.0476  0.6315  0.2871
  112OSM    H6S11622   5.523   3.497  10.693  0.9885  1.3734  2.0655
  112OSM    H6T11623   5.428   3.529  10.845  0.2827 -1.0410  1.3372
  112OSM    C7S11624   5.310   3.518  10.667  0.9318 -0.1195  0.4737
  112OSM    H7S11625   5.337   3.622  10.638  4.2975 -0.0653  3.1952
  112OSM    H7T11626   5.222   3.529  10.735 -0.5493  1.3336 -1.5449
  112OSM    C8S11627   5.301   3.446  10.531 -0.9531  0.1390 -0.2956
  112OSM    H8S11628   5.215   3.494  10.478 -1.2858 -2.8482 -2.7956
  112OSM    H8T11629   5.262   3.342  10.536  0.1067 -0.2428  0.3735
  112OSM    C9S11630   5.429   3.456  10.447 -0.1962 -0.2196 -0.2261
  112OSM    H9S11631   5.510   3.408  10.506 -0.8135 -1.8531 -0.6702
  112OSM    H9T11632   5.454   3.564  10.442  0.2423 -0.3692 -1.7215
  112OSM   C10S11633   5.405   3.387  10.314 -0.1979  0.1749 -0.6098
  112OSM   H10S11634   5.305   3.421  10.278 -1.8549 -0.9377  2.5984
  112OSM   H10T11635   5.388   3.278  10.321  2.3388 -0.3207 -1.1187
  112OSM   C11S11636   5.515   3.398  10.213 -0.0314 -0.3539  0.1439
  112OSM   H11S11637   5.611   3.357  10.250  0.3581  0.9711  0.6759
  112OSM   H11T11638   5.531   3.507  10.194 -0.7782 -0.3524 -0.5598
  112OSM   C12S11639   5.488   3.323  10.079 -0.7136  0.6328 -0.8111
  112OSM   H12S11640   5.388   3.343  10.034 -1.2105  2.5177  0.9605
  112OSM   H12T11641   5.503   3.216  10.105  0.4840  1.1407  0.7650
  112OSM   C13S11642   5.594   3.369   9.970 -0.3399  0.4524  0.7672
  112OSM   H13S11643   5.699   3.346  10.001 -0.1291  0.2222 -0.0875
  112OSM   H13T11644   5.575   3.478   9.963  1.0476  1.1267  4.6897
  112OSM   C14S11645   5.577   3.307   9.832  0.1999 -0.0236 -0.4197
  112OSM   H14S11646   5.478   3.339   9.793 -0.3338  1.6375  2.1136
  112OSM   H14T11647   5.592   3.197   9.836  0.1136 -0.0666 -1.1354
  112OSM   C15S11648   5.679   3.369   9.743  0.5984  0.2187  0.3677
  112OSM   H15S11649   5.784   3.368   9.779  1.2738  2.8218 -1.2680
  112OSM   H15T11650   5.660   3.478   9.746  1.6204  0.4095  0.2074
  112OSM   C16S11651   5.683   3.305   9.610  1.3430 -0.3663 -0.1675
  112OSM   H16S11652   5.676   3.195   9.622 -0.7392 -0.4730 -1.7998
  112OSM   H16T11653   5.772   3.325   9.547  0.4684  2.1219 -0.7417
  112OSM   C17S11654   5.563   3.351   9.531  0.5352  0.0093  0.2171
  112OSM   H17S11655   5.463   3.343   9.579  0.1831 -1.2939 -0.6782
  112OSM   H17T11656   5.562   3.275   9.449 -2.8816 -1.5080  1.4614
  112OSM   C18S11657   5.569   3.489   9.470  0.2395  0.0258  0.5715
  112OSM   H18S11658   5.557   3.571   9.544  2.2935  3.0070 -2.0952
  112OSM   H18T11659   5.496   3.489   9.386  0.7288  0.7180  0.1311
  112OSM   H18U11660   5.666   3.503   9.417 -0.2869 -0.8082 -0.6595
  112OSM    C1F11661   5.083   3.059  10.545  0.0927 -0.2454 -0.1000
  112OSM     OF11662   4.992   2.992  10.600  0.2219  0.0346  0.5972
  112OSM    C2F11663   5.063   3.113  10.408  0.5653 -0.0742 -0.2675
  112OSM    H2F11664   5.153   3.172  10.382  2.9819 -2.0793  2.7031
  112OSM    H2G11665   4.971   3.174  10.400  1.3226  1.1161 -0.1371
  112OSM    C3F11666   5.072   2.998  10.297  0.4218  0.1246 -0.5066
  112OSM    H3F11667   4.999   2.918  10.320 -1.8620  2.1110 -0.4534
  112OSM    H3G11668   5.177   2.964  10.280  0.7394 -0.0705  1.5784
  112OSM    C4F11669   5.015   3.050  10.154  0.3453 -0.1265  0.1406
  112OSM    H4F11670   4.942   3.129  10.181  0.6997  0.1506  0.2898
  112OSM    H4G11671   4.977   2.959  10.102  1.0349  0.9955 -2.5095
  112OSM    C5F11672   5.133   3.096  10.059  0.4271 -0.1515  0.8973
  112OSM    H5F11673   5.187   3.001  10.035 -1.6854 -1.1782 -0.0459
  112OSM    H5G11674   5.209   3.158  10.112  2.1374  0.0769 -1.6230
  112OSM    C6F11675   5.085   3.142   9.922 -0.0074 -0.1494 -0.2193
  112OSM    H6F11676   5.048   3.246   9.938  2.1227  0.6416 -0.1103
  112OSM    H6G11677   5.020   3.057   9.892 -0.6166 -0.5348  1.9756
  112OSM    C7F11678   5.207   3.152   9.821 -0.3618  0.0577 -0.2925
  112OSM    H7F11679   5.225   3.048   9.787  0.2270 -0.5488  1.7206
  112OSM    H7G11680   5.291   3.217   9.856 -1.0484  1.8003 -1.7084
  112OSM    C8F11681   5.152   3.229   9.700 -0.2253  0.3923 -0.6179
  112OSM    H8F11682   5.238   3.256   9.635 -0.5787 -0.5918 -1.5098
  112OSM    H8G11683   5.118   3.323   9.749 -1.0164  1.3765 -2.8882
  112OSM    C9F11684   5.040   3.159   9.621 -0.0442  0.2883 -0.6620
  112OSM    H9F11685   4.955   3.146   9.688  0.9157  0.6705  0.6728
  112OSM   C10F11686   5.035   3.127   9.494  0.6209  0.0888  0.3075
  112OSM   H10F11687   4.948   3.068   9.463  0.7659  0.1902 -0.3106
  112OSM   C11F11688   5.150   3.142   9.392 -0.2977 -0.4927  0.0613
  112OSM   H11F11689   5.220   3.224   9.417  0.4678 -1.5140  1.4324
  112OSM   H11G11690   5.116   3.168   9.289  1.4469  0.2964 -0.3501
  112OSM   C12F11691   5.233   3.015   9.391 -0.0903  0.2417  0.4104
  112OSM   H12F11692   5.165   2.933   9.358  1.5747 -1.9229  1.9979
  112OSM   H12G11693   5.257   2.994   9.498 -3.9410  0.5562  1.4858
  112OSM   C13F11694   5.356   3.011   9.296  0.1307 -0.1341 -0.1660
  112OSM   H13F11695   5.405   2.911   9.300  1.6686  0.6294  2.2339
  112OSM   H13G11696   5.425   3.093   9.325  0.3896 -0.8284  1.3039
  112OSM   C14F11697   5.317   3.049   9.155  0.4747  0.0594  0.0415
  112OSM   H14F11698   5.412   3.044   9.098 -1.0311 -1.1354 -2.5488
  112OSM   H14G11699   5.275   3.152   9.158  1.4191  0.4407  0.9228
  112OSM   C15F11700   5.224   2.961   9.088 -0.0964 -0.2990  0.3141
  112OSM   H15F11701   5.123   2.977   9.131  0.5572  0.0311  1.8014
  112OSM   H15G11702   5.254   2.856   9.105  0.3246 -0.5752 -1.8564
  112OSM   C16F11703   5.228   2.972   8.930 -0.0531 -0.8300 -0.3750
  112OSM   H16F11704   5.335   2.980   8.901  0.2504  1.5486  1.1379
  112OSM   H16G11705   5.172   3.060   8.892 -1.6032 -0.2387  2.9074
  112OSM   C17F11706   5.159   2.849   8.875 -0.3637  0.5163 -0.0651
  112OSM   H17F11707   5.072   2.831   8.941  2.1073 -0.5762  3.2110
  112OSM   H17G11708   5.223   2.759   8.889 -2.2753 -1.0178 -0.7589
  112OSM   C18F11709   5.128   2.864   8.721 -0.4222  0.6608  0.2334
  112OSM   H18F11710   5.101   2.765   8.681  2.8789 -0.4533  0.3969
  112OSM   H18G11711   5.222   2.896   8.670  0.3792 -1.1541  0.5090
  112OSM   H18H11712   5.051   2.941   8.702 -0.9478 -0.2720 -1.5566
  113OSM      N11713   2.577   6.289  11.090 -0.0158  0.0577 -0.1121
  113OSM    C1511714   2.653   6.156  11.047  0.6197  0.0938  0.3433
  113OSM   H15A11715   2.715   6.174  10.961  1.4500  0.2849  0.9668
  113OSM   H15B11716   2.576   6.092  11.008  1.7462 -1.5667  0.7414
  113OSM   H15C11717   2.717   6.108  11.120 -0.4162 -0.9569  0.5873
  113OSM    C1411718   2.514   6.335  10.963  0.3615  0.7524  0.4399
  113OSM   H14A11719   2.589   6.348  10.887 -1.5542 -0.9799 -1.9288
  113OSM   H14B11720   2.459   6.426  10.981 -1.2620 -0.3014  1.0750
  113OSM   H14C11721   2.439   6.270  10.920  1.3539  1.3482 -2.3701
  113OSM    C1311722   2.463   6.264  11.187  0.4764 -0.8578 -0.0949
  113OSM   H13A11723   2.431   6.356  11.232  2.3390 -0.0515 -0.3402
  113OSM   H13B11724   2.510   6.208  11.266  0.8818  1.5095  1.4239
  113OSM   H13C11725   2.386   6.204  11.140 -1.5029  1.0118  0.5909
  113OSM    C1211726   2.673   6.396  11.140 -0.2332 -0.0116  0.5416
  113OSM   H12A11727   2.725   6.358  11.227  1.7721  1.2064 -0.0335
  113OSM   H12B11728   2.616   6.480  11.178 -2.1415 -1.3089  0.6551
  113OSM    C1111729   2.785   6.444  11.043 -0.2840  0.4027 -0.4785
  113OSM   H11A11730   2.750   6.472  10.941  0.6477  1.8183 -0.4453
  113OSM   H11B11731   2.856   6.361  11.027 -1.5421 -0.8574  0.2317
  113OSM      P11732   2.947   6.652  11.039  0.3232  0.0638 -0.0003
  113OSM    O1311733   2.932   6.787  11.098  0.6694 -0.4355  0.5652
  113OSM    O1411734   3.083   6.588  11.054 -0.9892 -0.0025 -0.0347
  113OSM    O1111735   2.907   6.660  10.886  0.0587  0.2260 -0.2249
  113OSM    O1211736   2.843   6.553  11.111 -0.0206  0.5351  0.1817
  113OSM    C1S11737   2.806   6.756  10.847 -0.5786 -0.5692 -0.0804
  113OSM    H1S11738   2.833   6.853  10.893  2.5890 -0.9758 -0.8563
  113OSM    H1T11739   2.703   6.729  10.880 -0.0354 -0.0526  2.1659
  113OSM     NF11740   2.729   6.898  10.669  0.2023 -0.2217 -0.1186
  113OSM    HNF11741   2.635   6.871  10.650  0.1529  0.2071 -0.4965
  113OSM    C2S11742   2.807   6.783  10.692 -0.6515 -0.1535  0.0587
  113OSM    H2S11743   2.914   6.798  10.665 -0.2752 -0.3194  1.3782
  113OSM    C3S11744   2.771   6.651  10.613  0.7760 -0.1266  0.1902
  113OSM    H3S11745   2.663   6.626  10.621  1.0825 -1.9188 -0.5777
  113OSM     O311746   2.849   6.539  10.652  0.3375 -0.4005 -0.2811
  113OSM    HO311747   2.895   6.567  10.732  0.7557 -1.5509 -0.0886
  113OSM    C4S11748   2.791   6.666  10.464  0.3729 -0.3007 -0.6608
  113OSM    H4S11749   2.899   6.662  10.440  0.0452 -0.7235 -2.2022
  113OSM    C5S11750   2.695   6.678  10.371 -0.4414 -0.3529  0.1564
  113OSM    H5S11751   2.590   6.688  10.402 -0.4165  1.6538 -0.2862
  113OSM    C6S11752   2.720   6.692  10.220  0.8643  0.3369 -0.3027
  113OSM    H6S11753   2.746   6.796  10.192 -1.8733  0.6719 -1.9489
  113OSM    H6T11754   2.628   6.663  10.165  0.5962 -1.6150  1.0837
  113OSM    C7S11755   2.835   6.603  10.168  0.5988 -1.0588 -0.0015
  113OSM    H7S11756   2.834   6.505  10.220  0.8168 -0.1419  1.8252
  113OSM    H7T11757   2.933   6.645  10.196 -0.9134  2.3062  0.7258
  113OSM    C8S11758   2.836   6.577  10.016 -0.7120 -0.4558 -0.1259
  113OSM    H8S11759   2.750   6.511   9.992 -0.8048 -0.7966  1.0787
  113OSM    H8T11760   2.936   6.533   9.999 -0.0936  0.2668  1.3651
  113OSM    C9S11761   2.835   6.707   9.934  0.4286 -0.0357  1.3375
  113OSM    H9S11762   2.927   6.762   9.963  1.1760  0.0041 -0.9059
  113OSM    H9T11763   2.752   6.780   9.950  0.7359  1.0543 -1.5391
  113OSM   C10S11764   2.833   6.691   9.785  0.2812  0.1926 -0.3798
  113OSM   H10S11765   2.742   6.629   9.768 -0.8823  1.2206  1.6908
  113OSM   H10T11766   2.921   6.635   9.748 -0.4016 -0.8841 -0.4233
  113OSM   C11S11767   2.817   6.826   9.719 -0.0248  0.4587  0.4095
  113OSM   H11S11768   2.914   6.880   9.729  0.6692 -0.5211 -0.7269
  113OSM   H11T11769   2.724   6.869   9.762  0.1179 -0.0758  1.2771
  113OSM   C12S11770   2.787   6.802   9.571  0.8214  0.3093 -0.5973
  113OSM   H12S11771   2.690   6.751   9.555 -1.1817  3.5259  0.2621
  113OSM   H12T11772   2.865   6.741   9.521  0.8079 -0.3709  0.2070
  113OSM   C13S11773   2.772   6.932   9.493  0.6300  0.2917  0.0485
  113OSM   H13S11774   2.870   6.983   9.481 -0.2752  1.9671 -0.5540
  113OSM   H13T11775   2.690   6.996   9.533 -0.1278  0.2337 -1.3537
  113OSM   C14S11776   2.709   6.904   9.354 -0.3516 -0.3383  0.3182
  113OSM   H14S11777   2.606   6.875   9.385 -0.3480  0.5122  1.1415
  113OSM   H14T11778   2.762   6.820   9.303 -0.8165 -0.3735 -0.1222
  113OSM   C15S11779   2.707   7.035   9.271  0.2135  0.9925  0.4738
  113OSM   H15S11780   2.807   7.078   9.252  1.6005 -1.6261  1.3232
  113OSM   H15T11781   2.656   7.110   9.334 -0.3725 -0.3308  1.6332
  113OSM   C16S11782   2.619   7.036   9.143 -0.1150  0.0470  0.2430
  113OSM   H16S11783   2.606   7.143   9.116  0.4934 -0.3188 -1.6600
  113OSM   H16T11784   2.524   6.987   9.173 -1.3300  1.0461 -1.7882
  113OSM   C17S11785   2.683   6.981   9.019  0.3247 -0.1720 -0.0595
  113OSM   H17S11786   2.607   6.995   8.938  2.5254  1.7368 -1.9345
  113OSM   H17T11787   2.688   6.870   9.026 -3.1847 -0.4857 -0.3617
  113OSM   C18S11788   2.806   7.060   8.971 -0.0739 -0.7969  0.8407
  113OSM   H18S11789   2.813   7.055   8.860 -0.8801  2.0335  0.5886
  113OSM   H18T11790   2.899   7.021   9.019  0.1992  1.8485  2.6356
  113OSM   H18U11791   2.791   7.163   9.007 -0.8169 -1.0504  1.2722
  113OSM    C1F11792   2.774   7.021  10.694  0.5690 -0.3854 -0.2758
  113OSM     OF11793   2.886   7.042  10.738  0.8225  0.2902 -0.6305
  113OSM    C2F11794   2.686   7.126  10.645 -0.1955  0.1855 -0.7965
  113OSM    H2F11795   2.624   7.138  10.737 -0.8625 -0.0457 -1.2046
  113OSM    H2G11796   2.626   7.088  10.559  0.2564  1.8986 -1.9122
  113OSM    C3F11797   2.769   7.242  10.602  0.6822 -0.5451  0.0126
  113OSM    H3F11798   2.836   7.282  10.681  1.5694 -0.3314 -0.8274
  113OSM    H3G11799   2.688   7.312  10.573 -0.3091 -1.6351  0.0580
  113OSM    C4F11800   2.859   7.214  10.478  0.2256  0.0776 -0.0467
  113OSM    H4F11801   2.920   7.124  10.499 -0.7371 -0.6370 -0.2785
  113OSM    H4G11802   2.932   7.297  10.459  0.1247 -0.0441 -1.0321
  113OSM    C5F11803   2.786   7.200  10.345  0.0933 -0.2160  0.1041
  113OSM    H5F11804   2.724   7.290  10.325  0.6024  0.2292  0.4698
  113OSM    H5G11805   2.718   7.113  10.347  0.3139 -0.4378 -1.3521
  113OSM    C6F11806   2.881   7.186  10.225 -0.5335 -0.8148  0.0045
  113OSM    H6F11807   2.948   7.098  10.235  2.5578  1.0773 -2.3822
  113OSM    H6G11808   2.951   7.271  10.234  0.3197 -1.4639 -0.3202
  113OSM    C7F11809   2.807   7.175  10.088  0.2888 -0.0391  0.0232
  113OSM    H7F11810   2.759   7.273  10.072  0.3105 -0.5089 -3.7646
  113OSM    H7G11811   2.727   7.099  10.104  0.5030 -0.8074 -2.2084
  113OSM    C8F11812   2.891   7.134   9.967 -0.8419  0.3423 -0.1236
  113OSM    H8F11813   2.826   7.109   9.881 -0.5888  0.3231 -0.3103
  113OSM    H8G11814   2.935   7.035   9.994  1.6712  1.7803  1.5477
  113OSM    C9F11815   2.990   7.241   9.932 -0.1946 -0.2441  0.6366
  113OSM    H9F11816   3.008   7.313  10.013 -0.3932 -0.0021  0.4658
  113OSM   C10F11817   3.047   7.261   9.811 -0.0266 -0.0633  0.5749
  113OSM   H10F11818   3.114   7.347   9.791 -0.7702  0.3700 -0.1367
  113OSM   C11F11819   3.024   7.183   9.684  0.0288  0.7585  0.1900
  113OSM   H11F11820   2.978   7.250   9.608  1.1214 -0.7232 -1.8771
  113OSM   H11G11821   2.948   7.103   9.697  0.8309 -0.9230 -3.8755
  113OSM   C12F11822   3.149   7.131   9.616 -0.0957 -0.8334 -0.3107
  113OSM   H12F11823   3.113   7.078   9.525 -2.5104  0.2372 -0.0792
  113OSM   H12G11824   3.196   7.060   9.686 -1.3440 -2.0582 -0.6738
  113OSM   C13F11825   3.255   7.239   9.579  0.2068 -0.1175  0.0332
  113OSM   H13F11826   3.353   7.189   9.579  0.2167 -0.0987 -0.0181
  113OSM   H13G11827   3.273   7.305   9.667  2.5272  1.4164 -1.4693
  113OSM   C14F11828   3.244   7.307   9.440  0.5083 -0.2685 -0.4213
  113OSM   H14F11829   3.225   7.224   9.369  0.1838 -0.4445 -0.1298
  113OSM   H14G11830   3.344   7.347   9.412  0.0842  1.2828  0.1798
  113OSM   C15F11831   3.144   7.416   9.410 -0.1352  0.8181  0.2276
  113OSM   H15F11832   3.161   7.487   9.493 -0.3707 -0.1779  1.1513
  113OSM   H15G11833   3.039   7.380   9.417  0.2185 -0.9522 -2.2940
  113OSM   C16F11834   3.158   7.493   9.276 -0.2639 -0.3177  0.4327
  113OSM   H16F11835   3.241   7.566   9.282 -0.6593  0.1887 -0.2064
  113OSM   H16G11836   3.064   7.548   9.257  0.8289  1.0946 -1.1825
  113OSM   C17F11837   3.170   7.407   9.148 -0.0354 -0.8863 -1.1707
  113OSM   H17F11838   3.097   7.324   9.141  0.3710 -1.4247  0.5170
  113OSM   H17G11839   3.263   7.348   9.160 -0.0831 -0.4794  2.4080
  113OSM   C18F11840   3.176   7.500   9.023 -0.1091  1.2062 -0.4010
  113OSM   H18F11841   3.263   7.569   9.026  1.5591 -0.7908 -0.6940
  113OSM   H18G11842   3.081   7.558   9.016  0.3730  2.1080  0.2804
  113OSM   H18H11843   3.192   7.435   8.935  1.0461  0.6386  0.2100
  114OSM      N11844   4.376   2.998  11.321  0.7583  0.0013  0.0011
  114OSM    C1511845   4.507   2.944  11.371 -0.2173  0.6886  0.0615
  114OSM   H15A11846   4.584   2.976  11.303  0.4594 -0.4000  0.2953
  114OSM   H15B11847   4.517   2.836  11.365  1.5190  0.9015 -3.9645
  114OSM   H15C11848   4.533   2.972  11.472  0.6095  2.6449 -0.6564
  114OSM    C1411849   4.273   2.949  11.422 -0.3304  0.2795  0.1237
  114OSM   H14A11850   4.241   2.846  11.410 -0.4898  0.4769 -1.4232
  114OSM   H14B11851   4.181   3.004  11.409 -2.0703 -2.2918  0.7789
  114OSM   H14C11852   4.309   2.962  11.523 -2.1978  0.7443  0.7630
  114OSM    C1311853   4.367   3.143  11.323 -0.3164 -0.6230  0.2468
  114OSM   H13A11854   4.270   3.186  11.307  0.5320  1.5367  0.5772
  114OSM   H13B11855   4.435   3.185  11.251 -0.3866  0.5092  0.8278
  114OSM   H13C11856   4.398   3.185  11.418  1.5686  0.1525 -0.6556
  114OSM    C1211857   4.334   2.949  11.181  0.0747 -0.0003 -0.9165
  114OSM   H12A11858   4.228   2.963  11.165  0.2257  1.1352 -0.9549
  114OSM   H12B11859   4.345   2.842  11.171  2.9893  0.4013 -3.2634
  114OSM    C1111860   4.403   3.010  11.061 -0.6734 -0.4714  0.2907
  114OSM   H11A11861   4.366   3.114  11.050 -1.2705 -0.6396  0.6790
  114OSM   H11B11862   4.364   2.963  10.968 -1.0168  1.0025 -0.3342
  114OSM      P11863   4.637   3.119  11.010 -0.4291  0.2003 -0.1375
  114OSM    O1311864   4.574   3.245  11.050  0.3001 -0.0738 -0.4257
  114OSM    O1411865   4.778   3.100  11.048 -0.1053  1.2525  0.3495
  114OSM    O1111866   4.601   3.086  10.860 -0.4769  0.3257  0.8249
  114OSM    O1211867   4.550   3.002  11.067 -0.1672  0.5478  0.2780
  114OSM    C1S11868   4.673   2.970  10.809  0.4825 -0.3556  0.2534
  114OSM    H1S11869   4.634   2.877  10.856 -1.2720  1.1230  1.9038
  114OSM    H1T11870   4.782   2.974  10.828  0.7530 -1.3693 -0.9708
  114OSM     NF11871   4.737   2.851  10.614  0.0971 -0.2539  0.2244
  114OSM    HNF11872   4.835   2.869  10.611  0.0718 -0.2660 -1.2754
  114OSM    C2S11873   4.646   2.963  10.655 -0.0083 -0.2426 -0.3832
  114OSM    H2S11874   4.540   2.932  10.642 -0.6868  1.7954 -0.0237
  114OSM    C3S11875   4.675   3.097  10.583 -0.3489 -0.0756 -0.2677
  114OSM    H3S11876   4.783   3.121  10.580 -0.3340 -0.0297  0.4802
  114OSM     O311877   4.622   3.220  10.646 -0.2218  0.0079  0.1717
  114OSM    HO311878   4.592   3.188  10.732 -0.0894 -0.9234 -0.1105
  114OSM    C4S11879   4.640   3.079  10.431 -0.2655 -0.3611  0.3343
  114OSM    H4S11880   4.718   3.035  10.367 -1.8566  0.6266 -2.5102
  114OSM    C5S11881   4.516   3.084  10.379  0.8438  0.8375  0.1225
  114OSM    H5S11882   4.432   3.115  10.443  0.0894  2.8458 -1.7176
  114OSM    C6S11883   4.474   3.041  10.244  0.4984 -0.5142  0.6577
  114OSM    H6S11884   4.444   3.131  10.188 -0.1924 -2.8594 -3.0601
  114OSM    H6T11885   4.389   2.970  10.243  0.7916 -0.8955  1.3875
  114OSM    C7S11886   4.583   2.979  10.157  0.1397 -0.6187 -0.1694
  114OSM    H7S11887   4.666   3.052  10.154  0.2535 -0.7184  0.3529
  114OSM    H7T11888   4.557   2.969  10.050 -3.8812 -1.7023  0.7572
  114OSM    C8S11889   4.640   2.842  10.206  0.1649  0.4027  0.6680
  114OSM    H8S11890   4.570   2.799  10.281  0.5335 -0.5057  0.4988
  114OSM    H8T11891   4.731   2.880  10.257  1.4628  1.2068 -2.0473
  114OSM    C9S11892   4.691   2.737  10.109  0.0731  0.3547 -0.6364
  114OSM    H9S11893   4.746   2.659  10.165  1.2391  0.1212 -2.0529
  114OSM    H9T11894   4.759   2.774  10.030  0.6562  0.0563 -0.2765
  114OSM   C10S11895   4.573   2.666  10.034 -0.2211 -1.2096  0.5540
  114OSM   H10S11896   4.498   2.743  10.008  2.3914  0.8492 -1.4616
  114OSM   H10T11897   4.531   2.592  10.106  2.5542 -1.2779  2.2765
  114OSM   C11S11898   4.623   2.599   9.909 -0.6780  0.6926  1.0549
  114OSM   H11S11899   4.723   2.555   9.932 -0.8681  0.1563  0.8601
  114OSM   H11T11900   4.655   2.679   9.839  2.9139 -1.5815 -0.2157
  114OSM   C12S11901   4.520   2.493   9.852 -0.8795  0.5798 -0.6888
  114OSM   H12S11902   4.424   2.540   9.881 -0.8125 -1.0074  2.5052
  114OSM   H12T11903   4.538   2.396   9.903 -1.7206 -0.6069 -2.5124
  114OSM   C13S11904   4.536   2.457   9.710  0.4219  0.3742  0.0694
  114OSM   H13S11905   4.636   2.425   9.674  0.3496  0.7204 -0.4498
  114OSM   H13T11906   4.526   2.547   9.645  2.4583  0.1503 -0.6504
  114OSM   C14S11907   4.439   2.346   9.655 -0.4992  0.6294 -0.5806
  114OSM   H14S11908   4.330   2.365   9.667 -0.4709 -0.1021  1.0954
  114OSM   H14T11909   4.472   2.254   9.708 -0.0803  1.1155  0.0213
  114OSM   C15S11910   4.474   2.315   9.510  0.1984 -0.1632  0.0015
  114OSM   H15S11911   4.423   2.221   9.481 -3.0323  1.1516  0.9583
  114OSM   H15T11912   4.581   2.285   9.503 -0.1113 -1.4757  0.6927
  114OSM   C16S11913   4.435   2.429   9.412 -0.9033  0.5695 -0.2638
  114OSM   H16S11914   4.509   2.511   9.422 -1.2525  0.8178  0.3763
  114OSM   H16T11915   4.331   2.450   9.445 -0.9464  1.2051 -0.8015
  114OSM   C17S11916   4.435   2.363   9.273 -0.2721 -0.1999  0.1152
  114OSM   H17S11917   4.362   2.280   9.273  1.8248 -2.1216  0.0732
  114OSM   H17T11918   4.537   2.338   9.238 -0.5554  0.5420 -1.3374
  114OSM   C18S11919   4.393   2.474   9.165  0.0301  0.1548  0.2360
  114OSM   H18S11920   4.376   2.432   9.064  0.8647  1.8491 -0.6402
  114OSM   H18T11921   4.470   2.553   9.163 -2.1479  2.3767 -0.2538
  114OSM   H18U11922   4.302   2.520   9.210  0.6379 -1.0438  2.9366
  114OSM    C1F11923   4.695   2.722  10.626  0.5340  0.2104 -0.9153
  114OSM     OF11924   4.584   2.701  10.675 -0.3526 -0.1160 -0.2594
  114OSM    C2F11925   4.791   2.610  10.601 -0.2178  0.0532  0.3279
  114OSM    H2F11926   4.752   2.510  10.631  1.2275 -1.0782 -1.3451
  114OSM    H2G11927   4.886   2.633  10.653 -0.5817  0.0987  0.9812
  114OSM    C3F11928   4.835   2.594  10.449  0.5112  0.1337  0.4586
  114OSM    H3F11929   4.859   2.692  10.402  2.3404 -1.5898 -2.5155
  114OSM    H3G11930   4.743   2.560  10.397  0.8390 -0.7443  0.4256
  114OSM    C4F11931   4.953   2.501  10.420 -0.3616 -0.1220  0.4460
  114OSM    H4F11932   4.935   2.399  10.458  0.4416 -1.1093 -1.6974
  114OSM    H4G11933   5.044   2.535  10.474 -0.5167 -0.3009  0.8227
  114OSM    C5F11934   4.984   2.494  10.272  0.4619 -0.0863 -0.6791
  114OSM    H5F11935   4.894   2.460  10.218 -0.8328  0.2211  1.1924
  114OSM    H5G11936   5.054   2.410  10.252 -0.2174 -0.7616 -0.2932
  114OSM    C6F11937   5.041   2.619  10.203  0.0286 -0.3764  0.1346
  114OSM    H6F11938   5.138   2.638  10.253  0.4242 -2.1793  0.1241
  114OSM    H6G11939   4.976   2.706  10.227  2.8077  1.4009  1.6496
  114OSM    C7F11940   5.046   2.592  10.050 -0.3471  0.2213 -0.4380
  114OSM    H7F11941   4.944   2.609  10.008  1.0144  0.5030 -3.9990
  114OSM    H7G11942   5.064   2.482  10.047  1.1473  0.4504 -0.3548
  114OSM    C8F11943   5.145   2.690   9.978 -0.0584  0.2396  0.8163
  114OSM    H8F11944   5.246   2.676  10.022 -0.6179 -0.1851  1.9911
  114OSM    H8G11945   5.119   2.796   9.999  2.0887  1.3192 -1.4678
  114OSM    C9F11946   5.152   2.669   9.830  0.3977 -0.0047 -0.0535
  114OSM    H9F11947   5.221   2.590   9.798 -1.2062 -2.0343  1.2125
  114OSM   C10F11948   5.078   2.725   9.733 -0.6514  0.2281 -0.2839
  114OSM   H10F11949   5.102   2.710   9.626  0.0982  2.7791 -0.5367
  114OSM   C11F11950   4.976   2.827   9.742 -0.1533 -0.1734 -0.5490
  114OSM   H11F11951   5.014   2.931   9.727 -0.3753 -0.2641 -1.8040
  114OSM   H11G11952   4.937   2.822   9.846 -2.2679 -0.2302 -1.2838
  114OSM   C12F11953   4.851   2.816   9.645  0.2691  0.0343  0.0701
  114OSM   H12F11954   4.816   2.710   9.642 -0.0091  0.1408 -0.6555
  114OSM   H12G11955   4.883   2.859   9.548 -0.0666 -1.7827 -0.9016
  114OSM   C13F11956   4.742   2.903   9.692 -0.2993 -0.4725 -0.4893
  114OSM   H13F11957   4.784   3.002   9.722 -2.8389  0.3405  0.6285
  114OSM   H13G11958   4.689   2.864   9.781 -0.4708  0.8421  0.0060
  114OSM   C14F11959   4.648   2.948   9.580  0.1707  0.8949  0.6211
  114OSM   H14F11960   4.717   2.985   9.501  0.1001 -2.0759 -0.9678
  114OSM   H14G11961   4.574   3.026   9.607  1.6941  3.0070 -0.9292
  114OSM   C15F11962   4.570   2.832   9.509  0.4211  0.3507 -0.7077
  114OSM   H15F11963   4.511   2.783   9.589  0.1009 -1.6988 -2.1209
  114OSM   H15G11964   4.629   2.748   9.465  0.4115  0.0140 -0.0801
  114OSM   C16F11965   4.487   2.903   9.400 -0.8139  0.3942 -0.5185
  114OSM   H16F11966   4.563   2.949   9.333  0.5612 -1.8212 -0.6018
  114OSM   H16G11967   4.444   2.992   9.450  1.4559  0.7413  0.9800
  114OSM   C17F11968   4.392   2.821   9.315 -0.6030 -0.0104 -0.4827
  114OSM   H17F11969   4.441   2.731   9.271  1.3079  0.5561  0.3987
  114OSM   H17G11970   4.365   2.878   9.223  0.1386  0.6958 -0.2768
  114OSM   C18F11971   4.284   2.757   9.405 -0.5607 -0.2996  0.7979
  114OSM   H18F11972   4.319   2.733   9.508 -0.9159 -0.8026  0.8034
  114OSM   H18G11973   4.241   2.665   9.359 -1.7143  0.2782  0.6975
  114OSM   H18H11974   4.199   2.827   9.415  1.1964  2.6677 -2.7131
  115OSM      N11975   2.102   3.482  11.312  0.3829 -0.3536 -0.2005
  115OSM    C1511976   2.208   3.573  11.255 -0.0554  0.0286  0.2148
  115OSM   H15A11977   2.165   3.657  11.203  2.4765  0.1380 -1.8996
  115OSM   H15B11978   2.265   3.523  11.179 -0.6692 -0.2443 -0.0698
  115OSM   H15C11979   2.271   3.612  11.333 -2.1867 -0.9493  2.5767
  115OSM    C1411980   2.162   3.349  11.355  0.0904  0.6410  0.1989
  115OSM   H14A11981   2.225   3.321  11.271  1.4606  4.5242 -0.2493
  115OSM   H14B11982   2.083   3.277  11.373 -1.1772  2.1995  1.0724
  115OSM   H14C11983   2.217   3.365  11.446 -1.1004  1.3716  0.8102
  115OSM    C1311984   2.024   3.552  11.418  0.6655  0.1588  0.6569
  115OSM   H13A11985   1.931   3.503  11.442 -0.1835  1.1434 -0.5151
  115OSM   H13B11986   1.993   3.651  11.387  1.3070 -0.2329 -1.3935
  115OSM   H13C11987   2.078   3.563  11.511 -1.1591  0.6450  1.7043
  115OSM    C1211988   1.999   3.444  11.199 -0.7358 -0.6405  0.2867
  115OSM   H12A11989   1.919   3.516  11.184 -1.7316 -1.4598  1.4835
  115OSM   H12B11990   1.945   3.357  11.231 -0.3088 -1.1503 -0.3495
  115OSM    C1111991   2.060   3.409  11.058  0.7699  0.1715 -0.1572
  115OSM   H11A11992   2.133   3.483  11.020 -1.3531  1.2490 -2.3694
  115OSM   H11B11993   1.976   3.416  10.986 -0.1645  0.6538  0.9555
  115OSM      P11994   2.047   3.152  11.077 -0.0466 -0.1834  0.2094
  115OSM    O1311995   2.106   3.088  11.194  0.3376 -0.2347  0.0316
  115OSM    O1411996   1.900   3.178  11.081 -0.6467 -0.4770 -0.0882
  115OSM    O1111997   2.084   3.072  10.947  0.3161 -0.1534 -0.1612
  115OSM    O1211998   2.119   3.282  11.056  0.0384 -0.3100 -0.1371
  115OSM    C1S11999   2.024   3.096  10.818 -0.7667 -0.1796 -0.4163
  115OSM    H1S12000   1.918   3.126  10.831 -0.4561  0.4471  0.7567
  115OSM    H1T12001   2.022   2.997  10.767 -2.1661  0.0998 -0.9481
  115OSM     NF12002   2.031   3.229  10.616  0.6444  0.2661  0.0960
  115OSM    HNF12003   2.076   3.192  10.535  1.1839 -0.5134  0.7332
  115OSM    C2S12004   2.104   3.199  10.731 -0.0245 -0.4797  0.2639
  115OSM    H2S12005   2.110   3.290  10.795 -1.2110  0.2151 -0.5474
  115OSM    C3S12006   2.245   3.147  10.692 -0.0733  0.0909 -0.6657
  115OSM    H3S12007   2.217   3.056  10.635  0.3995 -0.6966  0.3167
  115OSM     O312008   2.326   3.092  10.798 -0.0189 -0.2946 -0.6154
  115OSM    HO312009   2.266   3.084  10.872 -0.3674 -2.8677 -1.0784
  115OSM    C4S12010   2.313   3.257  10.615  0.5359 -0.1907 -0.5368
  115OSM    H4S12011   2.256   3.291  10.528 -3.6672 -0.1551  1.9381
  115OSM    C5S12012   2.415   3.331  10.665  1.2935  0.2161 -0.5354
  115OSM    H5S12013   2.460   3.303  10.761 -0.8541 -2.0104 -0.0829
  115OSM    C6S12014   2.485   3.440  10.596 -0.0890 -0.4194  0.5068
  115OSM    H6S12015   2.499   3.530  10.659  1.5246  0.3995 -0.9417
  115OSM    H6T12016   2.413   3.476  10.520 -3.2342 -2.6446  2.2263
  115OSM    C7S12017   2.619   3.387  10.544 -0.1456 -0.0125 -0.5908
  115OSM    H7S12018   2.671   3.333  10.626 -1.8825 -1.1376 -0.1783
  115OSM    H7T12019   2.692   3.466  10.515  1.8381 -1.0175  1.3396
  115OSM    C8S12020   2.606   3.291  10.429 -0.1832 -0.1411  0.0900
  115OSM    H8S12021   2.519   3.224  10.444  1.8445 -2.5252  2.1671
  115OSM    H8T12022   2.702   3.240  10.407 -0.3633 -0.8294  0.8659
  115OSM    C9S12023   2.569   3.370  10.298 -0.0162  0.8688  0.6990
  115OSM    H9S12024   2.639   3.455  10.285  1.3937 -0.0981  1.7336
  115OSM    H9T12025   2.461   3.398  10.292 -0.3660 -0.4222  0.6332
  115OSM   C10S12026   2.598   3.274  10.177  0.1374  0.0820  0.3090
  115OSM   H10S12027   2.523   3.191  10.183 -1.5098  1.5056  0.3513
  115OSM   H10T12028   2.699   3.231  10.189 -0.5135 -1.8253 -0.6265
  115OSM   C11S12029   2.584   3.350  10.044 -0.8305 -0.0379 -0.0210
  115OSM   H11S12030   2.674   3.414  10.040 -0.7759  0.4366  4.4965
  115OSM   H11T12031   2.495   3.418  10.043 -1.0624 -0.3353 -1.1618
  115OSM   C12S12032   2.576   3.261   9.918  0.0668 -0.1111 -0.8180
  115OSM   H12S12033   2.482   3.202   9.928  0.8553 -1.2038  0.6478
  115OSM   H12T12034   2.664   3.195   9.907 -0.4998 -0.8192 -1.1825
  115OSM   C13S12035   2.577   3.335   9.788  1.0062 -0.6622  0.6709
  115OSM   H13S12036   2.670   3.394   9.779  0.0153  1.1310  1.6834
  115OSM   H13T12037   2.501   3.416   9.781  0.3238 -1.3791 -4.8225
  115OSM   C14S12038   2.542   3.258   9.664 -0.0593  0.4399 -0.3717
  115OSM   H14S12039   2.434   3.232   9.652  0.0321  1.1429 -3.6470
  115OSM   H14T12040   2.606   3.167   9.667  3.1926  2.5883 -0.3085
  115OSM   C15S12041   2.548   3.329   9.522  0.4547  0.2622  0.3082
  115OSM   H15S12042   2.653   3.355   9.498  0.6358 -0.5146  0.2371
  115OSM   H15T12043   2.491   3.424   9.514  0.7652  0.3405 -1.4860
  115OSM   C16S12044   2.482   3.237   9.407  1.0043  0.1944 -0.4403
  115OSM   H16S12045   2.378   3.214   9.437  1.5515 -1.6584  0.1764
  115OSM   H16T12046   2.539   3.141   9.411 -0.7179 -0.9008 -1.2281
  115OSM   C17S12047   2.486   3.297   9.260 -1.1753  0.9066 -0.2812
  115OSM   H17S12048   2.594   3.309   9.238 -0.5791  0.0253  1.8849
  115OSM   H17T12049   2.441   3.399   9.270 -0.0939  1.2854  1.0881
  115OSM   C18S12050   2.416   3.217   9.158  0.2658  0.0566 -0.4136
  115OSM   H18S12051   2.476   3.130   9.124 -0.5666 -0.9446  0.5743
  115OSM   H18T12052   2.378   3.275   9.072  1.3868 -0.2500 -1.1327
  115OSM   H18U12053   2.327   3.165   9.201 -0.1817  1.0627 -0.1107
  115OSM    C1F12054   1.912   3.295  10.605 -0.1521  0.7577 -0.0504
  115OSM     OF12055   1.852   3.339  10.710  0.1337  0.4484  1.0761
  115OSM    C2F12056   1.861   3.329  10.465 -0.1025 -0.0211 -0.0885
  115OSM    H2F12057   1.870   3.242  10.397 -0.6208  1.0223 -1.5499
  115OSM    H2G12058   1.930   3.409  10.431  0.2765 -0.4673 -0.3863
  115OSM    C3F12059   1.715   3.382  10.474 -0.5521 -0.0744  0.0632
  115OSM    H3F12060   1.730   3.467  10.544  0.8611 -0.5549  0.3669
  115OSM    H3G12061   1.661   3.297  10.522 -0.7629  0.4176  0.7124
  115OSM    C4F12062   1.643   3.420  10.346  0.0901 -0.1301  0.7002
  115OSM    H4F12063   1.545   3.471  10.360 -0.6167 -0.9457 -0.9431
  115OSM    H4G12064   1.621   3.324  10.295 -0.0338 -0.3143  1.0898
  115OSM    C5F12065   1.709   3.527  10.252  0.0277 -0.1017 -0.6412
  115OSM    H5F12066   1.806   3.491  10.212 -0.2346 -0.7257 -0.7403
  115OSM    H5G12067   1.726   3.611  10.323 -1.0837  0.1088 -0.6016
  115OSM    C6F12068   1.624   3.574  10.142  0.6271  0.8484  0.0482
  115OSM    H6F12069   1.517   3.567  10.173  1.0203  0.6366  1.4024
  115OSM    H6G12070   1.618   3.521  10.045 -1.0629  2.5133 -0.8284
  115OSM    C7F12071   1.652   3.725  10.117  0.2740 -0.4129 -0.5559
  115OSM    H7F12072   1.753   3.734  10.072  0.5183  1.1677  0.2280
  115OSM    H7G12073   1.661   3.795  10.202  1.1900 -1.3590  0.1486
  115OSM    C8F12074   1.564   3.788  10.007 -0.0245  0.1308  0.0583
  115OSM    H8F12075   1.600   3.893  10.001  2.0991 -0.3635  2.2130
  115OSM    H8G12076   1.456   3.788  10.032  0.4882 -0.1954  2.5412
  115OSM    C9F12077   1.578   3.725   9.873  0.8941  0.8912 -0.6168
  115OSM    H9F12078   1.562   3.617   9.869 -1.5240  1.1986 -0.4695
  115OSM   C10F12079   1.593   3.786   9.749  0.2943 -0.2101 -0.5402
  115OSM   H10F12080   1.594   3.717   9.663 -0.3049 -1.8868  0.7325
  115OSM   C11F12081   1.597   3.935   9.719 -1.3899  0.0485  0.2870
  115OSM   H11F12082   1.583   4.001   9.808  1.6359  0.5277  0.4849
  115OSM   H11G12083   1.510   3.966   9.657 -0.2363 -0.1384 -1.4660
  115OSM   C12F12084   1.731   3.968   9.653 -0.5109  0.2871 -0.0079
  115OSM   H12F12085   1.822   3.925   9.701  0.1907  0.0745 -1.4815
  115OSM   H12G12086   1.739   4.078   9.640 -0.9589  0.1425 -1.8272
  115OSM   C13F12087   1.728   3.911   9.504  0.5667  0.0180  0.3368
  115OSM   H13F12088   1.628   3.907   9.456  0.3791  1.2158  0.6049
  115OSM   H13G12089   1.769   3.807   9.504 -1.1883 -0.7275 -0.9506
  115OSM   C14F12090   1.817   3.997   9.398  0.6878 -0.8603 -0.6364
  115OSM   H14F12091   1.915   3.989   9.450  0.2392  0.1683  0.3944
  115OSM   H14G12092   1.780   4.101   9.395  1.0540 -0.7317 -3.2401
  115OSM   C15F12093   1.821   3.938   9.257  0.1897  0.1852  0.6471
  115OSM   H15F12094   1.723   3.912   9.212 -0.7046  1.8895  1.4990
  115OSM   H15G12095   1.881   3.845   9.266 -0.9620 -0.5979  0.5142
  115OSM   C16F12096   1.894   4.017   9.143 -0.2516  0.3954 -0.4249
  115OSM   H16F12097   1.915   3.950   9.057 -1.8178 -0.1337 -0.4253
  115OSM   H16G12098   1.988   4.058   9.187  0.3193  1.1808 -2.2822
  115OSM   C17F12099   1.814   4.140   9.087  0.2081 -0.2345  0.5066
  115OSM   H17F12100   1.798   4.210   9.171  3.0673 -1.6969  2.4529
  115OSM   H17G12101   1.714   4.100   9.061  0.4805 -0.8177  0.3336
  115OSM   C18F12102   1.873   4.206   8.959 -0.0993 -0.2486 -0.5207
  115OSM   H18F12103   1.795   4.273   8.917 -1.2893 -0.2486  1.5479
  115OSM   H18G12104   1.896   4.123   8.889  1.0803 -1.0319  0.7524
  115OSM   H18H12105   1.966   4.262   8.981 -0.6501  0.3262  0.4737
  116OSM      N12106   5.504   6.284  11.134 -0.1892 -0.2372 -0.4601
  116OSM    C1512107   5.423   6.363  11.230 -0.4699 -0.6675  0.5497
  116OSM   H15A12108   5.436   6.328  11.331  2.0974 -1.0571  0.1593
  116OSM   H15B12109   5.320   6.348  11.200 -0.6671  0.1581  0.7990
  116OSM   H15C12110   5.457   6.465  11.221 -0.0888 -0.8514 -0.1895
  116OSM    C1412111   5.633   6.247  11.196 -0.4564 -0.4414  0.7351
  116OSM   H14A12112   5.699   6.211  11.119 -0.0388  1.2666  0.2549
  116OSM   H14B12113   5.616   6.174  11.274  1.1585 -1.8970 -0.2186
  116OSM   H14C12114   5.682   6.337  11.232 -0.0479 -0.4864  0.2914
  116OSM    C1312115   5.429   6.154  11.120  0.4863  0.2385 -0.2412
  116OSM   H13A12116   5.483   6.076  11.069 -1.3752 -2.1857  1.3091
  116OSM   H13B12117   5.337   6.161  11.065  0.8151 -0.1964 -0.8598
  116OSM   H13C12118   5.406   6.126  11.222 -3.5664  0.2712 -0.9863
  116OSM    C1212119   5.519   6.347  10.999 -0.2513 -0.2217 -0.6848
  116OSM   H12A12120   5.567   6.443  11.011 -0.5179  0.2876 -3.0878
  116OSM   H12B12121   5.421   6.368  10.959 -1.5111  0.1173  2.3694
  116OSM    C1112122   5.593   6.276  10.882  0.2189  0.0020  0.0672
  116OSM   H11A12123   5.590   6.334  10.788  0.4888  1.1449  0.7385
  116OSM   H11B12124   5.553   6.175  10.859 -0.7569  0.7413 -1.6465
  116OSM      P12125   5.852   6.358  10.906  0.2789 -0.2140  0.2563
  116OSM    O1312126   5.810   6.470  10.997  0.4710  0.3382 -0.3197
  116OSM    O1412127   5.979   6.294  10.940  0.1202  0.1012  0.5626
  116OSM    O1112128   5.848   6.406  10.751  0.3165  0.1150 -0.4363
  116OSM    O1212129   5.732   6.260  10.915  0.5375 -0.1977 -0.1184
  116OSM    C1S12130   5.918   6.336  10.647  0.5540 -0.1385 -0.9881
  116OSM    H1S12131   5.941   6.232  10.680  0.7304  0.5274  1.1158
  116OSM    H1T12132   6.002   6.405  10.624  0.5815  0.3231  0.4221
  116OSM     NF12133   5.903   6.243  10.418  0.5379  0.1407 -0.3717
  116OSM    HNF12134   5.962   6.291  10.353 -1.9329  1.0992 -2.0753
  116OSM    C2S12135   5.833   6.324  10.520 -0.0481 -0.2843  0.3894
  116OSM    H2S12136   5.740   6.269  10.548 -0.4226 -0.1192 -0.4850
  116OSM    C3S12137   5.791   6.457  10.469 -0.2950  0.6377  0.7337
  116OSM    H3S12138   5.882   6.507  10.432  0.2929 -1.4006 -0.7365
  116OSM     O312139   5.734   6.543  10.565  0.3720 -0.1220  0.1669
  116OSM    HO312140   5.763   6.502  10.647  1.6906  0.7992  0.1963
  116OSM    C4S12141   5.708   6.447  10.349  0.0070 -0.1591 -0.2397
  116OSM    H4S12142   5.611   6.400  10.371 -0.5758  1.1246  0.0270
  116OSM    C5S12143   5.742   6.471  10.218  1.6275 -0.8782  0.2207
  116OSM    H5S12144   5.836   6.513  10.178  0.2352  1.9916 -0.2607
  116OSM    C6S12145   5.640   6.457  10.105  0.4202  0.0677 -0.9044
  116OSM    H6S12146   5.668   6.518  10.017  3.5511  0.3890  0.1687
  116OSM    H6T12147   5.537   6.479  10.141  1.0351  0.4424  0.7182
  116OSM    C7S12148   5.653   6.312  10.064  0.1852  0.0168  0.3717
  116OSM    H7S12149   5.619   6.245  10.147 -0.0751 -1.3737 -0.8180
  116OSM    H7T12150   5.753   6.272  10.036  0.5514 -0.2375  1.9063
  116OSM    C8S12151   5.561   6.271   9.942 -0.1497 -0.1957  1.0057
  116OSM    H8S12152   5.457   6.303   9.962 -0.9838 -2.3247  0.3251
  116OSM    H8T12153   5.572   6.162   9.925  2.8680  0.2160 -0.4138
  116OSM    C9S12154   5.618   6.329   9.807 -0.6412  0.1629 -0.0134
  116OSM    H9S12155   5.713   6.274   9.788 -1.6816 -0.7623 -3.3097
  116OSM    H9T12156   5.638   6.437   9.816  0.2585 -0.0349  0.4887
  116OSM   C10S12157   5.537   6.299   9.671 -0.1427  0.3632 -0.6731
  116OSM   H10S12158   5.440   6.348   9.697  0.9828  2.2647  0.1676
  116OSM   H10T12159   5.527   6.189   9.658 -0.4861  0.1235  1.2583
  116OSM   C11S12160   5.588   6.379   9.550  0.2717  0.4387 -0.1112
  116OSM   H11S12161   5.649   6.459   9.597 -0.4103  1.1443 -0.4182
  116OSM   H11T12162   5.501   6.413   9.491 -1.1731 -0.3083  1.5127
  116OSM   C12S12163   5.676   6.300   9.456  0.3759  0.0589 -0.3958
  116OSM   H12S12164   5.768   6.259   9.503  1.0156  0.8058 -0.9680
  116OSM   H12T12165   5.723   6.380   9.394  2.7684 -2.0142 -1.4361
  116OSM   C13S12166   5.609   6.192   9.372  0.4309  0.6471  0.0183
  116OSM   H13S12167   5.505   6.226   9.356  0.3294  1.2221  1.7130
  116OSM   H13T12168   5.608   6.098   9.432 -1.2567  0.6287  0.0047
  116OSM   C14S12169   5.672   6.182   9.231 -0.0759 -0.4197 -0.6115
  116OSM   H14S12170   5.762   6.120   9.251  1.2603  1.7554  0.5568
  116OSM   H14T12171   5.707   6.287   9.217 -2.8687  0.3866 -2.2714
  116OSM   C15S12172   5.585   6.125   9.126  0.2018 -0.5415  0.2224
  116OSM   H15S12173   5.558   6.017   9.131  1.9739 -1.0589 -0.5267
  116OSM   H15T12174   5.642   6.125   9.030 -2.5261 -0.3459 -1.5197
  116OSM   C16S12175   5.459   6.209   9.096  0.1413 -0.1780 -0.4058
  116OSM   H16S12176   5.404   6.236   9.188  1.3594  1.7095 -0.1730
  116OSM   H16T12177   5.387   6.155   9.031 -0.4221 -0.0044  0.0665
  116OSM   C17S12178   5.488   6.353   9.025  0.0539  0.4125 -0.4375
  116OSM   H17S12179   5.571   6.413   9.066  1.9121 -2.3479  0.1127
  116OSM   H17T12180   5.403   6.422   9.047 -1.1856 -1.0224 -0.5129
  116OSM   C18S12181   5.486   6.338   8.869 -0.0586 -0.7491 -0.0391
  116OSM   H18S12182   5.570   6.269   8.845 -0.8868 -1.7030 -0.2793
  116OSM   H18T12183   5.503   6.440   8.826 -0.3491  0.2834  2.1780
  116OSM   H18U12184   5.384   6.313   8.831 -0.2551  1.1972 -0.9460
  116OSM    C1F12185   5.915   6.115  10.439  0.0629  0.3842 -0.1711
  116OSM     OF12186   5.848   6.052  10.526 -0.2261  0.4522 -0.5420
  116OSM    C2F12187   6.024   6.046  10.364  0.3091  0.0726 -0.5900
  116OSM    H2F12188   6.083   5.982  10.433 -0.2954  1.2274  1.0496
  116OSM    H2G12189   6.097   6.114  10.315  1.8770 -1.5400 -0.6091
  116OSM    C3F12190   5.978   5.944  10.263  0.0078 -0.0204  0.6334
  116OSM    H3F12191   5.878   5.917  10.304 -1.8354  3.4721 -1.0891
  116OSM    H3G12192   6.036   5.850  10.252  2.6852  1.7508 -1.8863
  116OSM    C4F12193   5.966   5.999  10.125  0.2098 -0.3596  0.4357
  116OSM    H4F12194   6.069   6.008  10.084 -0.1862 -0.8942 -0.7394
  116OSM    H4G12195   5.919   6.100  10.132  1.6403  0.2606  1.7112
  116OSM    C5F12196   5.892   5.906  10.028  0.2281  0.3715 -0.2444
  116OSM    H5F12197   5.803   5.855  10.072 -0.5368  1.9949  0.1891
  116OSM    H5G12198   5.962   5.825  10.000 -0.3595  0.1987 -1.2390
  116OSM    C6F12199   5.853   5.980   9.902  0.2390  0.4492  0.6188
  116OSM    H6F12200   5.940   6.034   9.859  0.0062 -0.1874 -0.7226
  116OSM    H6G12201   5.770   6.051   9.920 -1.6665 -1.2553 -0.8216
  116OSM    C7F12202   5.799   5.884   9.792  0.4923 -0.4462  0.2775
  116OSM    H7F12203   5.714   5.826   9.834  1.7395 -0.9240  2.3057
  116OSM    H7G12204   5.876   5.809   9.764 -1.4245 -1.9873 -1.1523
  116OSM    C8F12205   5.746   5.952   9.666  0.1693  0.2914  0.7829
  116OSM    H8F12206   5.690   6.044   9.693 -2.6938 -1.2714  0.6494
  116OSM    H8G12207   5.662   5.890   9.628 -0.9175  0.9699  2.0082
  116OSM    C9F12208   5.853   5.983   9.565  0.3078  0.0523  0.3519
  116OSM    H9F12209   5.891   6.086   9.577  1.8065 -0.4852  0.3203
  116OSM   C10F12210   5.883   5.900   9.458  0.0796  0.1442 -0.1699
  116OSM   H10F12211   5.963   5.941   9.395  0.3506  0.8387  0.6060
  116OSM   C11F12212   5.837   5.758   9.422 -1.2500  0.1132 -0.6531
  116OSM   H11F12213   5.784   5.712   9.508  1.4653 -0.4050  0.8594
  116OSM   H11G12214   5.925   5.695   9.399  1.6727  3.4917  0.4491
  116OSM   C12F12215   5.733   5.739   9.309 -0.3792  0.0011 -0.0026
  116OSM   H12F12216   5.658   5.820   9.320  1.7502  2.0717 -0.0062
  116OSM   H12G12217   5.695   5.635   9.325  1.4770 -1.1642 -2.3954
  116OSM   C13F12218   5.799   5.761   9.173  0.2426 -0.1487 -0.4586
  116OSM   H13F12219   5.903   5.721   9.174  0.7948  1.1909  1.1811
  116OSM   H13G12220   5.814   5.871   9.168  1.6410 -0.2857  0.0535
  116OSM   C14F12221   5.733   5.706   9.045  0.0576 -0.1740 -0.1743
  116OSM   H14F12222   5.649   5.777   9.025  0.5040  0.0476 -1.3251
  116OSM   H14G12223   5.702   5.603   9.075 -0.9024  0.0126 -0.4664
  116OSM   C15F12224   5.818   5.685   8.924  0.0166 -0.4344 -0.0349
  116OSM   H15F12225   5.880   5.596   8.946  0.4504  0.3874  2.4113
  116OSM   H15G12226   5.893   5.765   8.905  1.9398 -2.3877 -1.1714
  116OSM   C16F12227   5.743   5.659   8.796 -0.2055 -0.0451  0.0815
  116OSM   H16F12228   5.694   5.753   8.764  0.5445  0.9263  1.6802
  116OSM   H16G12229   5.665   5.588   8.830  0.7825 -0.6279  1.2403
  116OSM   C17F12230   5.831   5.612   8.681 -1.1333  0.1838  0.4898
  116OSM   H17F12231   5.758   5.575   8.606  1.2749 -1.6866 -1.1211
  116OSM   H17G12232   5.893   5.526   8.715  1.1233  1.9379  1.1028
  116OSM   C18F12233   5.918   5.720   8.621 -0.3930 -0.2881  0.3174
  116OSM   H18F12234   5.995   5.762   8.689  1.8821  0.0785 -2.3349
  116OSM   H18G12235   5.844   5.802   8.605  1.9387  2.1184  1.1155
  116OSM   H18H12236   5.963   5.692   8.524 -3.8614  0.1297 -1.5614
  117OSM      N12237   3.126   5.586  11.255 -0.1060 -0.6418 -0.6928
  117OSM    C1512238   3.136   5.726  11.304  0.3261  0.2746  0.4818
  117OSM   H15A12239   3.052   5.772  11.254 -0.3073 -1.6357 -0.3091
  117OSM   H15B12240   3.233   5.767  11.280  0.7327 -0.7318  0.3611
  117OSM   H15C12241   3.120   5.735  11.411  0.7533  1.4547  0.4556
  117OSM    C1412242   3.228   5.504  11.327 -0.4554 -0.1795  0.5722
  117OSM   H14A12243   3.319   5.557  11.306 -1.0165  1.0857  1.2037
  117OSM   H14B12244   3.228   5.404  11.287 -0.2668 -0.2530  0.7525
  117OSM   H14C12245   3.206   5.504  11.433  1.1339 -1.1381  0.9382
  117OSM    C1312246   2.995   5.533  11.296 -0.1840 -0.2912 -0.7355
  117OSM   H13A12247   2.981   5.526  11.403 -1.7919 -3.3691 -1.0262
  117OSM   H13B12248   2.988   5.426  11.286  0.7087 -0.5244  0.7452
  117OSM   H13C12249   2.913   5.600  11.273 -1.1997 -1.8017 -1.6783
  117OSM    C1212250   3.152   5.575  11.107  0.3766  0.2080 -0.1102
  117OSM   H12A12251   3.116   5.482  11.067  3.2237 -0.5794 -1.0922
  117OSM   H12B12252   3.260   5.566  11.101  0.2522 -2.2433  0.3122
  117OSM    C1112253   3.103   5.691  11.014  0.7055  0.3351  0.2284
  117OSM   H11A12254   3.136   5.658  10.913  1.0566  0.5232  0.2792
  117OSM   H11B12255   3.171   5.772  11.046  0.8418  0.5330 -0.5340
  117OSM      P12256   2.910   5.865  11.003 -0.1816  0.0590  0.2292
  117OSM    O1312257   2.770   5.856  10.964  0.7435 -0.5377  0.2420
  117OSM    O1412258   2.942   5.926  11.132  0.4002 -0.3081 -0.5684
  117OSM    O1112259   3.008   5.926  10.890 -0.3187 -0.5981  0.1250
  117OSM    O1212260   2.961   5.721  11.023  0.0441 -0.5074 -0.4412
  117OSM    C1S12261   2.953   5.939  10.758 -0.1384 -0.3463  0.1555
  117OSM    H1S12262   2.878   6.021  10.757  2.0489  1.7981  1.3467
  117OSM    H1T12263   2.917   5.837  10.731  0.9733 -0.7171  0.0121
  117OSM     NF12264   3.008   5.977  10.525  0.1945 -0.3415  0.2136
  117OSM    HNF12265   3.012   5.885  10.485  0.9532 -1.5268  2.8028
  117OSM    C2S12266   3.062   5.978  10.660  0.8299 -0.0551 -0.6050
  117OSM    H2S12267   3.074   6.086  10.684 -0.5401  0.4742 -2.1252
  117OSM    C3S12268   3.201   5.903  10.677  0.6022  0.0304  0.1892
  117OSM    H3S12269   3.188   5.793  10.667  1.1653 -0.2190  1.8362
  117OSM     O312270   3.261   5.916  10.809 -0.6423  0.0723  0.7190
  117OSM    HO312271   3.193   5.958  10.861 -1.4238 -0.7236  0.3577
  117OSM    C4S12272   3.303   5.958  10.578 -0.6439 -0.3256 -0.0127
  117OSM    H4S12273   3.347   5.880  10.514  0.6517 -1.0595  1.7040
  117OSM    C5S12274   3.349   6.088  10.580  0.3246 -0.3541 -0.1588
  117OSM    H5S12275   3.325   6.145  10.671 -0.2393  0.2557 -0.6788
  117OSM    C6S12276   3.452   6.141  10.478 -0.3423  0.6084  0.1373
  117OSM    H6S12277   3.534   6.068  10.460 -0.0982  0.6933  0.8796
  117OSM    H6T12278   3.485   6.237  10.522  0.1454  0.5347 -0.0594
  117OSM    C7S12279   3.389   6.185  10.342 -0.1066  0.3695 -0.0401
  117OSM    H7S12280   3.314   6.266  10.354 -1.0075 -0.4040 -0.2790
  117OSM    H7T12281   3.345   6.095  10.293 -0.6207  1.7333 -2.2261
  117OSM    C8S12282   3.505   6.249  10.261  0.1230  0.2848 -0.5503
  117OSM    H8S12283   3.591   6.178  10.250  0.1065  0.3511 -1.1547
  117OSM    H8T12284   3.542   6.342  10.308 -0.2873  0.7446 -1.1322
  117OSM    C9S12285   3.455   6.283  10.121  0.3038 -0.2300 -0.6989
  117OSM    H9S12286   3.356   6.332  10.135  1.6166  2.0747  1.0766
  117OSM    H9T12287   3.453   6.190  10.060  4.7685 -0.4878 -0.7357
  117OSM   C10S12288   3.532   6.388  10.037 -0.2569 -0.9387 -0.6057
  117OSM   H10S12289   3.639   6.364  10.055 -0.7681 -1.6903  1.6892
  117OSM   H10T12290   3.510   6.486  10.084 -0.1691 -1.5478  0.7377
  117OSM   C11S12291   3.514   6.369   9.887 -0.3882  0.1790  0.4767
  117OSM   H11S12292   3.406   6.350   9.868 -0.1870 -0.9258  0.3345
  117OSM   H11T12293   3.552   6.266   9.868 -0.8883  0.0568  0.1222
  117OSM   C12S12294   3.571   6.468   9.783 -0.2788  0.2833  0.3586
  117OSM   H12S12295   3.561   6.573   9.819  1.2510  1.7160 -2.9040
  117OSM   H12T12296   3.515   6.456   9.688 -1.0048  0.7958  0.7189
  117OSM   C13S12297   3.727   6.435   9.765 -0.0742 -0.4059  0.1996
  117OSM   H13S12298   3.737   6.344   9.702  1.2645  0.2147 -0.5303
  117OSM   H13T12299   3.781   6.416   9.860 -1.1727 -0.4103  0.8474
  117OSM   C14S12300   3.792   6.553   9.683 -0.0242 -0.5582 -0.0253
  117OSM   H14S12301   3.903   6.554   9.673 -0.0485  2.5187 -1.3447
  117OSM   H14T12302   3.774   6.644   9.744 -1.5077 -1.5347  1.0480
  117OSM   C15S12303   3.735   6.582   9.543 -0.4776 -0.4655 -0.1190
  117OSM   H15S12304   3.641   6.638   9.562 -0.2739 -0.4574  0.9126
  117OSM   H15T12305   3.724   6.485   9.490 -0.3457 -0.2683 -0.5056
  117OSM   C16S12306   3.821   6.674   9.447  0.1364 -0.5060 -0.2774
  117OSM   H16S12307   3.751   6.735   9.384 -1.1750 -0.4299  1.1924
  117OSM   H16T12308   3.873   6.616   9.368 -2.4565 -2.5793 -0.6141
  117OSM   C17S12309   3.923   6.769   9.514 -0.3751  0.0768  0.1254
  117OSM   H17S12310   4.001   6.710   9.568  1.1360 -0.1354 -2.1371
  117OSM   H17T12311   3.871   6.829   9.591  1.2691  2.2220 -0.3426
  117OSM   C18S12312   3.986   6.874   9.425 -0.8582 -0.2470 -0.4053
  117OSM   H18S12313   4.007   6.827   9.326 -1.0421 -1.4557  0.1057
  117OSM   H18T12314   4.084   6.897   9.470 -0.2922 -0.8401 -1.2912
  117OSM   H18U12315   3.908   6.953   9.417  1.2017  1.7294 -2.3061
  117OSM    C1F12316   2.911   6.061  10.485 -0.3760  0.3077 -0.1374
  117OSM     OF12317   2.894   6.163  10.545  0.2840 -0.2218 -0.0786
  117OSM    C2F12318   2.825   6.027  10.360 -0.0922 -0.1858  0.2203
  117OSM    H2F12319   2.743   6.101  10.352  0.4530  0.3314 -0.8564
  117OSM    H2G12320   2.780   5.929  10.387 -2.6801  1.1411  1.0125
  117OSM    C3F12321   2.906   6.032  10.223 -0.1178 -0.6884 -0.7552
  117OSM    H3F12322   2.832   6.004  10.145  0.7842 -0.2096 -1.8307
  117OSM    H3G12323   2.987   5.955  10.222 -0.3307 -0.9842 -3.3677
  117OSM    C4F12324   2.971   6.167  10.192  0.0538  0.1086 -0.3894
  117OSM    H4F12325   3.041   6.207  10.268  0.0343 -2.9541  1.4354
  117OSM    H4G12326   2.892   6.243  10.177  0.0642  0.7826  2.4583
  117OSM    C5F12327   3.052   6.161  10.064  0.1264  0.1967  0.1163
  117OSM    H5F12328   3.132   6.084  10.066 -0.4842 -0.5909 -2.4154
  117OSM    H5G12329   3.111   6.254  10.051  0.2824  0.3501  1.7120
  117OSM    C6F12330   2.965   6.140   9.938  0.0350  0.3203 -0.2000
  117OSM    H6F12331   2.896   6.227   9.934  0.2175  0.4636 -0.1899
  117OSM    H6G12332   2.921   6.038   9.945  1.9483 -0.4743  0.8970
  117OSM    C7F12333   3.048   6.145   9.802 -0.2564  0.4368  0.4884
  117OSM    H7F12334   2.985   6.099   9.723  1.1787 -0.0160 -0.4408
  117OSM    H7G12335   3.141   6.084   9.810  1.1966  2.5899  0.9673
  117OSM    C8F12336   3.066   6.281   9.737  0.0059 -0.6614 -0.4204
  117OSM    H8F12337   3.132   6.279   9.648 -2.2448  0.2871 -2.2201
  117OSM    H8G12338   3.118   6.337   9.818  0.1225 -0.6577 -0.4983
  117OSM    C9F12339   2.939   6.367   9.718 -0.0754  0.4777 -0.7168
  117OSM    H9F12340   2.900   6.415   9.809  1.7763 -1.9728  1.5619
  117OSM   C10F12341   2.885   6.388   9.600 -0.1181 -0.2595  0.3953
  117OSM   H10F12342   2.805   6.461   9.578  0.1114 -0.1426 -0.0543
  117OSM   C11F12343   2.935   6.329   9.468  0.8603 -0.3258 -0.2830
  117OSM   H11F12344   2.984   6.230   9.481 -2.2963 -2.1164 -0.8786
  117OSM   H11G12345   3.010   6.398   9.423  1.8492 -1.2159 -0.0536
  117OSM   C12F12346   2.821   6.321   9.359 -0.7314 -0.0667  0.0125
  117OSM   H12F12347   2.779   6.422   9.341  0.2151  0.2663 -0.3819
  117OSM   H12G12348   2.746   6.247   9.396  0.1515 -0.9017  0.1740
  117OSM   C13F12349   2.864   6.252   9.227  0.1261  0.1060 -1.0126
  117OSM   H13F12350   2.775   6.252   9.162 -1.1521  2.9401  0.5418
  117OSM   H13G12351   2.900   6.148   9.244 -3.0499 -0.7452  1.4696
  117OSM   C14F12352   2.973   6.338   9.157  0.4025 -0.4906 -0.2935
  117OSM   H14F12353   3.058   6.343   9.228 -0.5097  1.6051  0.7105
  117OSM   H14G12354   2.927   6.436   9.135 -2.1247 -1.4557  0.3371
  117OSM   C15F12355   3.021   6.274   9.025 -0.6731 -0.0295 -0.3539
  117OSM   H15F12356   2.938   6.270   8.951  0.2095  0.9740 -1.4314
  117OSM   H15G12357   3.055   6.174   9.061 -3.1230 -0.5212  0.8003
  117OSM   C16F12358   3.147   6.342   8.965  0.1464 -0.3912  0.4933
  117OSM   H16F12359   3.230   6.339   9.039  1.5416  1.0380 -0.9384
  117OSM   H16G12360   3.122   6.448   8.943  1.1669 -0.4666 -1.2333
  117OSM   C17F12361   3.200   6.278   8.837 -0.7483 -0.0213 -0.3279
  117OSM   H17F12362   3.126   6.299   8.758 -1.9146  1.6352  1.1440
  117OSM   H17G12363   3.196   6.168   8.853 -1.2640  0.1885  1.1774
  117OSM   C18F12364   3.335   6.330   8.794 -0.7340 -0.3596 -0.8691
  117OSM   H18F12365   3.332   6.440   8.788 -0.6971 -0.2769  0.4698
  117OSM   H18G12366   3.373   6.290   8.697  0.4049  0.3305 -0.7309
  117OSM   H18H12367   3.414   6.301   8.867  0.2054 -0.0242 -1.7305
  118OSM      N12368   3.231   0.365  11.279 -0.0170 -0.6508  0.1255
  118OSM    C1512369   3.125   0.369  11.385 -0.3122 -0.2286 -1.2062
  118OSM   H15A12370   3.027   0.342  11.350 -0.6708 -2.3255  1.1837
  118OSM   H15B12371   3.114   0.469  11.425  2.0981 -0.5282  0.4254
  118OSM   H15C12372   3.151   0.293  11.457 -0.1117 -1.4995 -2.5748
  118OSM    C1412373   3.359   0.422  11.338  0.0555  0.5040  1.0506
  118OSM   H14A12374   3.389   0.391  11.437 -1.4465 -0.6054  1.1869
  118OSM   H14B12375   3.340   0.528  11.341 -1.7395  0.3454 -1.3320
  118OSM   H14C12376   3.441   0.397  11.271  0.1080 -0.5160  1.4881
  118OSM    C1312377   3.261   0.226  11.244 -0.3044  0.5942 -0.1304
  118OSM   H13A12378   3.299   0.175  11.330 -1.5954 -0.7745 -0.3244
  118OSM   H13B12379   3.329   0.229  11.160 -0.1376 -1.8902 -0.1637
  118OSM   H13C12380   3.171   0.182  11.202  0.8515  0.3665 -2.5513
  118OSM    C1212381   3.182   0.447  11.154 -0.4034 -0.1033  0.4411
  118OSM   H12A12382   3.105   0.394  11.100 -0.2562 -1.7211  1.7343
  118OSM   H12B12383   3.269   0.448  11.091  0.7041 -0.4517  1.9121
  118OSM    C1112384   3.135   0.593  11.184 -0.7093 -0.0654 -0.1935
  118OSM   H11A12385   3.049   0.592  11.254 -1.0176 -1.3737 -0.5519
  118OSM   H11B12386   3.096   0.626  11.085  0.0019  0.1119 -0.4165
  118OSM      P12387   3.337   0.748  11.130  0.2522 -0.1320 -0.4757
  118OSM    O1312388   3.408   0.857  11.201  0.0175  0.2837 -0.3508
  118OSM    O1412389   3.419   0.637  11.070  0.2618  0.1301 -0.0288
  118OSM    O1112390   3.242   0.808  11.013 -0.5828 -0.2027 -0.1553
  118OSM    O1212391   3.242   0.676  11.236  0.2484 -0.4575 -0.5423
  118OSM    C1S12392   3.254   0.757  10.876 -0.1755  0.0121  0.4023
  118OSM    H1S12393   3.237   0.649  10.862 -2.2073  0.4002 -0.5396
  118OSM    H1T12394   3.359   0.768  10.842  0.1403  0.1830  1.3946
  118OSM     NF12395   3.207   0.809  10.638 -0.0859 -0.8064 -0.2198
  118OSM    HNF12396   3.276   0.860  10.588  0.4663 -2.9304 -1.7673
  118OSM    C2S12397   3.170   0.842  10.773  0.4551  0.0665 -0.4639
  118OSM    H2S12398   3.067   0.811  10.800  1.8031 -2.2473  2.5800
  118OSM    C3S12399   3.188   0.998  10.799 -0.5225  0.3336  0.7534
  118OSM    H3S12400   3.296   1.013  10.779 -0.1760  1.0751  2.8521
  118OSM     O312401   3.167   1.038  10.933 -0.0347  0.0998 -0.0290
  118OSM    HO312402   3.149   0.957  10.982 -1.1564  0.7555  0.6939
  118OSM    C4S12403   3.110   1.083  10.704 -0.2492 -0.2263 -0.1924
  118OSM    H4S12404   3.005   1.110  10.724  1.1296  5.8021  1.0925
  118OSM    C5S12405   3.172   1.149  10.600  0.0018 -0.1955  0.1671
  118OSM    H5S12406   3.280   1.133  10.585 -0.2760 -1.8965 -0.2450
  118OSM    C6S12407   3.103   1.225  10.490 -0.1512 -0.5509 -0.6285
  118OSM    H6S12408   3.144   1.329  10.488 -3.5941  0.9376 -0.9249
  118OSM    H6T12409   2.997   1.243  10.515  0.0137  4.2073 -2.2801
  118OSM    C7S12410   3.116   1.163  10.347 -0.6522 -0.2783  0.1501
  118OSM    H7S12411   3.083   1.057  10.347  1.2604 -0.9446  1.5992
  118OSM    H7T12412   3.224   1.148  10.324 -0.6756 -0.5309  0.2029
  118OSM    C8S12413   3.047   1.231  10.231  1.2058 -0.5386 -0.2376
  118OSM    H8S12414   3.081   1.336  10.226 -0.5385  0.0516 -0.5068
  118OSM    H8T12415   2.937   1.234  10.248  1.2077 -2.0668  0.1877
  118OSM    C9S12416   3.088   1.193  10.089 -0.5681  0.3900 -0.1777
  118OSM    H9S12417   3.063   1.085  10.083 -0.9070  0.4346  0.3865
  118OSM    H9T12418   3.198   1.196  10.075 -0.5185 -2.7197 -1.1987
  118OSM   C10S12419   3.018   1.277   9.990 -0.2240 -0.3502 -0.8001
  118OSM   H10S12420   3.051   1.383   9.989  3.0377 -1.0870  3.0272
  118OSM   H10T12421   2.910   1.275  10.015  0.0401  2.2908  0.9147
  118OSM   C11S12422   3.039   1.230   9.842  0.9133  0.3492  1.0017
  118OSM   H11S12423   3.019   1.121   9.843 -0.2332  0.5327  0.0221
  118OSM   H11T12424   3.145   1.251   9.816  0.4087  3.9652  1.2708
  118OSM   C12S12425   2.937   1.296   9.750  0.1423  0.0413  0.3129
  118OSM   H12S12426   2.955   1.405   9.749 -2.8652  0.6383 -1.4092
  118OSM   H12T12427   2.839   1.300   9.802  0.0571 -0.9879  0.2581
  118OSM   C13S12428   2.928   1.235   9.608 -1.1297  0.0022  0.4994
  118OSM   H13S12429   2.829   1.266   9.568  0.0136 -0.8918 -3.4541
  118OSM   H13T12430   2.928   1.124   9.613  1.5118 -0.2581 -2.1693
  118OSM   C14S12431   3.045   1.295   9.525 -0.3133 -0.6408 -0.2693
  118OSM   H14S12432   3.144   1.279   9.574 -0.7611  0.8004  1.1877
  118OSM   H14T12433   3.033   1.405   9.536 -1.5598 -0.6481 -1.3310
  118OSM   C15S12434   3.047   1.262   9.372  0.1886  0.6233 -0.4327
  118OSM   H15S12435   3.133   1.319   9.330  0.6197  0.8580  0.7237
  118OSM   H15T12436   2.957   1.297   9.318  0.3195  1.6810  0.0005
  118OSM   C16S12437   3.080   1.116   9.328 -0.0924  0.5422 -0.1884
  118OSM   H16S12438   2.990   1.052   9.337  2.2268 -3.0014 -0.2993
  118OSM   H16T12439   3.159   1.078   9.397  0.5357  0.6263 -0.8444
  118OSM   C17S12440   3.127   1.096   9.186 -0.0425 -0.3177 -0.4762
  118OSM   H17S12441   3.183   1.000   9.190  2.3117  0.9484 -0.7399
  118OSM   H17T12442   3.204   1.175   9.170 -0.6103  0.0927 -1.2379
  118OSM   C18S12443   3.030   1.105   9.070 -0.1213 -0.7898  0.3681
  118OSM   H18S12444   3.087   1.100   8.974 -0.7597 -2.2851  0.0352
  118OSM   H18T12445   2.971   1.199   9.069  0.2270 -0.5252 -2.0801
  118OSM   H18U12446   2.964   1.016   9.082 -0.3829 -0.7202 -0.5102
  118OSM    C1F12447   3.179   0.688  10.582 -0.1889 -0.3607  0.6555
  118OSM     OF12448   3.105   0.610  10.637 -0.4731  0.1901 -0.0376
  118OSM    C2F12449   3.246   0.658  10.451  0.1189  0.3750  0.5930
  118OSM    H2F12450   3.345   0.708  10.449  0.2942  0.0218 -0.5154
  118OSM    H2G12451   3.193   0.702  10.364  1.2375  0.7739  0.1071
  118OSM    C3F12452   3.261   0.507  10.426  0.2324 -0.5656 -0.4597
  118OSM    H3F12453   3.159   0.468  10.402  0.1744 -1.1861  0.7334
  118OSM    H3G12454   3.312   0.449  10.506 -2.0602 -0.8541  0.8844
  118OSM    C4F12455   3.341   0.482  10.296  0.2171  0.0461 -0.4010
  118OSM    H4F12456   3.355   0.372  10.303 -0.7879 -0.0194  1.1733
  118OSM    H4G12457   3.440   0.531  10.289 -0.4799  1.5128 -0.2784
  118OSM    C5F12458   3.269   0.513  10.167  0.2606  0.1484 -0.4440
  118OSM    H5F12459   3.263   0.622  10.145  1.1717 -0.0132 -1.5233
  118OSM    H5G12460   3.163   0.483  10.183  0.2613  1.2008  2.0630
  118OSM    C6F12461   3.323   0.439  10.041  0.9673 -0.7176 -0.0995
  118OSM    H6F12462   3.258   0.469   9.955  1.0622 -0.7935 -0.1972
  118OSM    H6G12463   3.300   0.332  10.060 -3.7315  0.1894  0.5596
  118OSM    C7F12464   3.470   0.461  10.010  0.5968  0.5233  0.6312
  118OSM    H7F12465   3.518   0.393  10.084 -1.7510  0.8168  2.5447
  118OSM    H7G12466   3.495   0.568  10.023  1.5447  0.5521 -1.1607
  118OSM    C8F12467   3.502   0.426   9.858 -0.1345  0.2554 -0.2160
  118OSM    H8F12468   3.600   0.472   9.829  0.5711 -2.4112 -2.5078
  118OSM    H8G12469   3.431   0.465   9.783 -1.1378 -2.2388 -0.6466
  118OSM    C9F12470   3.507   0.270   9.838  0.6228  0.1906  0.3387
  118OSM    H9F12471   3.444   0.214   9.909 -1.5364  1.2899 -0.6005
  118OSM   C10F12472   3.546   0.204   9.731  0.8339  0.7212  1.0018
  118OSM   H10F12473   3.545   0.094   9.741  0.4474  0.6398  0.1087
  118OSM   C11F12474   3.606   0.263   9.606 -0.1514  0.3740 -0.5427
  118OSM   H11F12475   3.713   0.233   9.595 -0.5351 -0.3273 -3.0134
  118OSM   H11G12476   3.614   0.373   9.602  2.2427  0.3621  1.3773
  118OSM   C12F12477   3.556   0.197   9.474  0.3946  0.1181  0.5569
  118OSM   H12F12478   3.445   0.196   9.477  0.2336  2.9925 -0.7697
  118OSM   H12G12479   3.582   0.090   9.462  0.1223 -0.0525  1.4719
  118OSM   C13F12480   3.592   0.275   9.349 -0.0824 -0.5597  0.0993
  118OSM   H13F12481   3.703   0.277   9.335 -0.2336  2.2751 -1.4014
  118OSM   H13G12482   3.554   0.379   9.357 -0.2775 -0.6291  0.0652
  118OSM   C14F12483   3.524   0.209   9.224  0.1395 -0.2159 -0.5193
  118OSM   H14F12484   3.418   0.180   9.244 -0.8064  1.1477 -3.0846
  118OSM   H14G12485   3.569   0.111   9.198 -1.3061 -0.2442 -3.3090
  118OSM   C15F12486   3.524   0.302   9.100 -0.0181 -0.1407 -0.9874
  118OSM   H15F12487   3.480   0.403   9.114 -1.4368 -0.5653 -2.1749
  118OSM   H15G12488   3.458   0.249   9.029 -0.1123 -1.0214 -0.2662
  118OSM   C16F12489   3.660   0.317   9.036  0.0459  0.2215  0.3849
  118OSM   H16F12490   3.704   0.215   9.039 -0.3541  0.0622  0.9575
  118OSM   H16G12491   3.726   0.384   9.096 -0.1855  2.2677 -1.5174
  118OSM   C17F12492   3.654   0.372   8.891  0.9091 -0.2043 -0.5828
  118OSM   H17F12493   3.592   0.464   8.889 -0.9751 -1.4318 -0.7569
  118OSM   H17G12494   3.586   0.300   8.841 -0.2584  0.5637 -0.1183
  118OSM   C18F12495   3.788   0.387   8.828 -0.8242 -0.2158 -0.6319
  118OSM   H18F12496   3.785   0.383   8.717  0.8634 -0.5445 -0.6915
  118OSM   H18G12497   3.842   0.292   8.849  1.6442  0.4321 -3.3622
  118OSM   H18H12498   3.834   0.484   8.854 -1.5477 -0.2622  0.9471
  119OSM      N12499   4.344   0.802  11.432 -0.0511 -0.3711 -0.3561
  119OSM    C1512500   4.230   0.897  11.451  0.3890 -0.2676  0.0099
  119OSM   H15A12501   4.142   0.837  11.469 -0.7828  0.4322 -2.8019
  119OSM   H15B12502   4.220   0.970  11.372 -0.5800  0.7974  1.0640
  119OSM   H15C12503   4.246   0.959  11.539 -3.0912 -0.6295  1.0707
  119OSM    C1412504   4.456   0.893  11.428 -0.9846 -0.1783  0.5324
  119OSM   H14A12505   4.548   0.837  11.417  0.0488  1.5931 -0.3218
  119OSM   H14B12506   4.470   0.949  11.519 -2.8781  0.3954  0.5167
  119OSM   H14C12507   4.458   0.957  11.341  0.8924 -1.9335 -0.8201
  119OSM    C1312508   4.360   0.706  11.550  0.2938  0.5004 -0.0452
  119OSM   H13A12509   4.371   0.756  11.646  0.5300 -0.2672  0.3337
  119OSM   H13B12510   4.450   0.646  11.548  0.1504  0.2965 -0.4774
  119OSM   H13C12511   4.267   0.651  11.554  0.1856  0.4076 -2.4276
  119OSM    C1212512   4.333   0.718  11.299  0.0173  0.1183 -0.4659
  119OSM   H12A12513   4.255   0.646  11.319 -1.0554  1.2963 -0.3186
  119OSM   H12B12514   4.424   0.661  11.284 -0.4457 -0.8458  0.2426
  119OSM    C1112515   4.301   0.790  11.166 -0.3339 -0.2074 -0.7693
  119OSM   H11A12516   4.196   0.828  11.165 -0.4191 -0.4269 -1.6490
  119OSM   H11B12517   4.301   0.712  11.087  3.0954 -1.8037  0.6306
  119OSM      P12518   4.380   1.007  11.030 -0.2258  0.2675  0.4432
  119OSM    O1312519   4.317   1.127  11.088 -0.3314  0.4183  0.6091
  119OSM    O1412520   4.507   1.029  10.950  0.9164 -0.4024 -0.1017
  119OSM    O1112521   4.275   0.935  10.930 -0.1154  0.5232  0.2648
  119OSM    O1212522   4.400   0.890  11.135 -0.1096  0.0089  0.3822
  119OSM    C1S12523   4.243   0.999  10.811  0.8217  0.9705  0.2893
  119OSM    H1S12524   4.274   1.105  10.819 -1.5397  1.6968  0.6516
  119OSM    H1T12525   4.132   1.004  10.814  0.5281 -2.7851  1.1639
  119OSM     NF12526   4.277   1.012  10.561 -0.1611 -0.3447 -0.5150
  119OSM    HNF12527   4.217   0.971  10.492 -0.2587 -0.5124 -0.3294
  119OSM    C2S12528   4.302   0.929  10.683  0.3084 -1.1755 -0.4893
  119OSM    H2S12529   4.412   0.928  10.696  0.4537  1.6602 -1.0519
  119OSM    C3S12530   4.262   0.782  10.673 -0.3871  0.1807 -0.6861
  119OSM    H3S12531   4.151   0.775  10.677 -0.7236  1.1504 -4.6475
  119OSM     O312532   4.315   0.691  10.786  0.3099 -0.1025  0.4684
  119OSM    HO312533   4.325   0.751  10.860 -0.7033  1.0725 -0.2938
  119OSM    C4S12534   4.303   0.722  10.547 -0.3186 -0.4331 -0.3042
  119OSM    H4S12535   4.405   0.733  10.507  0.3741 -1.3869  1.0999
  119OSM    C5S12536   4.221   0.646  10.478 -0.2486 -0.2237  1.1514
  119OSM    H5S12537   4.118   0.631  10.512 -0.0194 -0.8204  1.6068
  119OSM    C6S12538   4.261   0.575  10.348  0.1220 -0.0302 -0.7877
  119OSM    H6S12539   4.354   0.624  10.312 -0.2512  0.8365 -0.6036
  119OSM    H6T12540   4.179   0.587  10.274 -0.7473 -0.7222  0.0297
  119OSM    C7S12541   4.308   0.430  10.378 -0.4880  0.1485 -0.0290
  119OSM    H7S12542   4.235   0.375  10.441  0.4331  0.6230  1.5232
  119OSM    H7T12543   4.400   0.422  10.441 -0.9104 -0.9676  0.4776
  119OSM    C8S12544   4.321   0.344  10.251 -0.1964  0.2472  0.3313
  119OSM    H8S12545   4.228   0.368  10.196 -1.2727  0.2299  2.0813
  119OSM    H8T12546   4.304   0.238  10.281  1.1378 -0.4005 -1.0309
  119OSM    C9S12547   4.444   0.353  10.164  0.0940 -0.1864 -0.2304
  119OSM    H9S12548   4.528   0.327  10.232  1.2176  2.0199 -0.6995
  119OSM    H9T12549   4.461   0.457  10.131  0.1548  0.2541  1.1246
  119OSM   C10S12550   4.443   0.251  10.052 -0.4499  0.4059  0.3199
  119OSM   H10S12551   4.381   0.287   9.967 -1.3482 -1.5697  0.0911
  119OSM   H10T12552   4.393   0.160  10.091 -0.7312  0.6240  0.4710
  119OSM   C11S12553   4.589   0.210  10.009  0.1121  0.3373 -0.5194
  119OSM   H11S12554   4.584   0.130   9.932 -2.1290  0.3952 -0.4991
  119OSM   H11T12555   4.648   0.169  10.093 -0.8897 -0.7282 -0.3089
  119OSM   C12S12556   4.671   0.327   9.955  0.4179 -0.2317  0.1654
  119OSM   H12S12557   4.769   0.281   9.931 -0.4746 -2.6825  0.9797
  119OSM   H12T12558   4.692   0.396  10.039  0.7867  1.8609 -1.5477
  119OSM   C13S12559   4.619   0.395   9.829  0.6014 -0.9289 -0.6386
  119OSM   H13S12560   4.700   0.467   9.806  2.2687 -1.8469  1.9115
  119OSM   H13T12561   4.521   0.443   9.849  0.4224 -1.8331  0.7996
  119OSM   C14S12562   4.603   0.298   9.718 -0.3257 -0.1259  0.5206
  119OSM   H14S12563   4.552   0.204   9.746 -0.0773 -0.7174 -0.9148
  119OSM   H14T12564   4.703   0.267   9.679  0.0959  0.3629  1.2042
  119OSM   C15S12565   4.528   0.357   9.600 -0.6966  0.4469  0.5288
  119OSM   H15S12566   4.423   0.388   9.618 -0.4747  0.5547  1.7566
  119OSM   H15T12567   4.530   0.279   9.521 -0.0685  1.2975 -0.3242
  119OSM   C16S12568   4.610   0.467   9.535 -0.5850 -0.2179  0.6631
  119OSM   H16S12569   4.718   0.445   9.547 -0.6208 -1.1654 -0.5465
  119OSM   H16T12570   4.616   0.562   9.592  1.6665  1.5218 -2.2276
  119OSM   C17S12571   4.561   0.505   9.397 -0.2605 -0.2044 -0.4663
  119OSM   H17S12572   4.459   0.548   9.401 -1.2096 -2.3906  0.2136
  119OSM   H17T12573   4.555   0.416   9.331  1.1016 -0.5984 -0.0956
  119OSM   C18S12574   4.652   0.618   9.338  0.5576  0.0715  0.2331
  119OSM   H18S12575   4.646   0.624   9.227 -1.2258 -0.6538  0.2589
  119OSM   H18T12576   4.757   0.610   9.373  0.4300  1.4862  1.0503
  119OSM   H18U12577   4.610   0.718   9.364 -1.5235  0.3419 -3.4820
  119OSM    C1F12578   4.327   1.135  10.540  0.4249 -0.1699 -0.4640
  119OSM     OF12579   4.393   1.190  10.626  0.0195 -0.3091  0.2788
  119OSM    C2F12580   4.295   1.205  10.406  0.0741 -0.9083 -0.0854
  119OSM    H2F12581   4.201   1.263  10.421  1.1213  1.3777 -1.8212
  119OSM    H2G12582   4.278   1.132  10.324  1.5856 -2.4187  0.8638
  119OSM    C3F12583   4.409   1.303  10.361 -0.8487  0.8140  0.4270
  119OSM    H3F12584   4.476   1.225  10.317 -2.9039 -1.0597  0.4269
  119OSM    H3G12585   4.455   1.365  10.440  0.9691  0.0490  0.0150
  119OSM    C4F12586   4.378   1.394  10.237  1.0990 -0.1889  0.4112
  119OSM    H4F12587   4.425   1.494  10.246  2.0094 -0.5485 -0.1827
  119OSM    H4G12588   4.268   1.405  10.243  0.6661 -3.5145  0.6802
  119OSM    C5F12589   4.417   1.343  10.096 -0.3667 -0.1677  0.1930
  119OSM    H5F12590   4.390   1.236  10.085 -0.6092 -0.0752 -0.1554
  119OSM    H5G12591   4.526   1.347  10.074 -0.4221  0.4503 -0.0022
  119OSM    C6F12592   4.345   1.420   9.983 -0.0104 -0.5138 -0.0674
  119OSM    H6F12593   4.350   1.531   9.987  1.4266 -0.5972  1.3499
  119OSM    H6G12594   4.238   1.393   9.981 -0.3746  0.8272  0.6197
  119OSM    C7F12595   4.399   1.370   9.849  0.7419 -0.1960 -0.1555
  119OSM    H7F12596   4.414   1.260   9.857  0.0493 -0.4263 -1.6749
  119OSM    H7G12597   4.500   1.410   9.826  0.1577  3.1870  2.2995
  119OSM    C8F12598   4.307   1.386   9.725  0.3117  0.4337  0.3049
  119OSM    H8F12599   4.206   1.343   9.744 -0.6471  2.0297 -0.8831
  119OSM    H8G12600   4.343   1.325   9.639  0.8141  0.6095  0.3872
  119OSM    C9F12601   4.283   1.532   9.682  0.7552  0.4430  0.1292
  119OSM    H9F12602   4.207   1.582   9.746 -0.6139 -0.5327 -0.6895
  119OSM   C10F12603   4.322   1.593   9.570  0.5402 -0.4550  0.4065
  119OSM   H10F12604   4.296   1.698   9.552 -0.3392 -0.9940 -1.8663
  119OSM   C11F12605   4.394   1.545   9.449  0.6720  0.2987  0.7489
  119OSM   H11F12606   4.482   1.479   9.467  0.6880  0.0092 -0.2885
  119OSM   H11G12607   4.439   1.633   9.398  1.8791 -1.6728 -1.8718
  119OSM   C12F12608   4.293   1.497   9.342 -0.2918 -0.2449 -1.1571
  119OSM   H12F12609   4.221   1.578   9.318 -0.6837  0.1627  1.1774
  119OSM   H12G12610   4.225   1.418   9.380 -1.6118  0.4454 -2.0107
  119OSM   C13F12611   4.344   1.441   9.205 -0.3533  0.6120  0.1349
  119OSM   H13F12612   4.255   1.397   9.158 -0.0085  0.4370 -0.3581
  119OSM   H13G12613   4.425   1.368   9.225 -0.6519  0.5433  1.1637
  119OSM   C14F12614   4.411   1.548   9.114 -0.5908  0.5721  0.4349
  119OSM   H14F12615   4.522   1.547   9.123 -0.3944 -0.9940 -1.4726
  119OSM   H14G12616   4.365   1.645   9.143 -1.9683 -0.7730  3.0673
  119OSM   C15F12617   4.376   1.523   8.964 -0.6687 -0.5015 -0.2249
  119OSM   H15F12618   4.266   1.516   8.948 -1.6640  3.3289  3.3669
  119OSM   H15G12619   4.433   1.429   8.951  0.4125  0.2356 -0.9508
  119OSM   C16F12620   4.442   1.633   8.877 -0.6379  0.0051  0.0221
  119OSM   H16F12621   4.551   1.639   8.897 -0.2909 -0.1830 -1.6546
  119OSM   H16G12622   4.404   1.729   8.917  0.6545 -0.1458  1.7390
  119OSM   C17F12623   4.396   1.627   8.727 -1.0033 -0.0598  0.7871
  119OSM   H17F12624   4.415   1.528   8.680  0.2200  0.1117  0.8885
  119OSM   H17G12625   4.466   1.692   8.671 -0.5453  0.2760  1.7230
  119OSM   C18F12626   4.256   1.675   8.702 -0.2792 -0.4011  0.3203
  119OSM   H18F12627   4.247   1.677   8.591  1.9332 -2.6401 -0.0078
  119OSM   H18G12628   4.251   1.780   8.737 -0.0329 -0.7697  1.4954
  119OSM   H18H12629   4.178   1.607   8.743  1.0480 -3.0423 -1.2174
  120OSM      N12630   2.888   4.457  10.906  0.1174 -0.1715  0.5248
  120OSM    C1512631   2.750   4.408  10.879 -0.0348  0.1660  0.1247
  120OSM   H15A12632   2.705   4.456  10.793 -2.7215  0.5059  1.6085
  120OSM   H15B12633   2.683   4.436  10.959 -1.8701 -0.7049 -1.0339
  120OSM   H15C12634   2.743   4.302  10.860  0.0711 -0.1737  1.8566
  120OSM    C1412635   2.874   4.605  10.928  0.0273  0.3659  0.5565
  120OSM   H14A12636   2.839   4.649  10.836  0.1868 -2.2175 -0.8660
  120OSM   H14B12637   2.968   4.654  10.951  0.6838 -1.1320  1.2568
  120OSM   H14C12638   2.801   4.609  11.006 -1.9091  0.0404 -1.1596
  120OSM    C1312639   2.921   4.395  11.038  0.1790 -0.2639 -0.0671
  120OSM   H13A12640   3.009   4.437  11.083 -0.0598 -0.7860  0.9260
  120OSM   H13B12641   2.927   4.288  11.025  1.1126 -0.0778 -1.3031
  120OSM   H13C12642   2.837   4.397  11.107 -0.7880  0.3627 -1.2182
  120OSM    C1212643   2.989   4.421  10.790 -0.0556 -0.1055 -0.2404
  120OSM   H12A12644   2.969   4.475  10.699 -0.0626 -1.0123 -0.7870
  120OSM   H12B12645   2.988   4.314  10.774  1.2511 -0.2942  0.7338
  120OSM    C1112646   3.138   4.451  10.824 -0.5707 -0.4900  0.0237
  120OSM   H11A12647   3.198   4.399  10.746 -0.5694 -0.2285 -0.1508
  120OSM   H11B12648   3.175   4.415  10.923 -1.5735  2.1200  1.4298
  120OSM      P12649   3.190   4.666  10.680 -0.2693  0.3930  0.0741
  120OSM    O1312650   3.143   4.804  10.704  0.6815  0.2190 -0.3380
  120OSM    O1412651   3.330   4.642  10.641  0.4934  0.2504  0.1377
  120OSM    O1112652   3.088   4.590  10.580  0.3288  0.0142 -0.1669
  120OSM    O1212653   3.166   4.592  10.812  0.0652 -0.0336  0.6903
  120OSM    C1S12654   3.068   4.644  10.445 -0.2511 -0.0367  0.0138
  120OSM    H1S12655   3.131   4.587  10.374 -0.0031  0.8929 -0.5274
  120OSM    H1T12656   3.101   4.749  10.433  2.2259 -0.8886 -1.0900
  120OSM     NF12657   2.911   4.686  10.251  0.2016 -0.3815 -0.2100
  120OSM    HNF12658   2.866   4.774  10.234 -1.7597 -1.3549 -0.2193
  120OSM    C2S12659   2.923   4.649  10.397  0.3484 -0.7042  0.3789
  120OSM    H2S12660   2.880   4.548  10.412 -1.9643  0.1233 -0.2897
  120OSM    C3S12661   2.840   4.749  10.479 -0.0198  0.5990 -0.1831
  120OSM    H3S12662   2.875   4.852  10.453 -0.7191  1.4697  2.0768
  120OSM     O312663   2.853   4.739  10.618  0.0979  0.3004 -0.5325
  120OSM    HO312664   2.924   4.679  10.643  0.0496  0.7266  0.6782
  120OSM    C4S12665   2.696   4.730  10.447 -0.4183  0.2089 -0.0590
  120OSM    H4S12666   2.682   4.621  10.461  1.4172 -0.0576  0.0263
  120OSM    C5S12667   2.615   4.817  10.381  0.1478 -0.1602 -0.0285
  120OSM    H5S12668   2.667   4.908  10.345  0.7076 -0.5448 -0.2214
  120OSM    C6S12669   2.466   4.793  10.342 -1.6085 -0.0915  0.7683
  120OSM    H6S12670   2.416   4.892  10.350 -1.2490  0.1063  0.6074
  120OSM    H6T12671   2.415   4.735  10.421 -0.1158  0.3848  2.1452
  120OSM    C7S12672   2.456   4.725  10.208  0.7504 -0.5803  0.2252
  120OSM    H7S12673   2.349   4.702  10.188  1.2120 -0.3160 -2.9041
  120OSM    H7T12674   2.517   4.633  10.205  0.7842 -0.5772  0.6682
  120OSM    C8S12675   2.506   4.816  10.092 -0.1752  0.3156 -0.1989
  120OSM    H8S12676   2.616   4.829  10.102 -0.2667  1.5968 -0.6704
  120OSM    H8T12677   2.453   4.912  10.106 -1.2114 -0.2593 -0.0902
  120OSM    C9S12678   2.492   4.740   9.960  0.1330 -0.5169 -0.5811
  120OSM    H9S12679   2.383   4.724   9.945 -0.1443 -0.6119  1.2377
  120OSM    H9T12680   2.527   4.637   9.982 -2.5215 -0.9042  2.8380
  120OSM   C10S12681   2.544   4.807   9.838 -0.8107  0.0156  0.3248
  120OSM   H10S12682   2.642   4.846   9.873 -0.8321  0.9624 -0.6014
  120OSM   H10T12683   2.487   4.892   9.795 -0.3737  0.2478  0.2032
  120OSM   C11S12684   2.572   4.696   9.734  0.2821  0.4797  0.5479
  120OSM   H11S12685   2.479   4.641   9.708  1.5661 -0.7788 -1.6494
  120OSM   H11T12686   2.647   4.622   9.770  0.8018  1.1688  0.9122
  120OSM   C12S12687   2.629   4.759   9.601  0.5946 -0.2706 -0.6146
  120OSM   H12S12688   2.708   4.829   9.637 -0.4191  1.6041 -1.8756
  120OSM   H12T12689   2.560   4.826   9.545 -0.8049 -1.4494 -0.3301
  120OSM   C13S12690   2.689   4.650   9.507  0.4092 -0.1033  0.0181
  120OSM   H13S12691   2.623   4.561   9.500  1.5524 -1.2491  2.7613
  120OSM   H13T12692   2.788   4.620   9.547 -0.5993 -0.5524  2.3525
  120OSM   C14S12693   2.710   4.704   9.368  0.6112 -0.0271 -0.5647
  120OSM   H14S12694   2.621   4.762   9.335  0.1915 -0.2814  0.1092
  120OSM   H14T12695   2.725   4.610   9.310  0.7129 -0.4201  0.1000
  120OSM   C15S12696   2.839   4.783   9.362  0.0283  0.5072  0.3424
  120OSM   H15S12697   2.925   4.713   9.373 -1.2520 -0.9709  1.5656
  120OSM   H15T12698   2.857   4.864   9.436 -0.2604  2.4578 -1.6486
  120OSM   C16S12699   2.853   4.850   9.227 -0.4213  0.5619  0.2681
  120OSM   H16S12700   2.835   4.787   9.138  0.5602  0.0225  0.4374
  120OSM   H16T12701   2.954   4.891   9.209  1.0217 -0.5214  4.6024
  120OSM   C17S12702   2.747   4.969   9.213 -0.0562  0.0907  0.0820
  120OSM   H17S12703   2.718   5.007   9.313 -1.8476 -1.2080  0.1176
  120OSM   H17T12704   2.655   4.949   9.154  0.1318 -1.0244  0.1312
  120OSM   C18S12705   2.812   5.092   9.143 -0.0604 -0.4314 -0.4051
  120OSM   H18S12706   2.835   5.055   9.040  2.0681  1.1318 -0.5566
  120OSM   H18T12707   2.909   5.117   9.191 -1.6852  0.6367  2.6024
  120OSM   H18U12708   2.748   5.183   9.140  1.3635  0.5954 -0.3387
  120OSM    C1F12709   2.950   4.607  10.153 -0.4910 -0.3290 -0.5504
  120OSM     OF12710   2.976   4.488  10.170  0.2062  0.2284 -0.4495
  120OSM    C2F12711   2.957   4.671  10.013  0.3017  0.0064  0.5373
  120OSM    H2F12712   3.020   4.761  10.027  0.3708  0.6069 -2.6976
  120OSM    H2G12713   2.854   4.708   9.994 -0.3210 -0.7625  2.2008
  120OSM    C3F12714   3.021   4.585   9.902 -0.8964  0.0267 -0.0066
  120OSM    H3F12715   2.947   4.509   9.867 -2.0779  0.6612  1.0226
  120OSM    H3G12716   3.107   4.528   9.944 -0.0352  2.2641  1.4188
  120OSM    C4F12717   3.059   4.665   9.774  0.5999 -0.1552 -0.1685
  120OSM    H4F12718   3.148   4.726   9.797  0.2860 -0.4422  2.0771
  120OSM    H4G12719   2.965   4.723   9.762 -0.5573 -0.9815  3.4265
  120OSM    C5F12720   3.086   4.586   9.650  0.3488 -0.5009 -0.4151
  120OSM    H5F12721   3.077   4.655   9.563 -1.1144 -0.2767 -0.1074
  120OSM    H5G12722   3.007   4.511   9.629  0.6603 -0.9801  0.0967
  120OSM    C6F12723   3.224   4.517   9.664  0.7850 -0.0486  0.2986
  120OSM    H6F12724   3.218   4.467   9.762 -3.2179  1.0474  0.7786
  120OSM    H6G12725   3.293   4.605   9.666  2.0151 -0.9583 -0.5034
  120OSM    C7F12726   3.263   4.424   9.554  0.1213 -0.2069  0.5276
  120OSM    H7F12727   3.189   4.341   9.548  1.3888 -1.3222 -0.1617
  120OSM    H7G12728   3.364   4.381   9.571  0.2030 -0.1832  0.1143
  120OSM    C8F12729   3.272   4.480   9.414  0.7954 -0.4134  0.7759
  120OSM    H8F12730   3.373   4.524   9.422  1.0566 -1.2212  2.4885
  120OSM    H8G12731   3.198   4.562   9.423  1.4601  0.0103  3.0397
  120OSM    C9F12732   3.254   4.386   9.297  0.1587  0.1558  0.6024
  120OSM    H9F12733   3.302   4.288   9.306  0.1865  0.1866  0.8044
  120OSM   C10F12734   3.192   4.412   9.182  0.3284 -0.0695  0.5015
  120OSM   H10F12735   3.195   4.334   9.105 -5.1390 -0.3827  0.2063
  120OSM   C11F12736   3.126   4.537   9.134 -0.5638  0.0599 -0.2411
  120OSM   H11F12737   3.155   4.626   9.195 -0.0937  1.7683 -2.8131
  120OSM   H11G12738   3.016   4.530   9.146 -0.7301  2.1598 -0.1851
  120OSM   C12F12739   3.142   4.579   8.984 -0.2184  0.0615 -0.1119
  120OSM   H12F12740   3.118   4.484   8.930 -0.4411 -0.8447  1.5146
  120OSM   H12G12741   3.239   4.622   8.952  1.1866 -1.9587  1.2512
  120OSM   C13F12742   3.035   4.686   8.957 -0.3973 -0.3650 -0.9483
  120OSM   H13F12743   3.062   4.771   9.023  0.7902 -1.0983 -0.4359
  120OSM   H13G12744   2.947   4.625   8.986  2.4680 -3.6430  1.9597
  120OSM   C14F12745   3.049   4.744   8.813 -0.4266  0.5140 -0.0489
  120OSM   H14F12746   3.052   4.657   8.744  2.6284  1.0841 -0.7793
  120OSM   H14G12747   3.144   4.801   8.801  1.0962 -1.6389  1.1802
  120OSM   C15F12748   2.934   4.837   8.777  0.2816 -0.3549  0.0091
  120OSM   H15F12749   2.926   4.925   8.844  0.6535  0.4783 -1.0184
  120OSM   H15G12750   2.841   4.779   8.759  0.4792 -0.9389  0.8066
  120OSM   C16F12751   2.953   4.902   8.637 -0.4471 -0.4940 -0.1738
  120OSM   H16F12752   2.859   4.943   8.594 -0.3270 -0.5795 -0.5230
  120OSM   H16G12753   2.986   4.817   8.572  3.9014  0.3021  0.6311
  120OSM   C17F12754   3.056   5.020   8.635 -0.1470  0.9737  0.1424
  120OSM   H17F12755   3.157   4.977   8.651 -0.2720 -0.0686 -1.6339
  120OSM   H17G12756   3.034   5.081   8.725 -1.5224 -0.8287  1.1093
  120OSM   C18F12757   3.075   5.115   8.514 -0.1830  0.1149 -0.0352
  120OSM   H18F12758   3.141   5.070   8.437  0.5080  0.4467  0.3581
  120OSM   H18G12759   3.113   5.212   8.553  1.5016  0.6119 -2.6947
  120OSM   H18H12760   2.982   5.133   8.455 -0.5492  0.8399  0.7375
  121OSM      N12761   1.886   6.672  11.395 -0.4098 -0.1293 -0.3393
  121OSM    C1512762   1.736   6.665  11.379  0.3005 -0.9532  0.2323
  121OSM   H15A12763   1.684   6.623  11.464  1.1857  0.4341  1.5058
  121OSM   H15B12764   1.713   6.611  11.289  3.0738 -0.7571 -0.6764
  121OSM   H15C12765   1.695   6.765  11.368  0.3038 -0.6096  2.7178
  121OSM    C1412766   1.919   6.799  11.458  0.4395 -0.1543  0.1360
  121OSM   H14A12767   1.856   6.818  11.544 -1.2337 -0.5349 -0.9611
  121OSM   H14B12768   1.892   6.876  11.387 -1.5747 -0.4129  0.5504
  121OSM   H14C12769   2.025   6.807  11.477  0.3036  1.4714  0.3282
  121OSM    C1312770   1.927   6.558  11.486  0.1225 -0.3249 -0.0365
  121OSM   H13A12771   1.915   6.463  11.436  1.3430 -0.0387 -0.9177
  121OSM   H13B12772   1.881   6.557  11.584  0.2188  0.9554  0.0365
  121OSM   H13C12773   2.031   6.575  11.511  0.0508  1.1614 -0.6735
  121OSM    C1212774   1.961   6.650  11.266 -0.1856 -0.2006 -0.2216
  121OSM   H12A12775   1.950   6.548  11.232  1.5840 -0.0522 -1.3972
  121OSM   H12B12776   2.065   6.667  11.292 -0.4798  1.6079 -0.0571
  121OSM    C1112777   1.925   6.742  11.148  0.3280 -0.4713  0.5166
  121OSM   H11A12778   1.815   6.752  11.142  0.3352  0.1276  1.2957
  121OSM   H11B12779   1.947   6.694  11.050 -1.8438 -2.5891  0.9605
  121OSM      P12780   2.127   6.894  11.119 -0.0140 -0.3218  0.8399
  121OSM    O1312781   2.167   7.040  11.112  0.2208  0.7203 -0.3614
  121OSM    O1412782   2.203   6.799  11.201 -0.0235 -0.4029 -0.1221
  121OSM    O1112783   2.130   6.839  10.969 -0.1005  0.2346  0.2544
  121OSM    O1212784   1.980   6.878  11.154  0.3064  0.0936 -0.3016
  121OSM    C1S12785   2.067   6.917  10.868  0.2186 -0.6893  0.2482
  121OSM    H1S12786   2.113   7.017  10.851  1.3824 -1.2824 -0.2564
  121OSM    H1T12787   1.965   6.949  10.896 -0.5507 -0.6949 -2.2631
  121OSM     NF12788   1.999   6.909  10.638 -0.7779 -0.5570 -0.8179
  121OSM    HNF12789   1.915   6.867  10.604 -0.5875 -1.4519 -0.2102
  121OSM    C2S12790   2.072   6.839  10.738 -0.0237  0.4202  0.2556
  121OSM    H2S12791   2.181   6.831  10.719  0.4481  1.6025  2.2325
  121OSM    C3S12792   2.002   6.700  10.746 -0.8907 -0.4217 -0.1279
  121OSM    H3S12793   1.906   6.712  10.799  0.1225 -0.6450  1.8450
  121OSM     O312794   2.075   6.614  10.842 -0.0765  0.4806 -0.4253
  121OSM    HO312795   2.129   6.680  10.887  0.1273  1.9925 -2.7224
  121OSM    C4S12796   1.989   6.622  10.618  0.4036 -0.2639  0.2983
  121OSM    H4S12797   1.884   6.595  10.601  0.5860 -0.2567 -0.9075
  121OSM    C5S12798   2.089   6.583  10.542 -0.6314 -0.5480  0.1883
  121OSM    H5S12799   2.191   6.611  10.573 -1.0682 -0.4512  1.6249
  121OSM    C6S12800   2.062   6.509  10.405 -0.5977  0.0283 -0.1109
  121OSM    H6S12801   1.963   6.461  10.397 -0.4990 -0.3712  0.8959
  121OSM    H6T12802   2.133   6.425  10.393 -1.3680 -1.0156  2.0564
  121OSM    C7S12803   2.061   6.618  10.297  0.4601  0.3615  0.5179
  121OSM    H7S12804   2.163   6.661  10.289  0.0879  1.1246 -0.4199
  121OSM    H7T12805   1.983   6.695  10.317  0.9433  0.9145  0.3084
  121OSM    C8S12806   2.031   6.566  10.152  0.3663  0.3834  0.3622
  121OSM    H8S12807   1.930   6.522  10.164  1.5262 -3.1278 -1.3032
  121OSM    H8T12808   2.099   6.482  10.123 -1.2720 -0.3612 -1.5396
  121OSM    C9S12809   2.014   6.675  10.050 -0.0376 -0.0444 -0.2013
  121OSM    H9S12810   2.108   6.734  10.039  0.5116 -1.0349 -0.9968
  121OSM    H9T12811   1.938   6.752  10.073  0.8706  1.3255 -1.5658
  121OSM   C10S12812   1.976   6.611   9.914  0.7028  0.3101 -0.1095
  121OSM   H10S12813   1.882   6.554   9.923 -2.1431  4.3154 -1.5215
  121OSM   H10T12814   2.050   6.536   9.878  2.1684  0.8259  1.6780
  121OSM   C11S12815   1.958   6.718   9.807 -0.4225 -0.1532  0.0259
  121OSM   H11S12816   2.014   6.809   9.835 -0.9328 -0.2759  1.5573
  121OSM   H11T12817   1.853   6.754   9.799 -0.4996 -0.5947 -1.2806
  121OSM   C12S12818   2.006   6.672   9.662 -0.4521 -0.4468  0.4673
  121OSM   H12S12819   1.964   6.570   9.642 -3.1445  0.6921 -0.1379
  121OSM   H12T12820   2.115   6.668   9.641 -0.9173 -3.2455 -2.3827
  121OSM   C13S12821   1.950   6.758   9.554  0.0007 -0.1303 -0.9370
  121OSM   H13S12822   1.975   6.865   9.570 -2.7436  0.6580 -1.4395
  121OSM   H13T12823   1.839   6.758   9.563  0.0111  0.9601 -0.6699
  121OSM   C14S12824   1.996   6.707   9.424 -0.2267 -0.4734  0.3790
  121OSM   H14S12825   1.967   6.600   9.413  0.2859 -0.4067 -2.2155
  121OSM   H14T12826   2.107   6.705   9.417 -0.3022 -0.1774 -1.2649
  121OSM   C15S12827   1.936   6.789   9.309 -0.0216 -0.4398 -0.1139
  121OSM   H15S12828   1.982   6.890   9.315 -0.2386 -0.3466 -0.0225
  121OSM   H15T12829   1.827   6.785   9.329  0.0811 -2.6330  0.2998
  121OSM   C16S12830   1.967   6.740   9.167  0.2207 -0.4594  0.2309
  121OSM   H16S12831   1.896   6.780   9.092 -0.8078 -1.3258  0.7149
  121OSM   H16T12832   1.942   6.632   9.174  0.0439 -0.4980 -0.9298
  121OSM   C17S12833   2.107   6.764   9.119 -0.6293 -0.1559  0.0218
  121OSM   H17S12834   2.171   6.684   9.161  1.3152  1.0004 -0.5762
  121OSM   H17T12835   2.142   6.862   9.159 -3.8729  1.0050  0.2820
  121OSM   C18S12836   2.116   6.750   8.961  0.2413  0.2405 -0.2836
  121OSM   H18S12837   2.087   6.648   8.929  0.9108 -0.2400  0.5937
  121OSM   H18T12838   2.219   6.766   8.923  1.2111 -2.3218  1.0008
  121OSM   H18U12839   2.057   6.835   8.920  1.0672 -0.5730 -3.4069
  121OSM    C1F12840   2.041   7.024  10.589 -0.0034 -0.0564 -0.4670
  121OSM     OF12841   2.152   7.067  10.612  0.6873 -0.0468 -0.2976
  121OSM    C2F12842   1.946   7.102  10.505 -0.2857 -0.3799  0.4278
  121OSM    H2F12843   1.993   7.200  10.483 -0.8325 -0.4498 -1.2053
  121OSM    H2G12844   1.853   7.102  10.566 -0.5103  3.5062  0.3221
  121OSM    C3F12845   1.915   7.033  10.375 -0.6227 -0.1579 -0.6386
  121OSM    H3F12846   1.857   6.941  10.399 -1.0209  0.4355  0.7484
  121OSM    H3G12847   2.008   6.987  10.334 -1.9342 -3.1035 -0.5975
  121OSM    C4F12848   1.854   7.125  10.269 -0.0988 -0.4461 -0.0820
  121OSM    H4F12849   1.925   7.207  10.246  2.0886 -2.5954 -1.5665
  121OSM    H4G12850   1.755   7.171  10.290 -1.0538 -2.6286  0.4951
  121OSM    C5F12851   1.835   7.037  10.146  0.1647  0.2199 -0.6696
  121OSM    H5F12852   1.779   6.945  10.174  2.8446 -1.8474 -1.6659
  121OSM    H5G12853   1.931   7.007  10.099 -0.3603 -1.2020 -0.9006
  121OSM    C6F12854   1.755   7.109  10.037  0.0578  0.1797  0.0260
  121OSM    H6F12855   1.757   7.219  10.052  2.1931  0.1430  0.2624
  121OSM    H6G12856   1.651   7.072  10.046  0.3689 -0.5998  0.6028
  121OSM    C7F12857   1.795   7.063   9.894 -0.0663 -0.1099 -0.5550
  121OSM    H7F12858   1.790   6.953   9.881 -2.1380 -0.0774 -0.2981
  121OSM    H7G12859   1.905   7.077   9.886  0.2667 -0.3976  2.4242
  121OSM    C8F12860   1.701   7.117   9.785 -0.0920 -0.0230  0.0304
  121OSM    H8F12861   1.707   7.228   9.782  0.1723 -0.0293  0.2348
  121OSM    H8G12862   1.594   7.101   9.809 -0.3479  1.4449 -0.0182
  121OSM    C9F12863   1.720   7.050   9.651 -0.1481  0.2701  0.2710
  121OSM    H9F12864   1.704   6.941   9.648  2.8644 -0.2261 -0.9981
  121OSM   C10F12865   1.773   7.099   9.538  0.5423  0.2718 -0.3682
  121OSM   H10F12866   1.785   7.029   9.454 -0.0747 -0.3589  0.0526
  121OSM   C11F12867   1.819   7.240   9.525  0.8143 -0.2903 -0.0432
  121OSM   H11F12868   1.928   7.246   9.544  0.4977 -0.0565  1.9275
  121OSM   H11G12869   1.766   7.300   9.602 -0.4039 -2.2076  0.6846
  121OSM   C12F12870   1.805   7.284   9.375  0.3732  0.1458  0.4169
  121OSM   H12F12871   1.843   7.211   9.300  4.2661  0.2111  2.0865
  121OSM   H12G12872   1.869   7.372   9.355 -0.0725  0.2110 -0.7744
  121OSM   C13F12873   1.661   7.316   9.353  0.0691 -0.2362 -0.3057
  121OSM   H13F12874   1.616   7.360   9.445  1.2209 -0.9386  0.6236
  121OSM   H13G12875   1.607   7.220   9.337  1.5465 -1.4424  1.4549
  121OSM   C14F12876   1.637   7.407   9.231 -0.0083 -0.3850  0.0194
  121OSM   H14F12877   1.647   7.334   9.148  0.9325 -1.1015  0.7496
  121OSM   H14G12878   1.713   7.488   9.232  1.1876 -1.4937  0.5853
  121OSM   C15F12879   1.490   7.454   9.227  0.3319 -0.3616  0.9375
  121OSM   H15F12880   1.486   7.530   9.308  0.0604  1.5703 -0.7952
  121OSM   H15G12881   1.428   7.369   9.261 -1.1768 -0.0545 -0.8549
  121OSM   C16F12882   1.433   7.525   9.096 -0.2594  0.4470 -0.2290
  121OSM   H16F12883   1.468   7.629   9.110 -1.4340  1.0043 -1.2543
  121OSM   H16G12884   1.324   7.535   9.118  0.1958  1.1717  1.9607
  121OSM   C17F12885   1.467   7.465   8.960 -1.0895 -0.2247  0.0378
  121OSM   H17F12886   1.382   7.396   8.941 -0.6904 -1.2457  1.7471
  121OSM   H17G12887   1.548   7.390   8.960  0.6184  1.5207 -1.0330
  121OSM   C18F12888   1.502   7.568   8.847 -0.3627 -0.0343 -0.7459
  121OSM   H18F12889   1.423   7.645   8.833 -0.5175 -0.4210 -2.1577
  121OSM   H18G12890   1.526   7.507   8.757 -0.3540 -1.3838  0.1340
  121OSM   H18H12891   1.596   7.620   8.873 -0.5132 -0.9615  1.9786
  122OSM      N12892   3.546   4.960  10.795 -0.4520  0.2779 -0.5253
  122OSM    C1512893   3.630   4.836  10.762 -1.0342  0.9193  0.3110
  122OSM   H15A12894   3.586   4.794  10.673 -0.7661 -0.8172  0.9605
  122OSM   H15B12895   3.638   4.762  10.840 -0.8125 -0.9092 -1.3626
  122OSM   H15C12896   3.731   4.868  10.740 -0.7520 -0.1996 -0.0550
  122OSM    C1412897   3.406   4.922  10.825  0.6581  0.6162 -0.5138
  122OSM   H14A12898   3.353   5.003  10.872  1.3808 -0.6177  2.6615
  122OSM   H14B12899   3.414   4.845  10.900  0.0110  0.8653 -0.1793
  122OSM   H14C12900   3.350   4.875  10.745  1.6956  0.7872 -1.3678
  122OSM    C1312901   3.599   5.017  10.917  0.0696  0.3656 -0.2655
  122OSM   H13A12902   3.569   4.954  10.999 -1.8066  1.6011  0.0698
  122OSM   H13B12903   3.558   5.117  10.928 -0.5244  0.1965 -0.8824
  122OSM   H13C12904   3.705   5.033  10.907  0.1669 -0.4525 -0.5253
  122OSM    C1212905   3.537   5.059  10.683  0.1644 -1.0217 -0.2260
  122OSM   H12A12906   3.457   5.024  10.618 -0.2065  0.1353 -0.4159
  122OSM   H12B12907   3.629   5.040  10.628 -0.4075 -0.0028 -1.5957
  122OSM    C1112908   3.533   5.214  10.728 -0.0702  0.5222 -0.2694
  122OSM   H11A12909   3.444   5.238  10.791 -1.2815 -2.6169 -0.5860
  122OSM   H11B12910   3.520   5.270  10.633 -0.3197  0.2293 -0.4117
  122OSM      P12911   3.688   5.385  10.845 -0.0313  0.1473  0.3035
  122OSM    O1312912   3.598   5.413  10.962  0.9922 -0.3391 -0.1941
  122OSM    O1412913   3.833   5.391  10.879 -0.1590 -0.3576 -0.3188
  122OSM    O1112914   3.661   5.478  10.716  0.2966 -0.3221 -0.5454
  122OSM    O1212915   3.666   5.250  10.776  0.0138 -0.0204  0.2992
  122OSM    C1S12916   3.762   5.495  10.618 -0.2262  0.0517 -0.2796
  122OSM    H1S12917   3.822   5.402  10.610 -1.8507 -1.2871  2.0262
  122OSM    H1T12918   3.832   5.574  10.652 -0.1248 -1.4180  3.3251
  122OSM     NF12919   3.789   5.514  10.371  0.5900  0.1973 -0.5413
  122OSM    HNF12920   3.849   5.593  10.369  0.1600  0.7413  2.6467
  122OSM    C2S12921   3.696   5.531  10.485 -1.1005 -0.1083 -0.0440
  122OSM    H2S12922   3.619   5.452  10.473 -1.8500  0.2968  1.7663
  122OSM    C3S12923   3.632   5.674  10.486  0.0644  0.1443  0.3281
  122OSM    H3S12924   3.706   5.755  10.502 -0.3183  0.5975 -0.1817
  122OSM     O312925   3.534   5.684  10.590  0.6898  0.3021  0.1240
  122OSM    HO312926   3.544   5.610  10.649 -0.2326  0.1850  0.1536
  122OSM    C4S12927   3.562   5.702  10.353 -0.7407 -0.3523 -0.0728
  122OSM    H4S12928   3.462   5.657  10.344 -0.0566 -2.2106  1.0574
  122OSM    C5S12929   3.603   5.784  10.255 -0.2502 -0.4844  0.1113
  122OSM    H5S12930   3.693   5.846  10.265  0.6663 -1.8082  0.3765
  122OSM    C6S12931   3.510   5.805  10.136 -0.3466  0.1092 -0.7776
  122OSM    H6S12932   3.468   5.908  10.136 -6.1986 -1.8889  0.4789
  122OSM    H6T12933   3.413   5.751  10.140  0.2602 -1.1267 -2.0446
  122OSM    C7S12934   3.595   5.807  10.006  0.6410  0.8413 -0.2278
  122OSM    H7S12935   3.677   5.733   9.991 -0.3672  0.0714 -2.3326
  122OSM    H7T12936   3.656   5.899  10.019  0.8468  0.5816  0.7583
  122OSM    C8S12937   3.513   5.810   9.880 -0.4740  0.7354  0.8385
  122OSM    H8S12938   3.410   5.845   9.902 -0.8324 -0.3365  0.9466
  122OSM    H8T12939   3.508   5.708   9.836  3.0037  1.0334 -0.6031
  122OSM    C9S12940   3.571   5.907   9.770  0.5596 -0.0454  0.1535
  122OSM    H9S12941   3.668   5.873   9.726  1.2306  1.8109  0.1364
  122OSM    H9T12942   3.597   5.992   9.836 -1.8529  1.1638 -0.3586
  122OSM   C10S12943   3.472   5.947   9.661  0.0179 -0.4731  0.6688
  122OSM   H10S12944   3.377   5.988   9.703  1.0889  3.1478 -0.1292
  122OSM   H10T12945   3.445   5.862   9.595 -0.4252 -0.0900  0.3571
  122OSM   C11S12946   3.523   6.060   9.573  0.8398 -0.4542 -0.4392
  122OSM   H11S12947   3.602   6.031   9.501 -0.5444 -0.5461 -1.9888
  122OSM   H11T12948   3.568   6.142   9.633 -1.9282 -0.1076  1.3587
  122OSM   C12S12949   3.412   6.134   9.501  0.2785  0.7385  0.6112
  122OSM   H12S12950   3.345   6.191   9.568 -0.4328 -0.3485  0.8610
  122OSM   H12T12951   3.351   6.059   9.446  2.8235  0.7053 -2.4698
  122OSM   C13S12952   3.455   6.236   9.392  0.2022  0.3256  0.3048
  122OSM   H13S12953   3.519   6.179   9.322  0.7923  0.3380  0.8337
  122OSM   H13T12954   3.523   6.309   9.442  1.0353  0.3147 -0.7822
  122OSM   C14S12955   3.341   6.305   9.311 -0.0864  0.6949 -0.0930
  122OSM   H14S12956   3.271   6.361   9.377 -1.9333  0.6788 -1.9354
  122OSM   H14T12957   3.283   6.223   9.265  2.6348 -1.7759  0.5493
  122OSM   C15S12958   3.403   6.404   9.217  0.3075  0.3953  0.8001
  122OSM   H15S12959   3.326   6.464   9.164 -1.7140 -0.9550  2.0426
  122OSM   H15T12960   3.445   6.349   9.130  0.0915  0.3093  0.7483
  122OSM   C16S12961   3.498   6.512   9.276  0.2793 -0.3169 -0.6062
  122OSM   H16S12962   3.596   6.469   9.306  0.5774 -0.2637 -1.4721
  122OSM   H16T12963   3.455   6.557   9.368 -2.3814  1.0658 -2.4155
  122OSM   C17S12964   3.509   6.626   9.181  0.3078  0.0810  0.5061
  122OSM   H17S12965   3.591   6.693   9.216  1.6766 -0.8148 -0.8650
  122OSM   H17T12966   3.408   6.673   9.181  0.4127  0.3411 -1.2509
  122OSM   C18S12967   3.551   6.595   9.032  0.0069 -0.5138 -0.0374
  122OSM   H18S12968   3.460   6.560   8.979 -1.9670  1.3661  1.9427
  122OSM   H18T12969   3.629   6.516   9.030  1.5831  0.9733 -0.7519
  122OSM   H18U12970   3.575   6.693   8.985 -1.5010 -0.3587 -0.5365
  122OSM    C1F12971   3.828   5.400  10.315 -0.3217  0.2947 -0.4407
  122OSM     OF12972   3.788   5.286  10.346  0.1066 -0.2493  0.4343
  122OSM    C2F12973   3.925   5.422  10.201 -0.0113 -0.4359  0.8506
  122OSM    H2F12974   4.024   5.438  10.249  0.2093 -1.5359  0.7983
  122OSM    H2G12975   3.893   5.517  10.155  1.4570 -0.1978  0.2649
  122OSM    C3F12976   3.934   5.306  10.105  0.4002  0.3923 -0.5997
  122OSM    H3F12977   3.835   5.258  10.091 -0.0605  0.7795  1.0903
  122OSM    H3G12978   4.000   5.227  10.145  2.1439  1.0025 -2.1570
  122OSM    C4F12979   3.997   5.342   9.964  0.2052  0.1980  0.2731
  122OSM    H4F12980   4.086   5.406   9.982  0.6113  0.0584 -1.1202
  122OSM    H4G12981   3.926   5.398   9.900  1.0899 -0.4412 -1.3359
  122OSM    C5F12982   4.040   5.215   9.895  0.2136  0.7060 -0.7787
  122OSM    H5F12983   3.956   5.143   9.905  0.3955  0.5831 -0.0764
  122OSM    H5G12984   4.121   5.162   9.949 -0.9963  0.2368  0.6655
  122OSM    C6F12985   4.075   5.235   9.751  0.0621 -0.1108  0.4446
  122OSM    H6F12986   4.150   5.317   9.755  1.0746 -1.0547  1.8965
  122OSM    H6G12987   3.988   5.274   9.693 -2.2015  0.4884  3.9120
  122OSM    C7F12988   4.132   5.114   9.678  0.3910  0.5080  0.0820
  122OSM    H7F12989   4.059   5.031   9.688 -0.2386  0.7607 -2.0462
  122OSM    H7G12990   4.229   5.086   9.725 -0.2151 -0.3826  0.8350
  122OSM    C8F12991   4.163   5.132   9.524  0.1126 -0.6308  0.2737
  122OSM    H8F12992   4.063   5.126   9.475 -0.5668 -0.8881  1.6381
  122OSM    H8G12993   4.225   5.042   9.502  2.5501  1.3139 -1.2093
  122OSM    C9F12994   4.221   5.270   9.474  0.4757  0.2940 -0.4255
  122OSM    H9F12995   4.147   5.350   9.462  1.3029  1.0376 -0.6559
  122OSM   C10F12996   4.349   5.300   9.454  0.1093 -0.2447 -0.2935
  122OSM   H10F12997   4.369   5.392   9.397  0.4331  0.6883  1.2635
  122OSM   C11F12998   4.473   5.205   9.472 -0.5605 -1.1864 -0.9470
  122OSM   H11F12999   4.449   5.099   9.492  1.3833 -1.4233  0.4332
  122OSM   H11G13000   4.528   5.241   9.562 -0.6391  0.2804 -1.4507
  122OSM   C12F13001   4.582   5.223   9.363  0.7030  0.1032  0.1826
  122OSM   H12F13002   4.687   5.210   9.394  0.4283  1.2250  1.7098
  122OSM   H12G13003   4.587   5.327   9.324  0.4915 -0.4571 -1.4239
  122OSM   C13F13004   4.556   5.134   9.246  0.0457  0.5881 -0.0354
  122OSM   H13F13005   4.454   5.153   9.205  0.6804  2.4648 -0.8634
  122OSM   H13G13006   4.555   5.032   9.288  1.3126  0.4491 -0.3009
  122OSM   C14F13007   4.668   5.140   9.140 -0.6704 -0.1462 -0.0961
  122OSM   H14F13008   4.763   5.174   9.186 -1.5627 -0.0905  1.7923
  122OSM   H14G13009   4.638   5.218   9.068  0.0027 -0.6868 -0.9879
  122OSM   C15F13010   4.663   5.001   9.065 -0.0101  0.2798 -0.7768
  122OSM   H15F13011   4.558   4.996   9.029  0.4769 -1.6039 -2.0797
  122OSM   H15G13012   4.680   4.908   9.124  2.3372 -0.4213 -2.4246
  122OSM   C16F13013   4.749   4.985   8.939 -0.3210  0.3696 -0.4411
  122OSM   H16F13014   4.784   4.880   8.943 -1.4673 -0.0047  0.1407
  122OSM   H16G13015   4.850   5.030   8.957  0.8057 -1.9444 -0.5805
  122OSM   C17F13016   4.692   5.032   8.813  0.1267  0.4459 -1.0265
  122OSM   H17F13017   4.774   5.068   8.747  1.5408  0.3871  0.6116
  122OSM   H17G13018   4.620   5.114   8.832  0.1037 -0.1100  1.8272
  122OSM   C18F13019   4.615   4.930   8.734 -0.4037  0.2723 -0.2427
  122OSM   H18F13020   4.521   4.917   8.791  0.8130 -1.9416  1.4038
  122OSM   H18G13021   4.675   4.837   8.739 -1.9259 -0.7794 -0.7505
  122OSM   H18H13022   4.587   4.967   8.633  0.8514  0.4222 -0.5575
  123OSM      N13023   6.308   4.934   6.162 -0.4821  0.2098 -0.3924
  123OSM    C1513024   6.277   4.788   6.166  0.0698  0.3416  0.3836
  123OSM   H15A13025   6.356   4.740   6.111  0.4103 -1.5040  2.3511
  123OSM   H15B13026   6.174   4.772   6.138  0.2163 -0.9569  0.5350
  123OSM   H15C13027   6.273   4.741   6.263  1.0305  0.2024  0.3711
  123OSM    C1413028   6.292   4.993   6.028 -0.3613  0.6806  0.4743
  123OSM   H14A13029   6.342   4.934   5.952 -1.7131 -0.1661  0.1903
  123OSM   H14B13030   6.338   5.090   6.019  0.3560  0.5082  2.1021
  123OSM   H14C13031   6.186   4.990   6.006 -0.3154 -0.7974  0.3466
  123OSM    C1313032   6.210   5.001   6.256 -0.0564 -1.0032  0.1030
  123OSM   H13A13033   6.237   4.974   6.357  1.2373 -2.6745 -0.6354
  123OSM   H13B13034   6.110   4.972   6.229 -0.1102  0.9077 -2.1100
  123OSM   H13C13035   6.213   5.108   6.244  0.3856 -1.1541 -1.4491
  123OSM    C1213036   6.451   4.954   6.207 -0.7904 -0.1074  0.1658
  123OSM   H12A13037   6.513   4.934   6.121  2.0062  2.4260  1.4032
  123OSM   H12B13038   6.476   4.878   6.279 -0.1902 -1.0859 -1.0431
  123OSM    C1113039   6.494   5.086   6.265  0.2450 -0.9136  0.7925
  123OSM   H11A13040   6.597   5.075   6.306  1.1617  3.0426  0.0102
  123OSM   H11B13041   6.426   5.119   6.347 -0.0980  0.9275 -0.1728
  123OSM      P13042   6.602   5.187   6.048 -0.1310 -0.4845 -0.4421
  123OSM    O1313043   6.634   5.046   6.010 -0.0817  0.0552  0.0840
  123OSM    O1413044   6.576   5.283   5.934  0.1751  1.1605 -0.0933
  123OSM    O1113045   6.734   5.235   6.126  0.4999 -0.6516  0.2901
  123OSM    O1213046   6.494   5.191   6.162  0.0541 -0.4203  0.5519
  123OSM    C1S13047   6.748   5.350   6.199 -0.0607  0.7360 -0.7304
  123OSM    H1S13048   6.670   5.428   6.184 -1.0176 -0.0813 -0.1052
  123OSM    H1T13049   6.848   5.394   6.176 -0.3091  1.1719 -0.9763
  123OSM     NF13050   6.771   5.461   6.425 -0.0374  0.4174  0.0777
  123OSM    HNF13051   6.854   5.466   6.480 -0.1365  0.3443  0.2372
  123OSM    C2S13052   6.758   5.327   6.356  0.3407 -0.0061  0.1935
  123OSM    H2S13053   6.660   5.294   6.398  0.5618  1.4786  2.0216
  123OSM    C3S13054   6.878   5.225   6.390 -0.3662  0.4946 -0.1515
  123OSM    H3S13055   6.978   5.272   6.378  1.2065 -1.8074  2.4893
  123OSM     O313056   6.884   5.117   6.298 -0.1165 -0.1817  0.5244
  123OSM    HO313057   6.836   5.143   6.219  1.2009  1.8498  0.3002
  123OSM    C4S13058   6.869   5.178   6.538 -0.5241 -0.1950 -0.7349
  123OSM    H4S13059   6.929   5.242   6.604 -0.7475 -0.5195 -0.2147
  123OSM    C5S13060   6.791   5.076   6.587  0.8005 -0.1803 -0.2116
  123OSM    H5S13061   6.733   5.020   6.512  2.6153  1.1640 -2.7492
  123OSM    C6S13062   6.767   5.030   6.729 -0.7734  0.1818 -0.3808
  123OSM    H6S13063   6.815   4.931   6.747  3.1293  1.7401 -1.1828
  123OSM    H6T13064   6.657   5.024   6.743 -1.2164  2.9526 -2.0111
  123OSM    C7S13065   6.825   5.124   6.833 -0.3390  0.4220 -0.3073
  123OSM    H7S13066   6.929   5.152   6.806 -0.1954 -0.6215 -0.8486
  123OSM    H7T13067   6.841   5.066   6.927 -1.2783  0.7906  0.0938
  123OSM    C8S13068   6.739   5.256   6.870  0.1702  0.2559  0.8130
  123OSM    H8S13069   6.649   5.224   6.927 -0.6829 -0.2613 -0.7464
  123OSM    H8T13070   6.691   5.294   6.777 -0.5667 -0.0138  1.0757
  123OSM    C9S13071   6.828   5.357   6.936 -0.2693 -0.0893 -0.0353
  123OSM    H9S13072   6.773   5.452   6.917  1.1870  0.9781  0.7823
  123OSM    H9T13073   6.925   5.384   6.890 -0.2059 -0.6095 -0.2062
  123OSM   C10S13074   6.845   5.325   7.078  0.3831  0.1099  0.7357
  123OSM   H10S13075   6.908   5.235   7.093 -1.1033 -1.2707 -0.9458
  123OSM   H10T13076   6.746   5.298   7.121 -0.4471  2.6795  0.6109
  123OSM   C11S13077   6.904   5.439   7.158  0.0917  0.2746  0.8182
  123OSM   H11S13078   6.826   5.518   7.162  0.2273  0.3685  2.1827
  123OSM   H11T13079   6.994   5.481   7.107  0.0632  0.9831  1.3452
  123OSM   C12S13080   6.928   5.397   7.304 -0.2631 -0.1283 -0.3346
  123OSM   H12S13081   6.978   5.486   7.348  0.2871  0.6505 -2.3883
  123OSM   H12T13082   6.992   5.307   7.312 -1.1119 -0.8226 -1.1181
  123OSM   C13S13083   6.801   5.372   7.392  0.2118  0.0085  0.1984
  123OSM   H13S13084   6.732   5.295   7.352  0.1721 -0.0652  0.4075
  123OSM   H13T13085   6.745   5.466   7.408 -1.0631 -0.1969 -2.5692
  123OSM   C14S13086   6.838   5.311   7.529 -0.0941 -0.0531  0.0896
  123OSM   H14S13087   6.900   5.389   7.577 -0.0143 -0.5709  0.8576
  123OSM   H14T13088   6.898   5.219   7.512 -2.5154 -1.5028 -1.3835
  123OSM   C15S13089   6.710   5.280   7.612 -1.0470 -0.2773  0.3512
  123OSM   H15S13090   6.748   5.219   7.697 -1.6532 -1.8098 -0.4322
  123OSM   H15T13091   6.633   5.226   7.552 -2.8603 -0.0345  2.3480
  123OSM   C16S13092   6.649   5.405   7.677  0.6294 -1.2037  0.6944
  123OSM   H16S13093   6.553   5.365   7.715 -1.2766  1.5355 -0.9262
  123OSM   H16T13094   6.618   5.477   7.599  0.2645 -0.3596  1.6111
  123OSM   C17S13095   6.728   5.477   7.783 -0.5488 -0.4126 -0.5740
  123OSM   H17S13096   6.803   5.532   7.722 -1.0761  0.1285 -0.7493
  123OSM   H17T13097   6.784   5.407   7.848 -0.2906  0.3854  0.0876
  123OSM   C18S13098   6.652   5.559   7.889 -0.9310  0.1295 -0.3124
  123OSM   H18S13099   6.625   5.486   7.968 -2.0526 -0.1286 -0.9081
  123OSM   H18T13100   6.556   5.587   7.841  0.3826  3.2543 -1.3992
  123OSM   H18U13101   6.708   5.648   7.924 -0.5269 -0.8451  1.6162
  123OSM    C1F13102   6.669   5.551   6.440 -0.0499  0.1068 -0.0744
  123OSM     OF13103   6.560   5.522   6.394  0.0975 -0.5132 -0.1663
  123OSM    C2F13104   6.679   5.673   6.530  0.2404 -0.0691  0.1836
  123OSM    H2F13105   6.604   5.750   6.502 -1.7918 -1.5964  1.1395
  123OSM    H2G13106   6.781   5.716   6.516  0.9625 -1.5387  0.7374
  123OSM    C3F13107   6.658   5.635   6.672 -0.3704 -0.0436  0.6815
  123OSM    H3F13108   6.736   5.561   6.701  0.2270  0.6540  0.8820
  123OSM    H3G13109   6.559   5.589   6.692  0.0423 -0.4862  1.7725
  123OSM    C4F13110   6.665   5.764   6.759 -0.1093  0.3784  0.5374
  123OSM    H4F13111   6.569   5.817   6.744 -0.3173 -0.3083 -0.6312
  123OSM    H4G13112   6.749   5.825   6.720 -1.0424 -0.1974 -2.6012
  123OSM    C5F13113   6.689   5.756   6.914  0.3288  0.1193  0.0340
  123OSM    H5F13114   6.711   5.858   6.951  1.5327 -0.3330  0.6291
  123OSM    H5G13115   6.779   5.692   6.929 -1.1905 -2.1983 -0.2410
  123OSM    C6F13116   6.563   5.703   6.992  0.5199 -0.2912 -0.3008
  123OSM    H6F13117   6.559   5.593   6.977  0.7772 -0.3989  0.3835
  123OSM    H6G13118   6.472   5.747   6.947  0.4223  1.2674  1.3200
  123OSM    C7F13119   6.579   5.736   7.143  0.5010  0.8495  0.6220
  123OSM    H7F13120   6.577   5.846   7.156 -0.3996  0.6427  2.5891
  123OSM    H7G13121   6.683   5.708   7.173  0.6763 -0.0989 -0.7582
  123OSM    C8F13122   6.482   5.669   7.239 -0.1908 -0.7465 -0.2518
  123OSM    H8F13123   6.516   5.691   7.342  1.5364  0.2924 -0.9987
  123OSM    H8G13124   6.480   5.560   7.222  0.6047 -0.8717  0.3759
  123OSM    C9F13125   6.340   5.713   7.216 -0.0148 -0.4129 -0.9970
  123OSM    H9F13126   6.284   5.650   7.146 -0.8316 -0.6491 -0.1502
  123OSM   C10F13127   6.275   5.805   7.299  0.5318  0.3596  0.6855
  123OSM   H10F13128   6.176   5.837   7.263 -0.3947 -1.9870  0.9096
  123OSM   C11F13129   6.337   5.877   7.412 -0.4126 -0.7303  0.2707
  123OSM   H11F13130   6.356   5.983   7.383 -2.3067 -0.0237  1.3913
  123OSM   H11G13131   6.429   5.828   7.449 -0.2904 -1.8126 -1.3586
  123OSM   C12F13132   6.255   5.877   7.544  0.1486 -1.0253  0.5558
  123OSM   H12F13133   6.244   5.776   7.590 -0.3525 -1.1780  0.1111
  123OSM   H12G13134   6.156   5.925   7.528  1.1315  1.0058  0.3766
  123OSM   C13F13135   6.336   5.961   7.648  1.0296  0.4351 -0.4446
  123OSM   H13F13136   6.364   6.060   7.606  2.1786 -0.4385 -1.7918
  123OSM   H13G13137   6.433   5.908   7.658  0.5161 -0.2276  1.5904
  123OSM   C14F13138   6.270   5.963   7.782 -0.4745  0.4686  0.4293
  123OSM   H14F13139   6.162   5.989   7.782 -0.8131 -0.8615  0.6775
  123OSM   H14G13140   6.322   6.042   7.841  2.7808 -0.9649 -0.3011
  123OSM   C15F13141   6.282   5.840   7.872  0.2724  0.2556  0.2270
  123OSM   H15F13142   6.387   5.808   7.851 -0.3918 -0.4233 -2.5718
  123OSM   H15G13143   6.227   5.758   7.822  1.5647 -1.1691  1.0472
  123OSM   C16F13144   6.249   5.867   8.017 -0.0366 -0.3247 -0.2822
  123OSM   H16F13145   6.304   5.958   8.049  0.5337 -0.0832 -1.8554
  123OSM   H16G13146   6.296   5.785   8.074  1.1673 -1.2821 -2.5144
  123OSM   C17F13147   6.096   5.872   8.059 -0.0929  0.3620 -0.3414
  123OSM   H17F13148   6.044   5.784   8.016 -0.8220  1.8896 -2.8591
  123OSM   H17G13149   6.055   5.951   7.992 -2.6860 -1.5828 -1.2138
  123OSM   C18F13150   6.066   5.888   8.198 -0.3094  0.2162 -0.3158
  123OSM   H18F13151   6.101   5.988   8.231 -0.1002 -0.6857  2.4682
  123OSM   H18G13152   6.124   5.817   8.260 -0.2670 -0.3087 -0.9515
  123OSM   H18H13153   5.957   5.895   8.223 -0.1520 -0.4707  0.6393
  124OSM      N13154   3.267   1.658   6.146 -1.3639  0.6989 -0.1795
  124OSM    C1513155   3.408   1.694   6.122  0.9684 -0.9421 -0.2089
  124OSM   H15A13156   3.420   1.801   6.118 -0.9742 -0.6597  0.7591
  124OSM   H15B13157   3.449   1.660   6.028 -1.4018 -0.2797 -1.5500
  124OSM   H15C13158   3.467   1.655   6.205  0.7616  2.2205  1.5720
  124OSM    C1413159   3.178   1.747   6.063  0.1404 -0.0307 -0.0539
  124OSM   H14A13160   3.199   1.755   5.958 -1.9171 -0.2613 -0.5277
  124OSM   H14B13161   3.183   1.847   6.103  0.6911  0.4654 -1.3389
  124OSM   H14C13162   3.077   1.711   6.080 -0.3326  0.5822 -1.4400
  124OSM    C1313163   3.251   1.514   6.106  0.1284  0.2547  0.5819
  124OSM   H13A13164   3.147   1.491   6.122 -0.4026  0.7536 -1.7954
  124OSM   H13B13165   3.321   1.455   6.164 -0.0485 -1.8120 -1.1695
  124OSM   H13C13166   3.278   1.485   6.005 -2.1708  0.1154 -0.0365
  124OSM    C1213167   3.226   1.673   6.295  0.3457 -0.4149 -0.2160
  124OSM   H12A13168   3.222   1.777   6.324  1.8009  0.0612 -1.5418
  124OSM   H12B13169   3.299   1.628   6.361  1.5961  1.6763 -0.0703
  124OSM    C1113170   3.087   1.614   6.326  0.4670  0.3360 -0.0795
  124OSM   H11A13171   3.089   1.590   6.435  3.0897 -2.1925 -0.5605
  124OSM   H11B13172   3.073   1.515   6.278 -1.4045  0.2998  0.4630
  124OSM      P13173   2.832   1.668   6.296 -0.0729  0.0378  0.1043
  124OSM    O1313174   2.744   1.790   6.293 -0.1107  0.2497  0.3327
  124OSM    O1413175   2.797   1.553   6.207  0.5636  0.8770 -0.4747
  124OSM    O1113176   2.818   1.623   6.450 -0.2934  0.6797  0.1669
  124OSM    O1213177   2.982   1.707   6.283 -0.0422  0.1577 -0.1323
  124OSM    C1S13178   2.819   1.704   6.569 -0.1477  0.4077  0.5777
  124OSM    H1S13179   2.812   1.813   6.549  0.3012  0.7252  2.0532
  124OSM    H1T13180   2.912   1.689   6.628  0.2105  0.6743  0.0913
  124OSM     NF13181   2.730   1.729   6.800  0.3728  0.4149 -0.8962
  124OSM    HNF13182   2.785   1.674   6.863  0.0316  1.6600  0.5540
  124OSM    C2S13183   2.700   1.675   6.669  0.1678  0.1172 -0.5599
  124OSM    H2S13184   2.620   1.731   6.617 -0.2578 -1.0696 -1.1922
  124OSM    C3S13185   2.660   1.522   6.675  0.1271 -0.6111  0.3731
  124OSM    H3S13186   2.745   1.467   6.721  0.9923 -0.2562 -0.7541
  124OSM     O313187   2.653   1.446   6.552  0.3414 -0.4051  0.2019
  124OSM    HO313188   2.680   1.511   6.486 -0.6112 -0.6665 -0.4549
  124OSM    C4S13189   2.542   1.496   6.767 -0.2281  0.6521  0.0092
  124OSM    H4S13190   2.563   1.519   6.872  0.0203 -0.4296  0.2094
  124OSM    C5S13191   2.415   1.463   6.734  0.2229 -0.6348  0.0215
  124OSM    H5S13192   2.392   1.456   6.626 -0.2671 -1.7819  0.1820
  124OSM    C6S13193   2.293   1.461   6.835 -0.1476 -0.0996 -0.5122
  124OSM    H6S13194   2.257   1.356   6.836 -0.3817 -0.0766 -2.7970
  124OSM    H6T13195   2.219   1.535   6.798  0.3300  0.8887  0.4422
  124OSM    C7S13196   2.329   1.507   6.978 -0.4042  0.4051  0.7787
  124OSM    H7S13197   2.352   1.616   6.980 -1.3445  0.7456 -2.0468
  124OSM    H7T13198   2.412   1.450   7.026  0.7962  0.3017 -1.2936
  124OSM    C8S13199   2.203   1.490   7.065  0.6601 -0.1465 -0.0835
  124OSM    H8S13200   2.176   1.382   7.056  2.3091 -0.9265  2.8798
  124OSM    H8T13201   2.132   1.561   7.017 -0.2112 -0.2247  1.0385
  124OSM    C9S13202   2.232   1.516   7.212  1.0100 -0.1529  0.3689
  124OSM    H9S13203   2.260   1.624   7.209  0.0418  0.1985  2.0312
  124OSM    H9T13204   2.321   1.466   7.254  0.1222 -0.6150  1.7729
  124OSM   C10S13205   2.114   1.495   7.309 -0.5191  0.0304 -0.6556
  124OSM   H10S13206   2.083   1.389   7.317  2.6942 -0.9769 -0.3114
  124OSM   H10T13207   2.037   1.564   7.268 -1.4516 -1.8741 -2.2400
  124OSM   C11S13208   2.146   1.542   7.449 -0.3517  0.9211  0.1167
  124OSM   H11S13209   2.159   1.652   7.450  0.4517  0.8343  0.3443
  124OSM   H11T13210   2.240   1.493   7.482 -0.8083  0.8165  1.3124
  124OSM   C12S13211   2.036   1.495   7.548  0.5176 -0.0673 -0.1736
  124OSM   H12S13212   2.027   1.386   7.530 -1.8572  0.1646 -0.8226
  124OSM   H12T13213   1.939   1.539   7.516  1.3382  3.5663  1.7007
  124OSM   C13S13214   2.065   1.514   7.703 -0.6572 -0.1083  0.9172
  124OSM   H13S13215   2.089   1.621   7.722  0.4930  0.0607 -1.1543
  124OSM   H13T13216   2.162   1.461   7.718  1.0922  1.9428 -2.0265
  124OSM   C14S13217   1.960   1.450   7.798 -0.6589 -0.0882  0.4135
  124OSM   H14S13218   1.932   1.347   7.770  0.2574 -0.1265 -0.4117
  124OSM   H14T13219   1.868   1.512   7.803 -0.6150 -0.0250  0.4449
  124OSM   C15S13220   2.009   1.448   7.946  0.5234  0.4108 -0.4825
  124OSM   H15S13221   1.994   1.553   7.977 -0.5590  0.4068 -0.9266
  124OSM   H15T13222   2.116   1.422   7.955  0.2070 -1.0672 -0.5924
  124OSM   C16S13223   1.916   1.351   8.034 -0.2782 -0.3935  0.5179
  124OSM   H16S13224   1.914   1.247   7.997  2.2344 -0.3544  0.1182
  124OSM   H16T13225   1.809   1.381   8.028 -0.6143 -1.3836  1.3577
  124OSM   C17S13226   1.950   1.340   8.183  0.3572 -0.9842 -0.3633
  124OSM   H17S13227   1.889   1.263   8.235  1.1331 -0.6016  1.1884
  124OSM   H17T13228   1.924   1.437   8.232  1.0077 -1.2860  0.6167
  124OSM   C18S13229   2.097   1.303   8.211 -0.3158  0.4439  0.0880
  124OSM   H18S13230   2.128   1.298   8.317 -0.3220 -1.9826  0.0469
  124OSM   H18T13231   2.171   1.374   8.168  0.6303  1.3995  3.0424
  124OSM   H18U13232   2.121   1.200   8.175  0.2167  0.3595  0.6776
  124OSM    C1F13233   2.720   1.859   6.828  0.8914 -0.4591  0.6604
  124OSM     OF13234   2.691   1.943   6.737  0.0682 -0.4336 -0.1190
  124OSM    C2F13235   2.756   1.910   6.972  0.7005 -0.4772 -0.2188
  124OSM    H2F13236   2.866   1.920   6.976  0.6754 -0.5108  0.7514
  124OSM    H2G13237   2.720   1.834   7.046  2.5822 -0.6182  0.6054
  124OSM    C3F13238   2.696   2.053   7.014  0.4606 -0.2954  0.2393
  124OSM    H3F13239   2.587   2.036   7.003  0.5713  0.2617 -2.5224
  124OSM    H3G13240   2.729   2.121   6.933 -0.1078  0.0606  0.3027
  124OSM    C4F13241   2.737   2.122   7.149  0.1819 -0.1147 -0.4795
  124OSM    H4F13242   2.676   2.213   7.165 -0.8200 -0.2040 -3.3599
  124OSM    H4G13243   2.843   2.156   7.146  0.1948  0.4207  2.6532
  124OSM    C5F13244   2.722   2.034   7.270  0.2450 -0.7135 -0.1862
  124OSM    H5F13245   2.794   1.950   7.259  0.3210 -0.4720 -1.6221
  124OSM    H5G13246   2.622   1.986   7.264  0.6371 -1.6661  0.6016
  124OSM    C6F13247   2.760   2.109   7.401 -0.0391 -0.0786 -0.4876
  124OSM    H6F13248   2.689   2.189   7.433 -0.1888 -1.7817  4.0953
  124OSM    H6G13249   2.856   2.163   7.389  1.2073 -2.3426 -1.4005
  124OSM    C7F13250   2.772   2.012   7.523 -0.4992 -0.1685  0.3803
  124OSM    H7F13251   2.844   1.933   7.492  0.4373  1.0231 -0.5667
  124OSM    H7G13252   2.669   1.973   7.534  0.0728 -1.2133  2.4306
  124OSM    C8F13253   2.812   2.089   7.644  0.6508  0.0444  0.8203
  124OSM    H8F13254   2.885   2.170   7.626  0.5921 -0.1320 -0.2640
  124OSM    H8G13255   2.864   2.014   7.707  1.1243  0.9053  1.4876
  124OSM    C9F13256   2.693   2.150   7.722 -0.1329 -0.7533 -0.3292
  124OSM    H9F13257   2.609   2.195   7.668 -0.5734  0.7313  1.5001
  124OSM   C10F13258   2.694   2.146   7.855  0.2482 -0.0726  0.2999
  124OSM   H10F13259   2.612   2.208   7.896 -0.0693  0.2875 -0.8303
  124OSM   C11F13260   2.782   2.081   7.955 -0.0738  0.1849  0.4953
  124OSM   H11F13261   2.861   2.021   7.905  0.9703  2.1613 -0.3873
  124OSM   H11G13262   2.720   2.019   8.023 -1.4851  0.3429 -0.6030
  124OSM   C12F13263   2.854   2.189   8.050 -0.2112 -0.8099 -0.1201
  124OSM   H12F13264   2.941   2.133   8.091  0.6510  0.3580 -0.2857
  124OSM   H12G13265   2.785   2.219   8.132 -0.1339 -2.2871  0.5059
  124OSM   C13F13266   2.903   2.311   7.965 -0.8725  0.2578  0.6460
  124OSM   H13F13267   2.821   2.368   7.918 -1.5496 -2.0573 -1.1456
  124OSM   H13G13268   2.942   2.275   7.868 -1.1016  2.0017 -0.1199
  124OSM   C14F13269   3.012   2.389   8.034 -0.2000  0.1509 -0.1995
  124OSM   H14F13270   3.050   2.473   7.972  1.3477  1.0719  1.8791
  124OSM   H14G13271   3.098   2.322   8.057 -0.4946  0.1788  1.0765
  124OSM   C15F13272   2.973   2.449   8.172 -0.3975 -0.2843  0.0992
  124OSM   H15F13273   2.937   2.366   8.237 -1.7177  0.0344 -0.2065
  124OSM   H15G13274   2.884   2.514   8.164 -1.0792 -0.8601  2.1576
  124OSM   C16F13275   3.080   2.540   8.238 -0.5393  0.2574 -0.2668
  124OSM   H16F13276   3.107   2.621   8.167  0.2505 -0.3852 -0.7152
  124OSM   H16G13277   3.177   2.487   8.252  0.4945  2.0863 -0.1274
  124OSM   C17F13278   3.021   2.621   8.362 -0.0256  0.8923 -0.5859
  124OSM   H17F13279   2.973   2.552   8.436  2.4208 -3.0933 -2.4200
  124OSM   H17G13280   2.938   2.687   8.327 -1.4133 -0.8020 -0.5868
  124OSM   C18F13281   3.122   2.709   8.434 -0.9199  0.5822  0.1071
  124OSM   H18F13282   3.180   2.767   8.359 -0.7468 -3.0598 -2.8123
  124OSM   H18G13283   3.200   2.645   8.481 -1.4302 -1.6417 -1.9002
  124OSM   H18H13284   3.074   2.782   8.504 -0.5833  2.2524 -1.3251
  125OSM      N13285   1.882   4.066   5.972 -0.0985 -0.1382 -0.2815
  125OSM    C1513286   1.754   4.138   5.918 -0.2286 -0.3347 -1.0410
  125OSM   H15A13287   1.688   4.175   5.995  0.8231 -0.3180 -0.1317
  125OSM   H15B13288   1.697   4.081   5.846 -1.9606  3.0905 -2.5812
  125OSM   H15C13289   1.793   4.218   5.856  0.2391 -0.8622 -1.4424
  125OSM    C1413290   1.826   3.942   6.025 -0.2384  0.9828  0.6107
  125OSM   H14A13291   1.905   3.874   6.052 -0.4108 -0.1504 -1.4622
  125OSM   H14B13292   1.762   3.887   5.958  0.6301 -0.9965  1.3501
  125OSM   H14C13293   1.769   3.952   6.116  1.5648 -0.9843  2.0504
  125OSM    C1313294   1.968   4.030   5.849  0.3215 -0.2973  0.6112
  125OSM   H13A13295   2.018   4.119   5.812 -1.7338  1.0534  0.8886
  125OSM   H13B13296   1.907   3.986   5.772  3.1141 -1.1857 -1.2330
  125OSM   H13C13297   2.050   3.963   5.872  0.4485 -1.8689 -3.6655
  125OSM    C1213298   1.953   4.146   6.075 -0.0591 -0.0350  0.0797
  125OSM   H12A13299   1.988   4.239   6.033 -0.2926 -0.7876 -1.9025
  125OSM   H12B13300   2.048   4.096   6.083 -1.4800 -3.2387 -1.3550
  125OSM    C1113301   1.892   4.174   6.213 -0.7506  0.3457 -0.4147
  125OSM   H11A13302   1.791   4.217   6.199  0.1990  2.6884 -0.5684
  125OSM   H11B13303   1.953   4.251   6.265 -0.0013 -1.3649  1.3614
  125OSM      P13304   2.002   3.986   6.355 -0.3423 -0.3435 -0.0560
  125OSM    O1313305   1.956   3.906   6.474  0.2240  0.3160  1.1590
  125OSM    O1413306   2.077   3.920   6.243 -0.0236 -0.1597 -0.5958
  125OSM    O1113307   2.106   4.101   6.401 -0.0482  0.2088  0.5705
  125OSM    O1213308   1.883   4.062   6.297  0.2068  0.2977  0.5688
  125OSM    C1S13309   2.081   4.185   6.509 -0.5115 -0.3208  1.0152
  125OSM    H1S13310   1.976   4.221   6.513 -0.9358 -1.2360 -0.9648
  125OSM    H1T13311   2.144   4.276   6.501 -2.4133  1.0612  1.1012
  125OSM     NF13312   2.048   4.197   6.760 -0.1672  0.0321  0.6739
  125OSM    HNF13313   2.100   4.250   6.826 -0.6270  0.7838  0.4459
  125OSM    C2S13314   2.114   4.123   6.654  0.0601  0.3918 -0.8125
  125OSM    H2S13315   2.073   4.020   6.653 -2.0149  1.1282  0.3960
  125OSM    C3S13316   2.276   4.109   6.673 -0.5440 -0.0492 -0.4681
  125OSM    H3S13317   2.316   4.213   6.679  1.8654 -0.6465 -3.6105
  125OSM     O313318   2.347   4.043   6.570  0.2702 -0.0766 -0.7407
  125OSM    HO313319   2.287   4.002   6.507  0.9571 -2.2691 -0.0681
  125OSM    C4S13320   2.299   4.038   6.810  0.6083  0.1638  0.2827
  125OSM    H4S13321   2.296   4.089   6.907  1.1577  0.1139  0.3270
  125OSM    C5S13322   2.335   3.909   6.824  1.2824  0.2134 -0.6571
  125OSM    H5S13323   2.353   3.847   6.735 -0.8457 -0.3666 -0.7407
  125OSM    C6S13324   2.359   3.842   6.957 -0.6079  0.2342  0.1653
  125OSM    H6S13325   2.464   3.805   6.954 -1.1711 -1.4337  0.1165
  125OSM    H6T13326   2.294   3.753   6.969 -0.7313  0.0683 -1.4618
  125OSM    C7S13327   2.348   3.935   7.070  0.9541  1.1605  0.1033
  125OSM    H7S13328   2.244   3.958   7.102  0.4975 -1.6966  0.9865
  125OSM    H7T13329   2.406   4.029   7.062 -1.2550  2.7317  1.2866
  125OSM    C8S13330   2.402   3.858   7.198 -0.0003 -0.0689 -0.2673
  125OSM    H8S13331   2.505   3.819   7.188 -0.4836 -1.1579 -1.2296
  125OSM    H8T13332   2.327   3.776   7.209 -0.1934  0.0850 -0.4335
  125OSM    C9S13333   2.410   3.942   7.330  0.1675  1.0759 -0.3954
  125OSM    H9S13334   2.312   3.991   7.349 -1.4172 -1.3584 -1.7277
  125OSM    H9T13335   2.487   4.021   7.311  1.8900 -0.5784 -0.6076
  125OSM   C10S13336   2.435   3.856   7.448 -0.2971  0.0554 -0.3817
  125OSM   H10S13337   2.546   3.849   7.456 -0.2951  1.2529  1.3545
  125OSM   H10T13338   2.399   3.754   7.424 -1.4216  0.0460  1.1839
  125OSM   C11S13339   2.374   3.893   7.584 -0.2713 -0.2140  0.1535
  125OSM   H11S13340   2.263   3.903   7.591 -0.4174 -2.2750  1.6140
  125OSM   H11T13341   2.419   3.991   7.613  1.3746 -1.1317  0.7859
  125OSM   C12S13342   2.423   3.796   7.697 -0.4194  0.2591 -0.2135
  125OSM   H12S13343   2.534   3.788   7.697 -0.3560 -1.5196 -4.1792
  125OSM   H12T13344   2.378   3.696   7.679 -1.5942  0.8899 -0.8453
  125OSM   C13S13345   2.385   3.855   7.829 -0.2884  0.0842 -0.0453
  125OSM   H13S13346   2.277   3.881   7.836 -0.2816 -0.1418  1.0913
  125OSM   H13T13347   2.450   3.944   7.844  0.3832 -0.6013  1.3376
  125OSM   C14S13348   2.408   3.760   7.944 -0.4192 -0.7410  0.6046
  125OSM   H14S13349   2.510   3.725   7.919 -0.5561 -0.5278 -0.2869
  125OSM   H14T13350   2.337   3.675   7.932 -1.9235  0.6002 -0.5228
  125OSM   C15S13351   2.403   3.844   8.074  0.9453 -0.0870  0.3453
  125OSM   H15S13352   2.301   3.882   8.095  0.8041  0.5692 -1.3422
  125OSM   H15T13353   2.458   3.939   8.056 -0.6847  0.8753  0.2461
  125OSM   C16S13354   2.467   3.766   8.185  0.6147 -0.0190  0.6699
  125OSM   H16S13355   2.575   3.753   8.164  1.1709  0.7080  2.7874
  125OSM   H16T13356   2.414   3.669   8.186 -1.0878  0.8579  0.4613
  125OSM   C17S13357   2.443   3.831   8.326  0.1306 -0.6412  0.0887
  125OSM   H17S13358   2.334   3.826   8.347 -0.0475 -0.9067 -0.8110
  125OSM   H17T13359   2.480   3.935   8.335 -1.5344 -0.0623  0.5191
  125OSM   C18S13360   2.522   3.755   8.435  0.6642  0.0169 -0.5246
  125OSM   H18S13361   2.501   3.646   8.428 -0.1380  0.2074 -1.2250
  125OSM   H18T13362   2.480   3.784   8.534 -0.8679  0.5900 -1.3103
  125OSM   H18U13363   2.632   3.767   8.437  0.7451 -0.5707 -0.9903
  125OSM    C1F13364   1.919   4.212   6.763  0.5772  0.0321 -0.1834
  125OSM     OF13365   1.845   4.128   6.716  0.3068  0.8374  0.5147
  125OSM    C2F13366   1.868   4.333   6.834 -0.2673 -0.0139  0.5756
  125OSM    H2F13367   1.837   4.410   6.759 -0.5250  1.8373  2.4999
  125OSM    H2G13368   1.941   4.370   6.909  2.0036  0.9053 -1.9035
  125OSM    C3F13369   1.743   4.314   6.914  0.8477  0.6230  0.2699
  125OSM    H3F13370   1.777   4.253   7.001  1.5701  2.3791  1.2780
  125OSM    H3G13371   1.666   4.264   6.851 -0.0796 -1.3858  2.7842
  125OSM    C4F13372   1.693   4.448   6.973  0.1236 -0.5215  0.1336
  125OSM    H4F13373   1.592   4.439   7.019 -1.9147 -0.4755 -3.9429
  125OSM    H4G13374   1.668   4.516   6.889  1.4887  0.0938  0.2136
  125OSM    C5F13375   1.788   4.505   7.079  0.1257  0.4329  0.1217
  125OSM    H5F13376   1.861   4.558   7.014 -0.5854  0.1697 -0.9120
  125OSM    H5G13377   1.850   4.433   7.137  0.1457  1.1595  1.0220
  125OSM    C6F13378   1.710   4.597   7.171  0.5621 -0.1826  0.2745
  125OSM    H6F13379   1.659   4.551   7.258  2.8111 -0.0125  1.7504
  125OSM    H6G13380   1.629   4.652   7.119  0.3065  1.7911  2.5730
  125OSM    C7F13381   1.800   4.701   7.232 -0.0980 -0.2183  0.0219
  125OSM    H7F13382   1.831   4.767   7.148  1.2050  1.2389  1.5892
  125OSM    H7G13383   1.901   4.675   7.271  1.4022  3.2512 -1.1833
  125OSM    C8F13384   1.736   4.781   7.344 -0.3530  0.1008  0.5342
  125OSM    H8F13385   1.656   4.845   7.300 -1.0439 -1.3480 -0.4187
  125OSM    H8G13386   1.817   4.849   7.379 -2.6511  1.3246  4.0439
  125OSM    C9F13387   1.683   4.697   7.455 -0.0751 -0.2488  0.5902
  125OSM    H9F13388   1.726   4.595   7.450  0.1456 -0.0959 -1.0767
  125OSM   C10F13389   1.583   4.720   7.538  0.5457 -0.5045 -0.4869
  125OSM   H10F13390   1.540   4.647   7.607  1.7488  0.8624  1.8227
  125OSM   C11F13391   1.505   4.853   7.552  0.7863 -0.2894 -0.7866
  125OSM   H11F13392   1.404   4.841   7.507  0.5795  0.8143 -0.6376
  125OSM   H11G13393   1.550   4.945   7.509 -0.4881  0.4381 -0.6127
  125OSM   C12F13394   1.474   4.885   7.702 -0.4085  0.5232 -0.2059
  125OSM   H12F13395   1.423   4.803   7.758  0.1075 -0.0674 -0.5960
  125OSM   H12G13396   1.402   4.970   7.699 -0.8378  0.6027  4.2802
  125OSM   C13F13397   1.595   4.930   7.767  0.3957  0.1821 -0.1040
  125OSM   H13F13398   1.647   4.997   7.695 -0.7366 -0.0322 -1.1606
  125OSM   H13G13399   1.657   4.840   7.785 -0.4547 -0.9365 -2.3385
  125OSM   C14F13400   1.571   5.007   7.901  0.2637 -0.6543 -0.7477
  125OSM   H14F13401   1.489   4.954   7.955  0.4807 -0.7225 -0.4872
  125OSM   H14G13402   1.522   5.104   7.877  0.4315 -1.0232 -2.7631
  125OSM   C15F13403   1.704   5.039   7.974 -0.6596 -0.0375  0.1122
  125OSM   H15F13404   1.772   5.082   7.898  1.2577 -1.9259  0.6780
  125OSM   H15G13405   1.759   4.953   8.017  1.0640  1.2182  0.5031
  125OSM   C16F13406   1.680   5.140   8.086  0.2292  0.2663 -0.3284
  125OSM   H16F13407   1.608   5.094   8.157  1.7374 -0.8638  0.5155
  125OSM   H16G13408   1.634   5.232   8.043 -2.5264 -0.4310  0.8960
  125OSM   C17F13409   1.802   5.185   8.169  0.4766  0.3568  0.8347
  125OSM   H17F13410   1.889   5.205   8.102 -0.2564  0.5853 -0.0688
  125OSM   H17G13411   1.831   5.108   8.243 -1.0519  0.8482  2.0032
  125OSM   C18F13412   1.773   5.317   8.249 -0.3629 -0.0838 -0.5054
  125OSM   H18F13413   1.747   5.398   8.178  0.3885  0.5090 -0.1160
  125OSM   H18G13414   1.872   5.326   8.298 -0.5290 -3.0515  0.5970
  125OSM   H18H13415   1.690   5.301   8.321  1.9836 -1.8327  2.0202
  126OSM      N13416   6.695   3.313   6.417  0.1662  0.1141  0.1819
  126OSM    C1513417   6.551   3.310   6.436  0.7840  0.3084  0.1237
  126OSM   H15A13418   6.532   3.246   6.521  0.8273 -0.4416 -0.4295
  126OSM   H15B13419   6.502   3.257   6.356  0.8948 -1.7942  1.3800
  126OSM   H15C13420   6.499   3.404   6.449 -2.2098 -0.9523 -1.7387
  126OSM    C1413421   6.724   3.290   6.272  0.0250  0.4868 -0.0646
  126OSM   H14A13422   6.665   3.359   6.214 -1.7822 -0.4182  0.5948
  126OSM   H14B13423   6.670   3.201   6.242 -0.1454  0.3606  0.6187
  126OSM   H14C13424   6.829   3.284   6.246  0.0316 -0.5438  0.1460
  126OSM    C1313425   6.749   3.446   6.453  0.2512 -0.1459 -0.2684
  126OSM   H13A13426   6.856   3.445   6.467  0.1409 -2.9274  1.1625
  126OSM   H13B13427   6.717   3.466   6.554  2.6358  0.2181  0.4784
  126OSM   H13C13428   6.719   3.530   6.392  0.9991  1.2572  1.2190
  126OSM    C1213429   6.753   3.208   6.502  0.1882  0.3643 -0.1435
  126OSM   H12A13430   6.731   3.240   6.603  2.0703 -1.6463  1.0007
  126OSM   H12B13431   6.861   3.213   6.496  0.2277 -0.0200  0.1472
  126OSM    C1113432   6.715   3.058   6.468  0.1769  0.1233  0.3429
  126OSM   H11A13433   6.784   2.993   6.527 -0.8690 -0.9389  0.4226
  126OSM   H11B13434   6.736   3.032   6.362  0.1152  2.9767 -0.4548
  126OSM      P13435   6.533   2.916   6.582  0.3927  0.0581  0.0005
  126OSM    O1313436   6.387   2.914   6.588  0.5158 -0.0505 -0.4994
  126OSM    O1413437   6.601   2.793   6.535  0.0283  0.1767 -0.0475
  126OSM    O1113438   6.589   2.957   6.719  0.1213 -0.2937 -0.2662
  126OSM    O1213439   6.573   3.033   6.488  0.3665  0.1455  0.1031
  126OSM    C1S13440   6.656   2.872   6.808 -0.4862  0.2657 -0.5172
  126OSM    H1S13441   6.763   2.882   6.779 -0.5838  2.7608 -0.2994
  126OSM    H1T13442   6.628   2.766   6.795  3.8068 -0.7961 -3.1733
  126OSM     NF13443   6.749   2.864   7.045 -0.1682 -0.2504 -0.3184
  126OSM    HNF13444   6.728   2.792   7.111 -1.6626 -0.5277 -1.0426
  126OSM    C2S13445   6.641   2.915   6.963  0.5247 -0.0863  0.4212
  126OSM    H2S13446   6.634   3.026   6.955 -0.0305 -0.2211 -1.3262
  126OSM    C3S13447   6.500   2.874   7.017  0.2884  0.5271 -0.8599
  126OSM    H3S13448   6.490   2.763   7.020  3.1181  0.1971 -0.8190
  126OSM     O313449   6.388   2.909   6.936 -0.7263 -1.0332 -0.1889
  126OSM    HO313450   6.414   2.893   6.845 -2.1469  1.3679 -1.1146
  126OSM    C4S13451   6.472   2.931   7.153  0.0870 -0.1486 -0.0677
  126OSM    H4S13452   6.483   3.040   7.160 -1.0183  0.0610 -1.1914
  126OSM    C5S13453   6.431   2.857   7.256  0.5044 -0.1712 -0.6621
  126OSM    H5S13454   6.394   2.754   7.248  1.3009 -0.6870  1.4848
  126OSM    C6S13455   6.400   2.933   7.384 -0.3074  0.1501 -0.0069
  126OSM    H6S13456   6.296   2.972   7.382 -0.1902  0.5646  1.4267
  126OSM    H6T13457   6.472   3.015   7.404  0.9082 -0.9725  0.3205
  126OSM    C7S13458   6.411   2.844   7.508 -0.2480 -0.4347 -0.6974
  126OSM    H7S13459   6.515   2.806   7.516  0.3076  0.4395 -2.8411
  126OSM    H7T13460   6.355   2.749   7.497  2.4045 -2.1735 -0.0989
  126OSM    C8S13461   6.368   2.913   7.635 -0.5280 -0.7729  0.3667
  126OSM    H8S13462   6.259   2.935   7.640 -0.5509 -0.6795 -0.3899
  126OSM    H8T13463   6.422   3.006   7.662  0.5884 -1.6507  1.2466
  126OSM    C9S13464   6.419   2.832   7.754  0.5844 -0.1698 -0.2302
  126OSM    H9S13465   6.528   2.812   7.756  0.8876  1.2169 -1.3305
  126OSM    H9T13466   6.356   2.741   7.755  1.3003 -0.6760 -0.7120
  126OSM   C10S13467   6.400   2.888   7.901  0.5778 -0.2872 -0.1620
  126OSM   H10S13468   6.296   2.923   7.913  1.2270  1.7283 -0.1488
  126OSM   H10T13469   6.466   2.975   7.921 -0.9258  1.1476 -1.2219
  126OSM   C11S13470   6.419   2.765   7.998 -0.2086  0.1844  0.4677
  126OSM   H11S13471   6.523   2.727   7.986  0.1431  1.3529 -0.3245
  126OSM   H11T13472   6.347   2.685   7.968  1.6259 -2.1048  1.7857
  126OSM   C12S13473   6.418   2.796   8.147 -0.0511 -0.3210  0.3890
  126OSM   H12S13474   6.495   2.875   8.161  0.5408 -0.8142 -0.0754
  126OSM   H12T13475   6.452   2.702   8.195  2.5126 -0.2751 -1.1570
  126OSM   C13S13476   6.278   2.840   8.200  0.5570 -0.3351 -0.2443
  126OSM   H13S13477   6.199   2.775   8.155  1.1067 -1.9592  1.0384
  126OSM   H13T13478   6.260   2.944   8.164  0.4835  0.1610  1.1726
  126OSM   C14S13479   6.264   2.835   8.356 -0.6891 -0.0751  0.3365
  126OSM   H14S13480   6.336   2.896   8.414  3.1462 -4.3848  0.7277
  126OSM   H14T13481   6.282   2.732   8.395 -0.6286 -0.6371 -1.0816
  126OSM   C15S13482   6.133   2.895   8.394  0.4315 -0.3621  0.2483
  126OSM   H15S13483   6.053   2.854   8.329  1.3248 -0.8474 -0.5654
  126OSM   H15T13484   6.137   3.006   8.401 -3.7814 -0.0127 -0.3853
  126OSM   C16S13485   6.071   2.851   8.529 -0.1450  0.4683  0.1724
  126OSM   H16S13486   6.096   2.743   8.525 -2.1346  0.0045 -1.2226
  126OSM   H16T13487   5.961   2.851   8.542 -0.1830 -1.2244  0.1808
  126OSM   C17S13488   6.126   2.929   8.648  0.0714 -0.5681  0.9133
  126OSM   H17S13489   6.080   3.028   8.631  1.5406 -0.0298 -0.1166
  126OSM   H17T13490   6.236   2.937   8.637  0.0017 -1.3107 -0.7408
  126OSM   C18S13491   6.078   2.870   8.780  0.5208  0.6936  0.7260
  126OSM   H18S13492   5.968   2.878   8.776  0.5579  1.3924  1.0424
  126OSM   H18T13493   6.122   2.911   8.874 -0.3512  0.5587  1.2077
  126OSM   H18U13494   6.103   2.761   8.778  0.0442  0.5676  1.4207
  126OSM    C1F13495   6.867   2.923   7.042  0.3445 -0.4615 -0.3055
  126OSM     OF13496   6.893   3.007   6.955 -0.1271  0.1795  0.0619
  126OSM    C2F13497   6.962   2.883   7.151  0.0472 -0.0402 -0.0547
  126OSM    H2F13498   6.969   2.773   7.153  1.8637  0.0348 -0.6550
  126OSM    H2G13499   6.929   2.927   7.247 -2.4347  0.9739 -1.2827
  126OSM    C3F13500   7.103   2.944   7.136  0.5118 -1.0646 -0.5210
  126OSM    H3F13501   7.101   3.055   7.137  2.0574 -1.0053  0.8280
  126OSM    H3G13502   7.137   2.921   7.033 -1.9087 -2.0966 -1.1413
  126OSM    C4F13503   7.211   2.887   7.220 -0.8204 -0.4064 -0.2628
  126OSM    H4F13504   7.308   2.923   7.178 -0.6664  0.9021  1.0976
  126OSM    H4G13505   7.203   2.779   7.196 -0.5877 -0.5961  0.4899
  126OSM    C5F13506   7.235   2.901   7.368 -0.4197  0.4897 -0.2310
  126OSM    H5F13507   7.314   2.826   7.391 -0.1885  0.1654 -1.9836
  126OSM    H5G13508   7.147   2.868   7.427  0.4067 -0.7863  0.3333
  126OSM    C6F13509   7.280   3.042   7.411 -0.2543 -0.1388  0.5067
  126OSM    H6F13510   7.194   3.109   7.393 -0.5980 -0.4483  0.9513
  126OSM    H6G13511   7.362   3.075   7.344 -0.6537  3.5011  1.6343
  126OSM    C7F13512   7.322   3.047   7.555 -0.2553  0.2664  0.6509
  126OSM    H7F13513   7.366   3.148   7.570 -1.5867  0.8633  0.5999
  126OSM    H7G13514   7.395   2.963   7.568 -0.4348 -0.3589 -1.9174
  126OSM    C8F13515   7.209   3.016   7.653  0.2970 -0.4737  0.3617
  126OSM    H8F13516   7.175   2.911   7.646  1.0265 -0.8119  1.4874
  126OSM    H8G13517   7.117   3.076   7.638 -0.6159 -1.9539 -0.0379
  126OSM    C9F13518   7.256   3.029   7.796 -0.5431  0.7838 -0.1086
  126OSM    H9F13519   7.311   3.122   7.819 -0.2007  0.6332 -0.3143
  126OSM   C10F13520   7.240   2.939   7.894  0.4113  0.0971 -0.0228
  126OSM   H10F13521   7.290   2.959   7.990 -1.7719  2.5904  0.7167
  126OSM   C11F13522   7.173   2.801   7.903  0.3054  0.0669 -0.0163
  126OSM   H11F13523   7.129   2.776   7.804  4.3916 -1.2010 -1.7100
  126OSM   H11G13524   7.103   2.802   7.990  2.0470 -1.0979  1.4700
  126OSM   C12F13525   7.273   2.689   7.946 -0.2539  0.2746 -0.5125
  126OSM   H12F13526   7.212   2.609   7.993 -1.7990  1.1815 -0.8989
  126OSM   H12G13527   7.339   2.723   8.029 -0.4247 -0.2336 -0.1611
  126OSM   C13F13528   7.359   2.635   7.834  0.5874 -0.5771  0.6987
  126OSM   H13F13529   7.420   2.715   7.788 -1.3056 -1.4963 -3.9980
  126OSM   H13G13530   7.287   2.612   7.753  1.0238  1.3249 -0.2700
  126OSM   C14F13531   7.441   2.517   7.877  0.1647  0.1238  0.2586
  126OSM   H14F13532   7.437   2.446   7.791 -1.0247 -2.6030  2.3927
  126OSM   H14G13533   7.386   2.460   7.956  0.3769 -1.9536 -0.9994
  126OSM   C15F13534   7.583   2.554   7.926  0.3236  0.7155 -0.4978
  126OSM   H15F13535   7.568   2.602   8.025 -4.5034 -1.1365 -0.0500
  126OSM   H15G13536   7.644   2.608   7.850 -0.8873  2.4135 -0.2982
  126OSM   C16F13537   7.645   2.416   7.958 -0.6219 -0.0167  0.0281
  126OSM   H16F13538   7.647   2.366   7.859  0.4506 -0.0079  0.0283
  126OSM   H16G13539   7.574   2.351   8.014  0.2121 -2.0160 -1.1379
  126OSM   C17F13540   7.774   2.411   8.037  0.4017 -0.1235 -0.6146
  126OSM   H17F13541   7.747   2.451   8.137 -0.6515 -0.1472 -0.8752
  126OSM   H17G13542   7.833   2.488   7.985 -0.7186  0.0830 -1.6362
  126OSM   C18F13543   7.828   2.263   8.049 -0.0725 -0.2880  0.1277
  126OSM   H18F13544   7.854   2.222   7.949 -3.1443 -1.4691 -0.3009
  126OSM   H18G13545   7.753   2.195   8.096  0.0481  0.1381  0.9538
  126OSM   H18H13546   7.912   2.266   8.122 -1.5500  0.3498  1.9115
  127OSM      N13547   1.015   1.962   6.580 -0.2596 -0.3454  0.4169
  127OSM    C1513548   1.096   1.887   6.669  0.5653 -0.1114 -0.3117
  127OSM   H15A13549   1.183   1.942   6.703  0.8536 -0.5782 -0.2803
  127OSM   H15B13550   1.134   1.802   6.615  1.6615 -0.5719  1.1172
  127OSM   H15C13551   1.042   1.850   6.755  1.2137  0.4113  0.3382
  127OSM    C1413552   0.908   1.869   6.527 -0.0602 -0.5270  0.8832
  127OSM   H14A13553   0.945   1.778   6.483  0.1967 -0.6231  1.2973
  127OSM   H14B13554   0.832   1.912   6.464  0.5212 -2.0924 -0.9779
  127OSM   H14C13555   0.852   1.831   6.611 -1.3937  0.5274  0.4984
  127OSM    C1313556   0.960   2.087   6.645 -0.1109 -0.7433  0.1006
  127OSM   H13A13557   0.868   2.076   6.700 -0.6348  0.9248 -0.3677
  127OSM   H13B13558   0.948   2.163   6.568 -0.2347 -1.0373 -0.1720
  127OSM   H13C13559   1.041   2.125   6.705  1.0442 -1.5186 -0.9227
  127OSM    C1213560   1.098   2.011   6.461  0.0103  0.5080 -0.5229
  127OSM   H12A13561   1.187   2.064   6.492  0.5699 -1.3934  1.3859
  127OSM   H12B13562   1.046   2.086   6.403 -0.4913  0.8108  0.2879
  127OSM    C1113563   1.140   1.914   6.351  0.0264 -0.2358 -0.1268
  127OSM   H11A13564   1.050   1.878   6.296 -1.2278  0.4681  1.3916
  127OSM   H11B13565   1.193   1.823   6.386  0.0532 -0.8870 -1.7900
  127OSM      P13566   1.382   1.978   6.265 -0.2100  0.1514  0.2949
  127OSM    O1313567   1.448   1.855   6.218 -0.4191 -0.0703  0.4176
  127OSM    O1413568   1.427   2.107   6.216 -0.1020  0.1050  0.3116
  127OSM    O1113569   1.395   1.974   6.424 -0.0201  0.1789 -0.0194
  127OSM    O1213570   1.225   1.973   6.253 -0.6230 -0.7700  0.0425
  127OSM    C1S13571   1.431   2.092   6.499 -0.5212 -0.7292  0.4927
  127OSM    H1S13572   1.335   2.145   6.520 -1.1928 -1.9710  0.6611
  127OSM    H1T13573   1.495   2.168   6.449 -3.0230  1.1376 -0.1238
  127OSM     NF13574   1.490   2.168   6.719 -0.4064  0.4190  0.0274
  127OSM    HNF13575   1.584   2.197   6.733  0.5679 -2.2226 -0.4081
  127OSM    C2S13576   1.500   2.051   6.629  0.3776 -0.2413 -0.4121
  127OSM    H2S13577   1.448   1.963   6.672 -0.0811  0.3236  0.2191
  127OSM    C3S13578   1.643   2.003   6.597 -0.0207  0.7000  0.4440
  127OSM    H3S13579   1.700   2.093   6.566  0.8887  0.4427  1.2997
  127OSM     O313580   1.644   1.907   6.488 -0.3315 -0.1522  0.0464
  127OSM    HO313581   1.551   1.894   6.472 -0.1798 -1.6867  0.2787
  127OSM    C4S13582   1.706   1.947   6.725  0.1192  0.4253 -0.0149
  127OSM    H4S13583   1.784   2.011   6.768  0.8523  0.4961 -1.4130
  127OSM    C5S13584   1.682   1.829   6.791  0.2562  0.0434  0.3111
  127OSM    H5S13585   1.603   1.762   6.753  0.2854 -0.7468  1.6044
  127OSM    C6S13586   1.756   1.793   6.919 -1.0314  0.3623  0.2378
  127OSM    H6S13587   1.846   1.857   6.938  0.1234 -1.4918  1.3807
  127OSM    H6T13588   1.800   1.691   6.926 -3.1106 -0.5267  1.2497
  127OSM    C7S13589   1.661   1.800   7.045 -0.5970 -0.1875  0.9392
  127OSM    H7S13590   1.594   1.712   7.038  0.3101 -1.1575  3.4369
  127OSM    H7T13591   1.587   1.882   7.033 -1.1694 -0.8395 -0.1386
  127OSM    C8S13592   1.726   1.805   7.184 -0.0269 -0.2755 -0.7305
  127OSM    H8S13593   1.794   1.717   7.186  0.9409  0.4454 -1.1368
  127OSM    H8T13594   1.650   1.768   7.256 -1.5548  2.5171 -0.7808
  127OSM    C9S13595   1.791   1.939   7.226  0.3277 -0.4394  0.5547
  127OSM    H9S13596   1.714   2.019   7.234 -0.1619 -0.5833 -1.8809
  127OSM    H9T13597   1.860   1.968   7.144  0.5168 -0.1043  0.8279
  127OSM   C10S13598   1.877   1.921   7.346 -0.2212  0.4563 -0.6007
  127OSM   H10S13599   1.960   1.995   7.356  0.3390 -0.3201  0.7999
  127OSM   H10T13600   1.937   1.829   7.333  0.0509  0.5260  0.1036
  127OSM   C11S13601   1.792   1.910   7.469  0.2958  1.2399 -0.9646
  127OSM   H11S13602   1.738   1.814   7.468 -0.1657  1.4525  1.0523
  127OSM   H11T13603   1.721   1.996   7.471 -0.5830  0.5459  2.3300
  127OSM   C12S13604   1.885   1.916   7.593  0.1879 -0.1620 -0.5949
  127OSM   H12S13605   1.947   2.008   7.599 -0.1500 -0.0271  1.5602
  127OSM   H12T13606   1.953   1.829   7.580 -1.1318 -1.5826  1.4943
  127OSM   C13S13607   1.809   1.895   7.730 -0.2476  0.6205 -0.3974
  127OSM   H13S13608   1.756   1.798   7.717  3.0941 -1.2854 -0.9460
  127OSM   H13T13609   1.752   1.987   7.755  1.5021  1.0077  2.7847
  127OSM   C14S13610   1.915   1.879   7.840  0.0370  0.0610  0.4235
  127OSM   H14S13611   1.976   1.970   7.858  2.8713 -1.6988  0.4852
  127OSM   H14T13612   1.986   1.798   7.811  1.1001  0.7919  0.9041
  127OSM   C15S13613   1.849   1.850   7.977 -0.5289 -0.3895 -0.6622
  127OSM   H15S13614   1.801   1.751   7.973  0.5190 -0.9417 -0.0830
  127OSM   H15T13615   1.780   1.934   8.001 -1.1806 -0.6763 -1.5055
  127OSM   C16S13616   1.944   1.843   8.099 -0.7022 -0.0826 -0.6104
  127OSM   H16S13617   2.008   1.933   8.111  1.1586 -1.4510  0.2655
  127OSM   H16T13618   2.012   1.758   8.071 -1.2920 -1.4219  1.7924
  127OSM   C17S13619   1.874   1.804   8.222 -0.0882  0.3077 -0.3303
  127OSM   H17S13620   1.826   1.705   8.211  1.6924 -0.6892  0.5194
  127OSM   H17T13621   1.803   1.885   8.251 -1.8321 -0.7344 -1.5347
  127OSM   C18S13622   1.979   1.786   8.325 -0.1776  0.1855  0.3592
  127OSM   H18S13623   2.026   1.880   8.360 -0.0069  0.3443 -0.2841
  127OSM   H18T13624   2.059   1.712   8.305 -1.0415 -1.4761  2.5914
  127OSM   H18U13625   1.933   1.723   8.405 -0.6580 -0.5048 -0.4399
  127OSM    C1F13626   1.379   2.202   6.787  0.0606  0.2422  0.0449
  127OSM     OF13627   1.286   2.125   6.795  0.6030  0.6785 -0.0115
  127OSM    C2F13628   1.381   2.337   6.838 -0.4396 -0.0753 -0.8362
  127OSM    H2F13629   1.334   2.409   6.767 -1.2423 -1.6999 -2.0174
  127OSM    H2G13630   1.489   2.360   6.845 -0.5671  0.0895  0.8312
  127OSM    C3F13631   1.337   2.346   6.985 -0.5992 -0.0931 -0.9610
  127OSM    H3F13632   1.228   2.324   6.994 -0.6505  0.2497 -0.7166
  127OSM    H3G13633   1.356   2.451   7.016 -3.9296  0.3747 -0.0247
  127OSM    C4F13634   1.414   2.248   7.081  0.3926  0.5549 -0.2145
  127OSM    H4F13635   1.522   2.272   7.069  0.6175 -0.0981  0.4100
  127OSM    H4G13636   1.390   2.142   7.062  0.9698  0.5327 -0.8685
  127OSM    C5F13637   1.382   2.258   7.227 -0.8312 -0.3612 -0.2158
  127OSM    H5F13638   1.276   2.232   7.248 -1.3311  1.9975  0.5140
  127OSM    H5G13639   1.391   2.363   7.263 -1.1307 -0.4762  0.2035
  127OSM    C6F13640   1.454   2.160   7.312  0.1847 -0.3947  0.4210
  127OSM    H6F13641   1.558   2.189   7.340  1.2388 -3.6635  0.3836
  127OSM    H6G13642   1.467   2.070   7.248  0.9501  0.4735 -0.6810
  127OSM    C7F13643   1.390   2.142   7.454 -0.3125  0.1565  0.5469
  127OSM    H7F13644   1.285   2.109   7.445 -0.7297  1.9197 -2.3774
  127OSM    H7G13645   1.372   2.243   7.497  0.9606  0.6578 -0.0493
  127OSM    C8F13646   1.466   2.060   7.562  0.0283 -0.0307  0.1039
  127OSM    H8F13647   1.562   2.111   7.582 -0.2920  1.3448 -1.6106
  127OSM    H8G13648   1.506   1.965   7.522 -0.9246 -0.6903  0.6917
  127OSM    C9F13649   1.391   2.041   7.692 -0.0863  0.8281  0.3820
  127OSM    H9F13650   1.339   1.945   7.706  0.5045  0.3128 -0.8208
  127OSM   C10F13651   1.385   2.121   7.798 -0.2731 -0.7313  0.0479
  127OSM   H10F13652   1.327   2.089   7.886 -0.9361  1.3935  0.4579
  127OSM   C11F13653   1.459   2.258   7.813 -0.0448 -0.3423  0.0656
  127OSM   H11F13654   1.383   2.336   7.838  0.6620  1.3004 -2.5433
  127OSM   H11G13655   1.511   2.286   7.719 -1.2812  0.8000 -0.3176
  127OSM   C12F13656   1.554   2.256   7.931 -0.6134 -0.6704  0.2768
  127OSM   H12F13657   1.598   2.358   7.926 -0.3757 -0.6459  2.1411
  127OSM   H12G13658   1.637   2.184   7.920 -1.7107 -1.7689 -1.2052
  127OSM   C13F13659   1.483   2.228   8.064  0.4847 -0.0484  0.1009
  127OSM   H13F13660   1.446   2.123   8.059  0.1147  0.0052  1.3812
  127OSM   H13G13661   1.396   2.296   8.072  0.6752  0.2711 -0.5071
  127OSM   C14F13662   1.584   2.233   8.183  0.2714  0.1075 -0.0524
  127OSM   H14F13663   1.647   2.323   8.170 -2.0826  2.5954  3.6681
  127OSM   H14G13664   1.645   2.140   8.183  1.4939  0.7690  3.3267
  127OSM   C15F13665   1.503   2.254   8.304 -0.7384  0.7049  0.2415
  127OSM   H15F13666   1.431   2.170   8.321 -1.3081  1.2596  0.6393
  127OSM   H15G13667   1.459   2.355   8.294 -0.5688  0.9282  1.5180
  127OSM   C16F13668   1.596   2.266   8.427 -0.4193  0.7458 -0.4299
  127OSM   H16F13669   1.540   2.300   8.516 -1.6744 -0.4236 -0.7464
  127OSM   H16G13670   1.684   2.331   8.407 -1.9606  2.8965 -0.5622
  127OSM   C17F13671   1.666   2.130   8.461  0.0867 -0.4653  0.1948
  127OSM   H17F13672   1.745   2.112   8.385 -1.0156 -0.1382 -1.0473
  127OSM   H17G13673   1.590   2.051   8.447  0.5856 -0.9306  0.0729
  127OSM   C18F13674   1.727   2.114   8.601 -0.6260 -0.6709 -0.0227
  127OSM   H18F13675   1.762   2.008   8.601  2.0239  0.0800  2.6366
  127OSM   H18G13676   1.644   2.127   8.673 -0.8695  0.1731 -0.4416
  127OSM   H18H13677   1.808   2.187   8.621 -2.0122  0.3124  2.3469
  128OSM      N13678   3.192   5.000   6.146 -0.1357  0.0089  0.4945
  128OSM    C1513679   3.067   5.010   6.061  0.2781  0.0829  0.2282
  128OSM   H15A13680   2.987   5.026   6.131  0.5152  2.7364 -0.0089
  128OSM   H15B13681   3.057   4.917   6.007  0.1789 -0.3605  1.0025
  128OSM   H15C13682   3.073   5.094   5.993  0.7199  0.1693  0.3742
  128OSM    C1413683   3.182   4.881   6.231  0.7083 -0.5137  0.8655
  128OSM   H14A13684   3.174   4.798   6.162 -4.2223  1.1752 -1.0494
  128OSM   H14B13685   3.093   4.886   6.292  1.6733 -0.7106  2.3335
  128OSM   H14C13686   3.270   4.876   6.293  0.9911  1.7002  0.7032
  128OSM    C1313687   3.306   4.987   6.048 -0.6791 -0.3097  0.1821
  128OSM   H13A13688   3.311   5.061   5.970 -1.6874 -1.8439 -1.4321
  128OSM   H13B13689   3.292   4.892   5.998  2.5027 -1.2529  0.8942
  128OSM   H13C13690   3.402   4.981   6.097 -0.2492  0.0120 -0.6103
  128OSM    C1213691   3.222   5.123   6.230  0.1937  0.1866  1.1343
  128OSM   H12A13692   3.250   5.206   6.167 -1.3147  0.1121  0.3222
  128OSM   H12B13693   3.317   5.101   6.277  0.9947 -0.3539 -0.6357
  128OSM    C1113694   3.125   5.167   6.340  0.8646  0.3777  0.1506
  128OSM   H11A13695   3.173   5.239   6.411  2.9324  0.2055 -0.9730
  128OSM   H11B13696   3.096   5.073   6.392  0.3071  0.6704  0.3699
  128OSM      P13697   3.021   5.362   6.195  0.4852  0.1439 -0.1202
  128OSM    O1313698   3.140   5.369   6.109  0.1772  0.4573  0.2210
  128OSM    O1413699   2.885   5.381   6.133 -0.5981 -0.8217  0.0268
  128OSM    O1113700   3.041   5.477   6.298  0.5848  0.7294 -0.1059
  128OSM    O1213701   3.015   5.229   6.282  0.9700 -0.5944  0.4152
  128OSM    C1S13702   2.931   5.515   6.383  0.1968 -0.8122 -0.1324
  128OSM    H1S13703   2.834   5.488   6.335  0.7244  1.1143 -2.5480
  128OSM    H1T13704   2.917   5.625   6.389 -1.2600 -0.9175 -1.0014
  128OSM     NF13705   2.832   5.487   6.607 -0.1304 -0.1087 -0.1584
  128OSM    HNF13706   2.827   5.578   6.649  1.4143  0.7728 -1.7470
  128OSM    C2S13707   2.950   5.455   6.528 -0.4164 -0.3954  0.1638
  128OSM    H2S13708   2.954   5.345   6.516 -1.3746 -0.4362  0.0919
  128OSM    C3S13709   3.083   5.503   6.587 -0.3760  0.4351 -0.0494
  128OSM    H3S13710   3.077   5.611   6.613  0.9009  0.6937 -0.7744
  128OSM     O313711   3.202   5.498   6.507 -0.1074  0.6472  0.2391
  128OSM    HO313712   3.173   5.481   6.417 -0.8835 -3.8361  1.0995
  128OSM    C4S13713   3.111   5.427   6.717 -0.1660 -0.3266  0.4733
  128OSM    H4S13714   3.081   5.493   6.800  1.7518  1.4745 -0.1696
  128OSM    C5S13715   3.181   5.312   6.738 -0.9038 -0.3762 -0.7118
  128OSM    H5S13716   3.219   5.249   6.656  1.2972 -1.6930  1.2026
  128OSM    C6S13717   3.216   5.257   6.875  0.0323  0.1476 -0.6160
  128OSM    H6S13718   3.320   5.216   6.880 -0.0163  0.0796 -0.0012
  128OSM    H6T13719   3.149   5.172   6.900  2.2776 -0.8969  2.7110
  128OSM    C7S13720   3.210   5.352   7.003 -0.1117 -0.3778 -0.3740
  128OSM    H7S13721   3.108   5.396   7.008  0.3727  0.7441 -0.0158
  128OSM    H7T13722   3.272   5.444   6.996 -0.3811 -0.2665 -1.4814
  128OSM    C8S13723   3.243   5.282   7.142  0.0841  0.0500 -0.3409
  128OSM    H8S13724   3.350   5.301   7.166  0.0823 -1.6142  1.1495
  128OSM    H8T13725   3.224   5.173   7.135  1.0468 -0.2106  0.8588
  128OSM    C9S13726   3.170   5.333   7.266  0.1744  0.6952 -0.5415
  128OSM    H9S13727   3.065   5.301   7.244 -0.6381  2.8923 -0.0719
  128OSM    H9T13728   3.176   5.440   7.296  1.8233  0.1870  1.1746
  128OSM   C10S13729   3.218   5.258   7.395  0.7574  0.2332  0.4940
  128OSM   H10S13730   3.324   5.276   7.422  0.8444 -1.2691  1.2715
  128OSM   H10T13731   3.201   5.148   7.389  1.4586 -0.0401  2.7257
  128OSM   C11S13732   3.127   5.296   7.511  0.6567 -0.2117  0.2202
  128OSM   H11S13733   3.018   5.286   7.488  0.4991  0.8703  0.4636
  128OSM   H11T13734   3.139   5.403   7.537 -0.9629  0.3095 -0.9885
  128OSM   C12S13735   3.156   5.211   7.636  0.1883  0.3200  0.0281
  128OSM   H12S13736   3.111   5.110   7.625  1.7286 -0.2842 -1.2390
  128OSM   H12T13737   3.110   5.262   7.723  0.7999  0.4531  0.2787
  128OSM   C13S13738   3.302   5.169   7.677 -0.2751  0.7055  0.0865
  128OSM   H13S13739   3.353   5.266   7.691 -1.0786  1.4293 -1.7369
  128OSM   H13T13740   3.350   5.104   7.601 -1.3549  0.9918 -0.8827
  128OSM   C14S13741   3.309   5.077   7.802 -0.0519  0.4102 -0.3221
  128OSM   H14S13742   3.403   5.019   7.803  0.2682  0.8110 -2.4479
  128OSM   H14T13743   3.231   4.998   7.801 -1.7056  1.9656 -0.1910
  128OSM   C15S13744   3.283   5.159   7.933 -0.4072  0.1602  0.1048
  128OSM   H15S13745   3.319   5.263   7.921 -0.7404  0.4281  1.2337
  128OSM   H15T13746   3.350   5.116   8.010 -0.4235 -1.0793 -0.5533
  128OSM   C16S13747   3.143   5.160   7.987 -0.2763 -0.1755 -0.2334
  128OSM   H16S13748   3.122   5.068   8.046 -0.4038  0.1405  0.2201
  128OSM   H16T13749   3.070   5.168   7.904  1.3671 -0.9454 -1.8127
  128OSM   C17S13750   3.102   5.285   8.070 -0.1528  0.3488  0.2436
  128OSM   H17S13751   3.181   5.316   8.141  1.1089 -1.8418 -0.1135
  128OSM   H17T13752   3.026   5.248   8.141 -1.7064 -2.8817 -2.8082
  128OSM   C18S13753   3.049   5.397   7.987 -0.3474 -0.6179  0.4779
  128OSM   H18S13754   2.977   5.358   7.911 -0.2969  0.5419 -0.1957
  128OSM   H18T13755   3.126   5.456   7.933 -0.9563  1.7755  2.0374
  128OSM   H18U13756   2.996   5.476   8.045  0.7479  1.0608 -0.7117
  128OSM    C1F13757   2.716   5.430   6.574  0.2294  1.1773  0.9861
  128OSM     OF13758   2.716   5.326   6.509  0.3204  0.4529 -0.3405
  128OSM    C2F13759   2.586   5.492   6.625  0.2194 -0.2315  0.4057
  128OSM    H2F13760   2.542   5.552   6.543 -0.6997  0.7285  1.5720
  128OSM    H2G13761   2.610   5.565   6.705 -0.8227 -0.9957  1.4464
  128OSM    C3F13762   2.469   5.394   6.653 -0.5647  0.4087 -0.3257
  128OSM    H3F13763   2.490   5.325   6.737  0.0957 -0.8522 -1.4993
  128OSM    H3G13764   2.449   5.328   6.566 -1.1731  0.3388 -0.1386
  128OSM    C4F13765   2.338   5.455   6.688 -0.7446 -0.3925 -0.3210
  128OSM    H4F13766   2.254   5.384   6.696 -0.1695 -1.1736 -0.9588
  128OSM    H4G13767   2.308   5.529   6.611  1.9775  2.9285  1.5271
  128OSM    C5F13768   2.341   5.533   6.818  0.4632  0.7733  0.5041
  128OSM    H5F13769   2.237   5.561   6.844 -1.3069 -2.8025 -1.9371
  128OSM    H5G13770   2.394   5.628   6.795 -0.9494  1.2541 -0.9384
  128OSM    C6F13771   2.403   5.460   6.938 -0.4221 -0.5053  0.9359
  128OSM    H6F13772   2.508   5.425   6.921 -0.4081  0.8170 -2.4268
  128OSM    H6G13773   2.349   5.365   6.959 -0.3163 -0.6824  0.4221
  128OSM    C7F13774   2.394   5.552   7.071  0.0906 -0.1080 -0.6765
  128OSM    H7F13775   2.428   5.656   7.054 -0.2621  0.6248  2.5383
  128OSM    H7G13776   2.455   5.503   7.150 -0.1641 -1.0882 -1.0739
  128OSM    C8F13777   2.253   5.557   7.131  0.1259  0.3570 -0.2348
  128OSM    H8F13778   2.212   5.456   7.150  0.1934  0.5650  1.0574
  128OSM    H8G13779   2.181   5.602   7.059 -0.8338 -1.4145 -0.4526
  128OSM    C9F13780   2.253   5.641   7.255 -0.1616  0.4645  0.9728
  128OSM    H9F13781   2.329   5.721   7.244 -1.0219  1.0171 -1.9041
  128OSM   C10F13782   2.190   5.617   7.369  0.1848  0.2722 -0.7325
  128OSM   H10F13783   2.197   5.687   7.453 -0.8022 -2.1661  1.5192
  128OSM   C11F13784   2.101   5.496   7.400 -0.4472 -0.4498 -0.1096
  128OSM   H11F13785   2.114   5.420   7.320 -0.5034  1.4578 -2.0304
  128OSM   H11G13786   1.998   5.537   7.403  0.5578  2.2288  1.5147
  128OSM   C12F13787   2.136   5.415   7.533  0.5580 -0.4549 -0.3393
  128OSM   H12F13788   2.072   5.325   7.536 -1.6924  1.0479 -0.5979
  128OSM   H12G13789   2.102   5.484   7.613  0.1202 -1.0423 -0.0202
  128OSM   C13F13790   2.284   5.382   7.548  0.4466 -0.5624  0.3308
  128OSM   H13F13791   2.337   5.475   7.578  1.5230 -0.8113 -0.7233
  128OSM   H13G13792   2.336   5.345   7.457 -0.4130  1.2484 -0.9611
  128OSM   C14F13793   2.311   5.292   7.663  0.5477 -0.4268  1.1362
  128OSM   H14F13794   2.421   5.271   7.658  0.4581 -0.6559 -0.1349
  128OSM   H14G13795   2.250   5.202   7.639 -1.8978  1.6367 -0.8866
  128OSM   C15F13796   2.273   5.347   7.801 -0.0169  0.0014 -0.3973
  128OSM   H15F13797   2.163   5.350   7.820 -0.4777 -0.6310 -2.6665
  128OSM   H15G13798   2.308   5.452   7.810 -1.8429  0.6512 -0.3870
  128OSM   C16F13799   2.326   5.255   7.920  0.8985  0.5340  0.1882
  128OSM   H16F13800   2.436   5.268   7.923  0.9666  0.8168 -1.9497
  128OSM   H16G13801   2.300   5.151   7.890 -1.4981  0.8182  1.0705
  128OSM   C17F13802   2.259   5.296   8.047 -0.2691  0.5103  0.4900
  128OSM   H17F13803   2.149   5.286   8.034 -0.0004 -1.3642 -0.8626
  128OSM   H17G13804   2.281   5.404   8.054  3.6015 -0.0960  0.0002
  128OSM   C18F13805   2.305   5.229   8.173 -0.3799 -0.1837  0.4524
  128OSM   H18F13806   2.281   5.121   8.166  0.3897 -0.4039  1.0236
  128OSM   H18G13807   2.255   5.273   8.262 -0.0848 -0.8772  0.9610
  128OSM   H18H13808   2.412   5.249   8.193 -0.1905 -0.0829 -0.6067
  129OSM      N13809   6.351   2.868   6.185  0.0075  1.0980  0.0699
  129OSM    C1513810   6.331   2.810   6.054  0.6853  0.1813  0.6914
  129OSM   H15A13811   6.345   2.703   6.064 -2.2925 -0.3133  0.4311
  129OSM   H15B13812   6.391   2.854   5.977 -0.0690 -0.7266 -0.4520
  129OSM   H15C13813   6.228   2.819   6.021  1.5850 -0.6491 -2.6694
  129OSM    C1413814   6.499   2.894   6.194 -0.3259 -0.4046  0.5035
  129OSM   H14A13815   6.560   2.805   6.190  0.2212 -0.0219  0.3023
  129OSM   H14B13816   6.516   2.950   6.285  2.1776 -1.0081  0.4684
  129OSM   H14C13817   6.524   2.942   6.100 -0.1218 -1.1577  0.1681
  129OSM    C1313818   6.291   3.001   6.205  0.0847 -0.0851  0.0905
  129OSM   H13A13819   6.184   3.010   6.193  0.2386  1.3522 -0.5390
  129OSM   H13B13820   6.327   3.072   6.131 -0.0473 -1.4813 -1.3755
  129OSM   H13C13821   6.323   3.043   6.299 -0.1837  1.2185 -0.3678
  129OSM    C1213822   6.297   2.774   6.291 -0.1864  0.0335 -0.0517
  129OSM   H12A13823   6.304   2.836   6.380  0.9099  0.3164 -0.3082
  129OSM   H12B13824   6.358   2.685   6.300  0.6982  0.5852 -0.4011
  129OSM    C1113825   6.153   2.732   6.274 -0.0702  0.0650  0.8385
  129OSM   H11A13826   6.122   2.657   6.349  0.0187 -2.0440 -1.1444
  129OSM   H11B13827   6.138   2.688   6.173 -1.8960 -0.8770  1.4832
  129OSM      P13828   5.925   2.863   6.214 -0.0884 -0.5362 -0.1785
  129OSM    O1313829   5.902   3.011   6.203 -0.0684 -0.5519  0.0176
  129OSM    O1413830   5.938   2.800   6.081  0.2440  0.0116 -0.0164
  129OSM    O1113831   5.817   2.798   6.312  0.3143  0.3134  0.3176
  129OSM    O1213832   6.063   2.847   6.290 -0.1826 -0.0727  0.0917
  129OSM    C1S13833   5.836   2.736   6.439  0.6172 -0.2730 -0.2047
  129OSM    H1S13834   5.941   2.755   6.470  0.9565  1.8993 -2.3545
  129OSM    H1T13835   5.823   2.626   6.433  1.1057 -0.6828  3.7341
  129OSM     NF13836   5.750   2.718   6.674 -0.4000  0.2714 -0.8556
  129OSM    HNF13837   5.687   2.647   6.706  0.4873 -0.5873 -0.9897
  129OSM    C2S13838   5.729   2.774   6.541 -0.8438 -0.1503  0.0353
  129OSM    H2S13839   5.734   2.884   6.549 -2.1572  0.0723 -1.7694
  129OSM    C3S13840   5.587   2.749   6.480 -0.1340  0.6246 -0.1454
  129OSM    H3S13841   5.575   2.639   6.474  1.5834  0.4765 -1.6622
  129OSM     O313842   5.562   2.806   6.352  0.2260  0.0095 -0.3027
  129OSM    HO313843   5.652   2.822   6.323 -0.1942  1.5324 -0.8379
  129OSM    C4S13844   5.485   2.805   6.579  0.0931 -0.4701 -0.3740
  129OSM    H4S13845   5.505   2.908   6.611 -2.5164 -0.0359  0.0153
  129OSM    C5S13846   5.373   2.742   6.621  0.2676 -0.1649 -0.6272
  129OSM    H5S13847   5.348   2.640   6.587  0.7807 -0.1353 -1.1058
  129OSM    C6S13848   5.268   2.803   6.708  0.4024  0.3723  0.0543
  129OSM    H6S13849   5.170   2.783   6.660 -1.4899  1.3463  3.1977
  129OSM    H6T13850   5.284   2.912   6.725  2.3893  0.6623 -2.9251
  129OSM    C7S13851   5.249   2.742   6.849  0.2244  0.5497 -0.1602
  129OSM    H7S13852   5.237   2.632   6.840  1.9095  0.3975 -1.0831
  129OSM    H7T13853   5.158   2.783   6.899 -0.7015 -0.1391 -1.2387
  129OSM    C8S13854   5.371   2.774   6.943 -0.0175  0.4904  0.0491
  129OSM    H8S13855   5.349   2.878   6.976  0.0617  1.1756 -1.9272
  129OSM    H8T13856   5.460   2.779   6.878 -0.2709  1.6255 -0.2218
  129OSM    C9S13857   5.378   2.671   7.050 -0.4791 -0.0053 -0.3895
  129OSM    H9S13858   5.424   2.581   7.002  1.7007  1.2807 -0.8441
  129OSM    H9T13859   5.286   2.640   7.103  0.6436 -1.8571  0.6093
  129OSM   C10S13860   5.463   2.711   7.170  0.3849 -0.6559  0.9791
  129OSM   H10S13861   5.403   2.789   7.221  0.3322 -1.5904  2.4096
  129OSM   H10T13862   5.546   2.777   7.137 -0.5094  1.1197  2.1712
  129OSM   C11S13863   5.496   2.590   7.263  0.3188 -0.2545 -0.0783
  129OSM   H11S13864   5.578   2.523   7.229  1.3072  0.5309  0.6941
  129OSM   H11T13865   5.411   2.522   7.288 -1.8502  2.2862 -0.0741
  129OSM   C12S13866   5.528   2.630   7.407  0.5519  0.1837 -0.4387
  129OSM   H12S13867   5.438   2.667   7.460  0.9615  0.1622  0.2914
  129OSM   H12T13868   5.612   2.702   7.403 -0.4368  1.3215 -1.3271
  129OSM   C13S13869   5.575   2.509   7.493 -0.5957 -0.5851  0.2847
  129OSM   H13S13870   5.677   2.478   7.460 -0.0972  1.4392 -0.2409
  129OSM   H13T13871   5.502   2.427   7.479 -3.1202  1.6560 -0.7151
  129OSM   C14S13872   5.586   2.554   7.637  0.4139 -0.1108 -0.1098
  129OSM   H14S13873   5.482   2.563   7.675  1.0261  0.2823  1.5592
  129OSM   H14T13874   5.642   2.649   7.649  1.9361 -0.7116 -1.9031
  129OSM   C15S13875   5.646   2.452   7.724  0.1072  0.4205  0.4150
  129OSM   H15S13876   5.757   2.458   7.711  0.2139 -1.2561  0.3567
  129OSM   H15T13877   5.627   2.344   7.703  2.2809  0.4733 -2.6846
  129OSM   C16S13878   5.620   2.483   7.869  0.4034  0.3757  0.0278
  129OSM   H16S13879   5.599   2.592   7.878  0.5111  0.4015 -0.0243
  129OSM   H16T13880   5.712   2.461   7.928  0.3131 -1.5681 -0.5058
  129OSM   C17S13881   5.495   2.424   7.942  0.0680  0.4218  0.2536
  129OSM   H17S13882   5.510   2.318   7.912 -1.5751  0.0035  0.8223
  129OSM   H17T13883   5.396   2.446   7.896 -0.4074 -3.0949 -0.6678
  129OSM   C18S13884   5.481   2.445   8.093 -0.0043 -0.1187  0.5021
  129OSM   H18S13885   5.473   2.553   8.115  2.1281 -0.1178  1.5657
  129OSM   H18T13886   5.576   2.401   8.131  0.5140  0.8848  0.3922
  129OSM   H18U13887   5.402   2.379   8.136 -0.0484 -0.7918 -0.5690
  129OSM    C1F13888   5.848   2.756   6.753  0.0321  0.1389 -0.8777
  129OSM     OF13889   5.934   2.829   6.705  0.2091  1.2315 -0.1055
  129OSM    C2F13890   5.847   2.714   6.894 -0.5873 -0.3225  0.1432
  129OSM    H2F13891   5.900   2.617   6.900  1.9671  1.0147  0.8007
  129OSM    H2G13892   5.743   2.700   6.928  0.2126 -0.7012  2.6394
  129OSM    C3F13893   5.930   2.813   6.987 -0.4085  0.0136 -0.1284
  129OSM    H3F13894   5.893   2.911   6.951 -0.1345 -1.2798 -4.4157
  129OSM    H3G13895   6.037   2.806   6.959 -0.1355  1.4344  0.4714
  129OSM    C4F13896   5.893   2.786   7.133  0.6472  0.6298  0.2640
  129OSM    H4F13897   5.917   2.681   7.162 -0.9599 -0.0133 -0.6171
  129OSM    H4G13898   5.783   2.793   7.150  0.8156 -0.6377  2.3341
  129OSM    C5F13899   5.965   2.883   7.229  0.0891 -0.0485 -0.3970
  129OSM    H5F13900   5.947   2.989   7.200 -0.6633  1.1192  3.6848
  129OSM    H5G13901   6.075   2.873   7.238  0.1932  1.8349  0.9389
  129OSM    C6F13902   5.912   2.850   7.371  0.2496  0.5544  0.3274
  129OSM    H6F13903   5.920   2.741   7.394  0.6480  0.1156 -1.7050
  129OSM    H6G13904   5.806   2.879   7.384 -0.4923 -1.2399 -1.1962
  129OSM    C7F13905   5.986   2.939   7.473  0.3228 -0.3612 -0.0439
  129OSM    H7F13906   5.987   3.042   7.432 -0.3006 -0.4589 -0.3165
  129OSM    H7G13907   6.091   2.905   7.468  1.2711  1.7111  3.0557
  129OSM    C8F13908   5.929   2.940   7.613 -0.4439  0.3425  0.1012
  129OSM    H8F13909   5.823   2.972   7.606 -0.8610 -0.9238  0.2725
  129OSM    H8G13910   5.984   3.007   7.682 -0.9127  1.2591 -0.4085
  129OSM    C9F13911   5.934   2.804   7.676 -0.3090  1.1359 -0.3348
  129OSM    H9F13912   5.949   2.715   7.613 -0.0236  1.6843 -1.0543
  129OSM   C10F13913   5.901   2.776   7.801  0.1068  0.0230 -0.0510
  129OSM   H10F13914   5.917   2.674   7.837  1.1178  0.2136  0.0671
  129OSM   C11F13915   5.859   2.884   7.899  0.2679 -0.1683  0.4319
  129OSM   H11F13916   5.751   2.910   7.893  0.8745  2.2715 -1.6724
  129OSM   H11G13917   5.923   2.972   7.876  0.2901 -0.8759 -2.5475
  129OSM   C12F13918   5.884   2.854   8.045 -0.4345 -0.0514  0.1931
  129OSM   H12F13919   5.863   2.946   8.104 -0.0879  0.6955 -0.8100
  129OSM   H12G13920   5.990   2.828   8.067 -0.4109  0.1747  0.3557
  129OSM   C13F13921   5.802   2.732   8.092  0.2139  0.5106  0.4869
  129OSM   H13F13922   5.836   2.637   8.046  0.7464  0.5670  0.7498
  129OSM   H13G13923   5.696   2.755   8.070  1.2824  1.9198 -4.4866
  129OSM   C14F13924   5.822   2.709   8.242  0.2359 -0.0105 -0.1455
  129OSM   H14F13925   5.780   2.796   8.297 -1.7631 -0.0632 -1.5038
  129OSM   H14G13926   5.932   2.706   8.257  0.3164 -0.6664 -0.8321
  129OSM   C15F13927   5.781   2.575   8.301  0.1744 -0.0852 -0.5100
  129OSM   H15F13928   5.815   2.489   8.240 -0.3362 -0.8004  0.1877
  129OSM   H15G13929   5.670   2.566   8.299 -0.0754  2.4423 -1.6867
  129OSM   C16F13930   5.829   2.571   8.451  0.3291 -0.3671  1.3731
  129OSM   H16F13931   5.792   2.653   8.516  1.4792  0.0815  1.4829
  129OSM   H16G13932   5.940   2.581   8.452  0.3081  0.4501 -0.3061
  129OSM   C17F13933   5.801   2.444   8.534  0.1005 -0.0598  0.1781
  129OSM   H17F13934   5.842   2.363   8.470 -0.6527  0.2886 -0.7888
  129OSM   H17G13935   5.691   2.429   8.545  0.4349 -1.0299  2.7974
  129OSM   C18F13936   5.868   2.446   8.674  0.1070  0.3450  0.5048
  129OSM   H18F13937   5.965   2.397   8.653 -0.7319 -1.5516  0.9244
  129OSM   H18G13938   5.798   2.396   8.744 -2.1540 -0.2187 -1.9515
  129OSM   H18H13939   5.897   2.546   8.714  1.6462  0.1822 -0.1348
  130OSM      N13940   2.904   3.406   6.230  0.1892 -0.2841 -0.1541
  130OSM    C1513941   2.812   3.484   6.138  0.2422 -0.5590  0.3199
  130OSM   H15A13942   2.740   3.546   6.190  0.1822 -1.0445  0.8313
  130OSM   H15B13943   2.748   3.415   6.084 -2.3240  2.7660 -1.2420
  130OSM   H15C13944   2.868   3.542   6.067 -0.5390  2.6291  2.1182
  130OSM    C1413945   2.814   3.350   6.341  0.4088  0.3136 -0.7427
  130OSM   H14A13946   2.768   3.429   6.399  0.5374  0.7261 -1.1973
  130OSM   H14B13947   2.867   3.287   6.411 -1.0369  1.2383  1.2704
  130OSM   H14C13948   2.744   3.283   6.292  1.1730 -0.9209 -0.2002
  130OSM    C1313949   2.967   3.297   6.156 -0.4756 -0.8559  0.2627
  130OSM   H13A13950   3.036   3.237   6.213 -1.4824 -0.1694  2.2974
  130OSM   H13B13951   3.008   3.341   6.066 -1.1971 -0.4269  0.1320
  130OSM   H13C13952   2.889   3.229   6.126  0.8470 -1.6139 -1.7188
  130OSM    C1213953   3.014   3.492   6.293  0.1896 -0.4809 -0.2440
  130OSM   H12A13954   3.066   3.534   6.209  2.2792 -1.4155  0.5220
  130OSM   H12B13955   3.089   3.435   6.346  0.6105 -0.1032 -0.4235
  130OSM    C1113956   2.967   3.617   6.386 -0.6985 -0.1741  0.3362
  130OSM   H11A13957   3.058   3.656   6.437 -0.0408 -1.1580 -0.0547
  130OSM   H11B13958   2.910   3.574   6.472  0.1489 -0.1024  0.9491
  130OSM      P13959   2.950   3.830   6.236  0.2260  0.0629  0.2732
  130OSM    O1313960   3.033   3.772   6.132  0.1034  0.3113  0.5069
  130OSM    O1413961   2.844   3.922   6.201 -0.0085  0.8120 -0.0223
  130OSM    O1113962   3.051   3.902   6.332 -0.2525  0.4667 -0.5553
  130OSM    O1213963   2.883   3.713   6.321  0.2916  0.3718  0.1896
  130OSM    C1S13964   3.024   3.987   6.442 -0.5351  0.4110 -0.2699
  130OSM    H1S13965   2.926   4.038   6.431 -1.7909 -1.6888  0.6720
  130OSM    H1T13966   3.099   4.069   6.440  1.7991 -1.6038 -0.0922
  130OSM     NF13967   2.990   3.980   6.694 -0.9395 -0.3953  0.2541
  130OSM    HNF13968   3.055   4.025   6.754 -0.1299 -0.9298 -0.2070
  130OSM    C2S13969   3.045   3.911   6.576 -0.6740 -0.0038 -0.0923
  130OSM    H2S13970   2.992   3.813   6.572  0.8541 -1.1020  3.0395
  130OSM    C3S13971   3.195   3.875   6.595  0.4076 -0.1332  0.1500
  130OSM    H3S13972   3.256   3.967   6.601  0.1428  0.0850 -0.5255
  130OSM     O313973   3.247   3.802   6.479  0.1389 -0.3665  0.5005
  130OSM    HO313974   3.178   3.812   6.414 -0.3945  1.0049  1.2382
  130OSM    C4S13975   3.208   3.781   6.720  0.8516 -0.5604  0.0662
  130OSM    H4S13976   3.189   3.827   6.819 -1.7132 -2.0966  0.3917
  130OSM    C5S13977   3.222   3.646   6.725 -1.3030 -0.2061 -0.4122
  130OSM    H5S13978   3.234   3.594   6.629 -1.9720 -0.6431 -0.2682
  130OSM    C6S13979   3.228   3.568   6.849 -0.0782 -0.2993 -0.6963
  130OSM    H6S13980   3.329   3.521   6.848 -0.4584 -1.1290 -2.1871
  130OSM    H6T13981   3.151   3.488   6.852  1.8838 -2.2840  1.0664
  130OSM    C7S13982   3.208   3.640   6.980  0.4958 -0.6288 -0.0148
  130OSM    H7S13983   3.106   3.684   6.990 -0.2051 -1.9192 -1.0814
  130OSM    H7T13984   3.269   3.732   6.993  0.8753 -0.7395 -0.9567
  130OSM    C8S13985   3.231   3.539   7.100  0.0635 -0.3947  0.6893
  130OSM    H8S13986   3.330   3.491   7.082  0.3300 -0.3536  1.9709
  130OSM    H8T13987   3.146   3.468   7.099 -0.7975  0.5501  2.3778
  130OSM    C9S13988   3.231   3.609   7.234  0.8319  0.2002  0.5366
  130OSM    H9S13989   3.150   3.685   7.234  1.3597  0.7829 -0.5825
  130OSM    H9T13990   3.322   3.668   7.256  1.5066 -0.4435 -0.4289
  130OSM   C10S13991   3.217   3.512   7.349 -0.3396  0.0833  0.0896
  130OSM   H10S13992   3.299   3.438   7.358 -2.4544 -2.1885  2.1849
  130OSM   H10T13993   3.124   3.450   7.349 -0.5400  0.3739  0.7788
  130OSM   C11S13994   3.230   3.594   7.482  0.4527  0.8763  0.2373
  130OSM   H11S13995   3.129   3.638   7.497 -1.8134 -3.5999 -0.2949
  130OSM   H11T13996   3.306   3.674   7.468  0.4514  0.9523  0.6256
  130OSM   C12S13997   3.262   3.510   7.612 -0.4410 -0.6917 -0.7168
  130OSM   H12S13998   3.344   3.442   7.580  0.9736  0.4056  0.4139
  130OSM   H12T13999   3.174   3.450   7.645  0.8566 -1.2171  2.1562
  130OSM   C13S14000   3.319   3.597   7.731 -0.1342 -0.0996  0.5894
  130OSM   H13S14001   3.227   3.651   7.766 -2.1124 -0.9969 -2.7976
  130OSM   H13T14002   3.392   3.676   7.704 -0.0581 -0.5308 -0.5224
  130OSM   C14S14003   3.363   3.511   7.850  0.6728 -0.3738 -0.0415
  130OSM   H14S14004   3.459   3.457   7.837  0.7926 -0.3277  0.6432
  130OSM   H14T14005   3.287   3.430   7.858  0.6915 -0.5797 -1.5255
  130OSM   C15S14006   3.362   3.593   7.974  0.7817 -0.4643 -0.4537
  130OSM   H15S14007   3.259   3.634   7.985  0.8685 -0.2471 -0.4484
  130OSM   H15T14008   3.422   3.686   7.969  0.0070 -0.0055 -1.4785
  130OSM   C16S14009   3.411   3.516   8.095 -0.0397 -0.1298 -0.3453
  130OSM   H16S14010   3.521   3.516   8.085 -0.2068  0.6908 -2.8713
  130OSM   H16T14011   3.372   3.412   8.092 -0.1990 -0.1447  1.4358
  130OSM   C17S14012   3.380   3.575   8.233 -0.1732  0.2354  0.2155
  130OSM   H17S14013   3.409   3.503   8.312 -1.4857 -0.8982 -0.3002
  130OSM   H17T14014   3.271   3.595   8.234  0.2079  2.6751 -0.0471
  130OSM   C18S14015   3.434   3.715   8.259  0.3263  0.0983 -0.7492
  130OSM   H18S14016   3.545   3.712   8.248  0.2386  0.4307 -1.8018
  130OSM   H18T14017   3.403   3.758   8.357  0.7157 -0.5101 -0.3491
  130OSM   H18U14018   3.393   3.776   8.176 -0.7509 -0.3301 -0.5393
  130OSM    C1F14019   2.858   3.995   6.704  0.3942  0.6903  0.1957
  130OSM     OF14020   2.786   3.934   6.626 -0.0237  0.0491  0.5608
  130OSM    C2F14021   2.794   4.084   6.809 -0.1042  0.3043  0.4695
  130OSM    H2F14022   2.735   4.158   6.752  1.0366  0.0148 -1.1407
  130OSM    H2G14023   2.877   4.135   6.863 -0.5934  1.0763  0.5147
  130OSM    C3F14024   2.694   4.017   6.899 -0.2053 -0.7318 -0.1860
  130OSM    H3F14025   2.610   3.969   6.845 -0.3366  0.3232 -0.9565
  130OSM    H3G14026   2.647   4.085   6.974  0.7334  0.4334 -0.6244
  130OSM    C4F14027   2.763   3.901   6.972 -0.3247 -0.8979  0.1135
  130OSM    H4F14028   2.828   3.857   6.893 -0.3064  0.1695 -0.4703
  130OSM    H4G14029   2.681   3.836   7.009 -2.3147  2.0684  1.2936
  130OSM    C5F14030   2.855   3.955   7.080  0.3889 -0.4443  0.0677
  130OSM    H5F14031   2.926   4.038   7.058  1.0247 -1.0541 -0.2060
  130OSM    H5G14032   2.922   3.869   7.100 -0.4518 -0.8717  1.0983
  130OSM    C6F14033   2.766   3.978   7.210 -0.7528  0.1150  0.3833
  130OSM    H6F14034   2.719   3.880   7.233 -0.8662 -0.2738 -1.3379
  130OSM    H6G14035   2.686   4.052   7.188 -1.3105 -0.6534 -0.2148
  130OSM    C7F14036   2.862   4.023   7.323  1.0189 -0.3728 -0.2822
  130OSM    H7F14037   2.908   4.119   7.293 -1.9109  1.4950  0.7107
  130OSM    H7G14038   2.943   3.948   7.331  0.2903 -1.2494 -0.8699
  130OSM    C8F14039   2.791   4.039   7.462  0.4645  0.2791  0.2992
  130OSM    H8F14040   2.759   3.936   7.488  2.3705  0.2223  2.8425
  130OSM    H8G14041   2.702   4.105   7.450  2.2047  2.3452 -2.2452
  130OSM    C9F14042   2.895   4.094   7.560 -0.0002 -0.3665 -0.0847
  130OSM    H9F14043   2.958   4.171   7.514 -1.4169  0.5999 -0.4760
  130OSM   C10F14044   2.913   4.056   7.690  0.0889 -0.0866  0.6199
  130OSM   H10F14045   2.985   4.101   7.760 -1.4155 -2.6618  4.1190
  130OSM   C11F14046   2.831   3.939   7.741  0.8416  0.0171  0.1277
  130OSM   H11F14047   2.857   3.846   7.688  0.9373  1.4331 -2.4543
  130OSM   H11G14048   2.724   3.961   7.719  1.1056  2.3421  0.7894
  130OSM   C12F14049   2.843   3.916   7.898 -0.3180  0.4258  0.8033
  130OSM   H12F14050   2.789   3.819   7.912  2.3233 -0.7556  3.9992
  130OSM   H12G14051   2.798   3.984   7.973 -2.1134  0.6407 -0.3925
  130OSM   C13F14052   2.984   3.881   7.951 -0.0135 -0.0532 -0.0122
  130OSM   H13F14053   3.048   3.971   7.960 -0.5197  0.2250  0.8939
  130OSM   H13G14054   3.031   3.801   7.889 -2.8689 -1.3888 -0.6381
  130OSM   C14F14055   2.988   3.826   8.108  0.1096 -0.5623  0.7224
  130OSM   H14F14056   3.094   3.818   8.139  0.0003 -2.9561  0.6369
  130OSM   H14G14057   2.936   3.728   8.103  2.4833 -2.0943  3.3745
  130OSM   C15F14058   2.920   3.912   8.210  0.4553  0.1327  0.4138
  130OSM   H15F14059   2.908   3.846   8.298 -2.3247  0.3915  0.3304
  130OSM   H15G14060   2.814   3.933   8.184  0.1411 -1.3909  0.3846
  130OSM   C16F14061   3.002   4.043   8.256  0.1195 -1.1352 -0.6048
  130OSM   H16F14062   2.992   4.111   8.168 -2.6137 -1.4494 -0.6108
  130OSM   H16G14063   3.101   4.004   8.286 -0.9069 -2.1964  1.6151
  130OSM   C17F14064   2.933   4.118   8.371  0.2047  0.2433 -0.3701
  130OSM   H17F14065   2.984   4.216   8.384 -1.8722  1.2949  0.1524
  130OSM   H17G14066   2.950   4.064   8.466  1.3530  2.1204  0.5506
  130OSM   C18F14067   2.783   4.138   8.352  0.8978 -0.0217  0.3004
  130OSM   H18F14068   2.761   4.175   8.250 -0.5545  1.2348  1.0176
  130OSM   H18G14069   2.741   4.211   8.426  1.3130  0.2879  0.2319
  130OSM   H18H14070   2.726   4.046   8.376  1.4210 -0.5824 -0.5638
  131OSM      N14071   0.391   0.824   5.894  0.2263  0.3811  0.0728
  131OSM    C1514072   0.438   0.712   5.806 -0.0306  0.5563  0.2968
  131OSM   H15A14073   0.505   0.750   5.730  0.2562  0.5771  0.5586
  131OSM   H15B14074   0.360   0.662   5.750  1.2892 -0.0014 -1.0965
  131OSM   H15C14075   0.498   0.647   5.866  2.7681  1.1153 -1.6948
  131OSM    C1414076   0.516   0.889   5.947 -0.6984  0.6390  0.1439
  131OSM   H14A14077   0.571   0.931   5.864 -0.9493  1.0903  0.2027
  131OSM   H14B14078   0.580   0.815   5.991 -0.3441  0.4588 -0.6565
  131OSM   H14C14079   0.495   0.965   6.021 -2.8877  0.1172  0.1399
  131OSM    C1314080   0.312   0.925   5.807 -0.1215 -0.0442  0.4173
  131OSM   H13A14081   0.230   0.883   5.750 -0.6278 -0.0943  1.1707
  131OSM   H13B14082   0.378   0.979   5.742  0.5118 -0.6812  0.5156
  131OSM   H13C14083   0.269   0.997   5.874  3.2507  1.5131  1.1162
  131OSM    C1214084   0.308   0.778   6.009 -0.4021  0.2401 -0.5496
  131OSM   H12A14085   0.350   0.684   6.042  0.7919  1.1512  0.6674
  131OSM   H12B14086   0.211   0.761   5.966 -0.0554 -1.0916 -0.8417
  131OSM    C1114087   0.280   0.866   6.134 -0.3682  0.2677  0.3171
  131OSM   H11A14088   0.368   0.878   6.201 -0.6089 -3.6397  1.5473
  131OSM   H11B14089   0.216   0.812   6.206  0.2616  0.1738  0.8093
  131OSM      P14090   0.066   1.001   6.081  0.3299  0.1429  0.0487
  131OSM    O1314091   0.041   1.146   6.050  0.6043  0.5855 -0.0985
  131OSM    O1414092   0.004   0.899   5.990  0.0045  0.3578  0.0575
  131OSM    O1114093   0.001   0.965   6.223 -0.2343 -0.3480 -0.2850
  131OSM    O1214094   0.223   0.991   6.095 -0.0961 -0.0624 -0.5315
  131OSM    C1S14095   0.079   1.013   6.341 -0.8149 -0.1411  0.2637
  131OSM    H1S14096   0.061   1.122   6.340  0.7113  0.1316 -1.0516
  131OSM    H1T14097   0.189   0.997   6.334 -0.5719  0.8450  1.5713
  131OSM     NF14098   0.111   1.023   6.583  0.2931 -0.9501 -0.1151
  131OSM    HNF14099   0.185   0.969   6.621 -1.3405 -2.2379  1.4752
  131OSM    C2S14100   0.029   0.960   6.481  0.0567 -1.0627  0.2639
  131OSM    H2S14101  -0.073   1.002   6.493  0.6219  0.4756 -0.0311
  131OSM    C3S14102   0.025   0.805   6.496 -1.1438 -0.5061  0.6686
  131OSM    H3S14103   0.126   0.761   6.481  0.2931  1.3135  3.8357
  131OSM     O314104  -0.065   0.752   6.394 -0.3346  0.6866  0.5323
  131OSM    HO314105  -0.095   0.825   6.340 -1.1732  1.3379  1.8371
  131OSM    C4S14106  -0.012   0.765   6.642 -0.3873 -0.4713  0.6191
  131OSM    H4S14107   0.076   0.729   6.698 -0.6221  1.3327  2.2413
  131OSM    C5S14108  -0.130   0.760   6.708  0.0781  0.1317  0.8167
  131OSM    H5S14109  -0.220   0.782   6.650  0.9279  0.2041 -0.5250
  131OSM    C6S14110  -0.142   0.702   6.845  0.1575 -0.1679 -0.1740
  131OSM    H6S14111  -0.116   0.594   6.840 -1.2974 -0.7373  2.5407
  131OSM    H6T14112  -0.245   0.712   6.887  0.1281  2.3041 -0.6638
  131OSM    C7S14113  -0.041   0.785   6.939 -0.0171 -0.3883  0.7979
  131OSM    H7S14114  -0.065   0.892   6.956 -1.5194 -0.5577 -0.1021
  131OSM    H7T14115   0.062   0.793   6.896  0.0194  0.5776  1.0388
  131OSM    C8S14116  -0.025   0.712   7.071  0.6285 -0.1122  0.3330
  131OSM    H8S14117   0.008   0.609   7.045 -1.8936 -0.5151 -1.8001
  131OSM    H8T14118  -0.124   0.712   7.121  0.8802  0.9944  0.8576
  131OSM    C9S14119   0.074   0.772   7.161 -0.2659 -0.3393 -0.2796
  131OSM    H9S14120   0.061   0.882   7.171  1.0914 -0.1981  0.1799
  131OSM    H9T14121   0.177   0.754   7.124 -0.7970 -3.2724 -0.5085
  131OSM   C10S14122   0.053   0.718   7.304  0.4454 -0.1330 -0.4160
  131OSM   H10S14123   0.055   0.607   7.303 -3.5358 -0.4369  2.1298
  131OSM   H10T14124  -0.049   0.739   7.341  0.0917 -2.5056  0.0442
  131OSM   C11S14125   0.161   0.769   7.409 -0.1027 -0.2593 -0.2148
  131OSM   H11S14126   0.132   0.873   7.439  0.2979 -0.4468  0.8586
  131OSM   H11T14127   0.260   0.771   7.360 -0.9160  0.6551 -1.8885
  131OSM   C12S14128   0.158   0.687   7.538  0.3095  0.4918 -0.4447
  131OSM   H12S14129   0.247   0.713   7.599 -0.4441  0.9913  0.4659
  131OSM   H12T14130   0.157   0.578   7.513  1.7597  0.1496  0.8482
  131OSM   C13S14131   0.022   0.710   7.605  0.1684  0.4503 -0.9245
  131OSM   H13S14132  -0.071   0.690   7.548  0.1615 -0.0189 -0.7546
  131OSM   H13T14133   0.003   0.817   7.623 -1.9417  0.1220 -0.9853
  131OSM   C14S14134   0.010   0.650   7.747  0.1871  0.4875  0.3568
  131OSM   H14S14135  -0.093   0.678   7.777 -0.0136  2.1975 -1.7370
  131OSM   H14T14136   0.076   0.706   7.817 -0.2602 -0.4707  1.5766
  131OSM   C15S14137   0.036   0.496   7.746 -0.0692 -0.2410 -0.4949
  131OSM   H15S14138   0.014   0.466   7.851 -0.6430  0.0868 -0.5175
  131OSM   H15T14139   0.144   0.473   7.728  0.3233 -2.0518  3.3313
  131OSM   C16S14140  -0.048   0.423   7.640 -0.1162  1.0954 -0.6151
  131OSM   H16S14141  -0.007   0.469   7.548 -0.4558 -0.0197 -1.3502
  131OSM   H16T14142  -0.153   0.453   7.662 -0.4761 -1.9446  2.7802
  131OSM   C17S14143  -0.022   0.273   7.632  0.0178 -0.6665 -0.5935
  131OSM   H17S14144   0.082   0.254   7.598  0.1693  0.0260 -0.5330
  131OSM   H17T14145  -0.092   0.221   7.563 -1.0123 -1.6841  1.1529
  131OSM   C18S14146  -0.048   0.203   7.764 -0.0210 -0.2538  0.0015
  131OSM   H18S14147   0.016   0.238   7.849  1.0797 -0.0860 -0.8661
  131OSM   H18T14148  -0.015   0.097   7.772  3.8150  0.8033  0.1527
  131OSM   H18U14149  -0.158   0.208   7.773 -0.2346 -4.0575  1.4204
  131OSM    C1F14150   0.092   1.150   6.626  0.5451 -0.7841 -0.2353
  131OSM     OF14151   0.013   1.225   6.579  0.6725  0.4765  0.1674
  131OSM    C2F14152   0.180   1.187   6.740  0.3826 -0.2587 -0.1435
  131OSM    H2F14153   0.244   1.272   6.707  0.8108 -0.3903  0.3276
  131OSM    H2G14154   0.238   1.093   6.751 -1.1800 -1.5181 -1.9855
  131OSM    C3F14155   0.098   1.213   6.871  0.5751 -0.9220 -0.1350
  131OSM    H3F14156   0.031   1.130   6.901  0.5986 -1.8169 -2.3900
  131OSM    H3G14157   0.043   1.307   6.850  0.3983 -0.3093  2.6908
  131OSM    C4F14158   0.198   1.215   6.995  0.3067 -0.5657  0.2712
  131OSM    H4F14159   0.278   1.286   6.967  0.1618 -1.0194 -1.3730
  131OSM    H4G14160   0.241   1.113   7.002  0.1778 -0.7620 -1.3893
  131OSM    C5F14161   0.136   1.262   7.127  0.1315  0.0125  0.4850
  131OSM    H5F14162   0.074   1.180   7.169  1.4869 -0.9178  0.7239
  131OSM    H5G14163   0.060   1.342   7.115  0.0937  0.2212  1.9524
  131OSM    C6F14164   0.243   1.312   7.221  0.3514 -0.3526  0.1837
  131OSM    H6F14165   0.321   1.368   7.165  1.5639 -1.7024  0.4436
  131OSM    H6G14166   0.299   1.223   7.256  1.7702  0.1094 -0.7787
  131OSM    C7F14167   0.180   1.384   7.341  0.1868  0.1379 -0.3106
  131OSM    H7F14168   0.094   1.320   7.371  1.5846 -1.2503  0.9637
  131OSM    H7G14169   0.142   1.484   7.311  2.0899  0.8154 -0.6054
  131OSM    C8F14170   0.274   1.413   7.467  0.1173 -0.0241  0.1628
  131OSM    H8F14171   0.230   1.451   7.561  2.8190 -0.3436  1.6579
  131OSM    H8G14172   0.346   1.495   7.443  0.8795 -0.7482 -0.0649
  131OSM    C9F14173   0.336   1.287   7.514 -0.9009  0.5428 -0.1430
  131OSM    H9F14174   0.441   1.291   7.482 -1.1782 -1.0913 -1.3768
  131OSM   C10F14175   0.300   1.184   7.592 -0.4492 -0.6549  0.3966
  131OSM   H10F14176   0.367   1.099   7.612 -0.0364 -0.3066  0.5022
  131OSM   C11F14177   0.153   1.159   7.638 -0.3933 -0.2375  0.3401
  131OSM   H11F14178   0.117   1.063   7.595  1.0277 -1.5594  1.9284
  131OSM   H11G14179   0.077   1.239   7.626 -2.5068 -2.1609  0.1036
  131OSM   C12F14180   0.135   1.120   7.794  0.4455  0.4276  0.4092
  131OSM   H12F14181   0.026   1.102   7.810 -0.4671  1.9413 -3.1078
  131OSM   H12G14182   0.157   1.214   7.850 -2.3280  0.5668  1.4652
  131OSM   C13F14183   0.229   1.010   7.848  0.5240 -0.3035 -0.6811
  131OSM   H13F14184   0.330   1.043   7.816  0.9642  0.1462  1.0500
  131OSM   H13G14185   0.208   0.907   7.812  1.5093 -0.3565 -1.1244
  131OSM   C14F14186   0.223   1.017   8.004  0.0682  0.3127 -0.6397
  131OSM   H14F14187   0.252   1.121   8.029 -1.8036  1.4542 -2.8338
  131OSM   H14G14188   0.302   0.946   8.037 -0.3998  0.0373 -0.1052
  131OSM   C15F14189   0.091   0.981   8.069 -0.2548 -0.1351  0.1673
  131OSM   H15F14190   0.042   0.895   8.019  0.8551  0.0758 -1.3298
  131OSM   H15G14191   0.020   1.065   8.060 -2.3475 -1.7250  1.0190
  131OSM   C16F14192   0.105   0.936   8.221  0.0458 -0.0228  0.3359
  131OSM   H16F14193   0.174   1.006   8.272 -0.3095  0.6250 -0.0638
  131OSM   H16G14194   0.144   0.832   8.227 -1.0529 -0.5437 -0.9363
  131OSM   C17F14195  -0.036   0.920   8.294  0.5871  0.1304  0.3590
  131OSM   H17F14196  -0.074   1.018   8.332 -2.0631  0.0014 -1.6706
  131OSM   H17G14197  -0.013   0.868   8.390  4.9272 -3.0441 -2.0716
  131OSM   C18F14198  -0.127   0.833   8.223  0.8376  0.5479  0.2660
  131OSM   H18F14199  -0.218   0.813   8.283  2.3631 -0.5136  2.3518
  131OSM   H18G14200  -0.072   0.737   8.211 -2.0038 -1.3112  1.0098
  131OSM   H18H14201  -0.158   0.872   8.123  1.4976  1.7612  0.5209
  132OSM      N14202   3.806   1.171   6.364  0.3147  0.3745  0.0410
  132OSM    C1514203   3.807   1.107   6.501 -0.5054  0.0122 -0.7307
  132OSM   H15A14204   3.804   1.000   6.510  1.8930  0.0752  2.4046
  132OSM   H15B14205   3.716   1.140   6.550 -0.1593  1.0325 -0.7578
  132OSM   H15C14206   3.893   1.140   6.558 -0.6270  0.3286 -0.7259
  132OSM    C1414207   3.916   1.111   6.283 -1.3386  0.1475  0.0341
  132OSM   H14A14208   3.918   1.004   6.296  2.5952  0.2197  0.9778
  132OSM   H14B14209   4.012   1.153   6.306 -0.8795  0.0460 -1.5601
  132OSM   H14C14210   3.906   1.119   6.176  0.2966  0.2917 -0.1266
  132OSM    C1314211   3.679   1.143   6.297 -0.1613 -0.2491 -0.8359
  132OSM   H13A14212   3.687   1.174   6.194 -1.0412  0.2379 -0.7638
  132OSM   H13B14213   3.604   1.197   6.353  0.6964  0.3688 -0.2540
  132OSM   H13C14214   3.661   1.037   6.286 -0.6387 -0.6088  2.4808
  132OSM    C1214215   3.813   1.319   6.386 -0.4365 -0.1135 -0.4016
  132OSM   H12A14216   3.835   1.380   6.299  0.4630  3.0316  1.8275
  132OSM   H12B14217   3.911   1.340   6.426  0.1139 -1.5234 -0.9391
  132OSM    C1114218   3.708   1.390   6.468  0.4977 -0.9038  0.0030
  132OSM   H11A14219   3.744   1.495   6.476  2.1828 -1.5970  2.9570
  132OSM   H11B14220   3.726   1.351   6.570  1.3318  0.3565  0.3592
  132OSM      P14221   3.474   1.486   6.497  0.1537  0.2438  0.0349
  132OSM    O1314222   3.495   1.613   6.421 -0.6172 -0.1446 -0.5684
  132OSM    O1414223   3.339   1.432   6.501 -0.0453 -0.8915  0.2919
  132OSM    O1114224   3.538   1.493   6.644  0.0339 -0.5606 -0.8064
  132OSM    O1214225   3.572   1.382   6.423  0.5244  0.6115  0.1538
  132OSM    C1S14226   3.456   1.535   6.753  0.7520  0.5133  0.9134
  132OSM    H1S14227   3.369   1.469   6.769  0.3693  0.9248  0.5521
  132OSM    H1T14228   3.419   1.640   6.751 -0.2552  0.1565  0.2445
  132OSM     NF14229   3.461   1.488   6.992 -0.2915  0.3037 -0.7910
  132OSM    HNF14230   3.434   1.576   7.032 -0.5656  0.0034 -0.3000
  132OSM    C2S14231   3.547   1.498   6.878  0.3622 -0.4025 -0.6532
  132OSM    H2S14232   3.603   1.404   6.860 -0.4991 -1.2483  0.9708
  132OSM    C3S14233   3.643   1.614   6.893 -0.5414  0.1604  0.0612
  132OSM    H3S14234   3.601   1.717   6.897 -0.1753  0.3077  0.2155
  132OSM     O314235   3.747   1.613   6.795  0.4219 -0.4559 -0.0129
  132OSM    HO314236   3.710   1.559   6.726 -0.3074  0.3012 -0.2400
  132OSM    C4S14237   3.714   1.621   7.028  0.1905  0.3774  0.7876
  132OSM    H4S14238   3.781   1.538   7.053  1.3547  1.5321  1.5993
  132OSM    C5S14239   3.706   1.720   7.124 -0.1482  0.6237 -0.0312
  132OSM    H5S14240   3.621   1.789   7.115 -0.2558  0.2820 -2.0740
  132OSM    C6S14241   3.777   1.705   7.254  0.9062 -0.3321  0.0159
  132OSM    H6S14242   3.819   1.801   7.292  1.0964 -0.7444  0.8767
  132OSM    H6T14243   3.863   1.636   7.240  0.4072 -1.5882  2.4901
  132OSM    C7S14244   3.690   1.649   7.365  0.8727  0.3883 -0.1140
  132OSM    H7S14245   3.686   1.540   7.344  0.1905  0.0734  1.5330
  132OSM    H7T14246   3.591   1.697   7.352  0.0431 -0.9766  0.8586
  132OSM    C8S14247   3.748   1.679   7.501 -0.8206 -0.0414  1.1114
  132OSM    H8S14248   3.766   1.786   7.525  0.0758 -0.1956  1.1509
  132OSM    H8T14249   3.843   1.627   7.525 -1.4359  0.2240  4.7551
  132OSM    C9S14250   3.648   1.624   7.608  0.0741 -0.0711 -0.2584
  132OSM    H9S14251   3.634   1.514   7.614 -0.8895 -0.0361 -1.3979
  132OSM    H9T14252   3.552   1.671   7.577  0.4082  0.5787 -0.3311
  132OSM   C10S14253   3.676   1.676   7.749 -0.5406 -0.3978  0.0549
  132OSM   H10S14254   3.709   1.782   7.744 -0.3269 -0.4071  1.0659
  132OSM   H10T14255   3.753   1.610   7.793  1.8502  1.9008 -0.4633
  132OSM   C11S14256   3.552   1.666   7.840  0.1815 -0.1200  0.2777
  132OSM   H11S14257   3.534   1.559   7.865  0.1471 -0.0066  0.7439
  132OSM   H11T14258   3.465   1.716   7.792  0.1476  0.6268  1.0917
  132OSM   C12S14259   3.583   1.725   7.980 -0.0755  0.4633  0.2850
  132OSM   H12S14260   3.571   1.836   7.980  0.9851  0.6252  1.9503
  132OSM   H12T14261   3.687   1.710   8.017  0.3268 -0.7197 -1.2384
  132OSM   C13S14262   3.480   1.669   8.081 -0.1962 -0.8526 -0.2907
  132OSM   H13S14263   3.501   1.562   8.100 -1.0802 -1.0320 -0.3206
  132OSM   H13T14264   3.377   1.667   8.042 -0.0862 -0.4189 -0.6067
  132OSM   C14S14265   3.490   1.727   8.223 -0.4432  1.0199 -0.0624
  132OSM   H14S14266   3.495   1.838   8.228  2.9709  0.9702 -0.2212
  132OSM   H14T14267   3.588   1.689   8.259 -1.1319 -0.5617  0.2207
  132OSM   C15S14268   3.369   1.695   8.314 -0.1382  1.1056  0.2917
  132OSM   H15S14269   3.338   1.589   8.325 -0.0787  1.0417 -0.1324
  132OSM   H15T14270   3.280   1.733   8.259  0.2046  1.0649 -0.2966
  132OSM   C16S14271   3.376   1.766   8.446 -0.1387  0.2544 -0.4200
  132OSM   H16S14272   3.365   1.875   8.427 -0.2970  0.3189  0.0356
  132OSM   H16T14273   3.471   1.748   8.501 -0.1564  1.6250  0.1116
  132OSM   C17S14274   3.272   1.706   8.537 -0.2280  0.0592 -0.3109
  132OSM   H17S14275   3.288   1.598   8.553 -1.8060 -0.0563  0.6565
  132OSM   H17T14276   3.183   1.698   8.471 -1.3606  0.3234  1.1389
  132OSM   C18S14277   3.258   1.765   8.671 -0.4438 -0.2416 -0.4687
  132OSM   H18S14278   3.161   1.741   8.720 -1.3462  0.1909 -1.9971
  132OSM   H18T14279   3.251   1.875   8.657 -3.4071 -0.4473 -1.3121
  132OSM   H18U14280   3.346   1.735   8.732 -1.0820 -0.9395  0.1319
  132OSM    C1F14281   3.394   1.373   7.026 -0.7647 -0.4278  0.5268
  132OSM     OF14282   3.398   1.273   6.958  0.4922 -0.4318  0.4313
  132OSM    C2F14283   3.303   1.389   7.141  0.4439 -0.4825 -0.4872
  132OSM    H2F14284   3.212   1.329   7.123 -1.1034  1.6854 -0.2726
  132OSM    H2G14285   3.267   1.494   7.154  1.5088 -0.0019 -1.2347
  132OSM    C3F14286   3.366   1.339   7.271 -0.4973  0.2572 -0.4777
  132OSM    H3F14287   3.462   1.394   7.278 -1.1037  1.4435 -1.2714
  132OSM    H3G14288   3.376   1.228   7.259  0.9614  0.2481  0.5099
  132OSM    C4F14289   3.276   1.364   7.395  0.0581 -0.3226 -0.4814
  132OSM    H4F14290   3.186   1.300   7.393 -1.8148  2.1920 -0.7748
  132OSM    H4G14291   3.237   1.464   7.368 -0.1950 -0.5989 -1.1425
  132OSM    C5F14292   3.347   1.357   7.532 -0.4085 -0.3924  0.3187
  132OSM    H5F14293   3.390   1.455   7.559 -1.5912  0.6993 -1.5211
  132OSM    H5G14294   3.421   1.275   7.529  0.1960  0.0970  1.3639
  132OSM    C6F14295   3.256   1.312   7.644  0.4569 -0.5957 -0.3102
  132OSM    H6F14296   3.217   1.210   7.624 -0.0738 -0.2123 -1.2815
  132OSM    H6G14297   3.163   1.371   7.654 -0.8740 -2.6929  0.1845
  132OSM    C7F14298   3.331   1.300   7.782 -0.3018  0.4684 -0.2807
  132OSM    H7F14299   3.419   1.366   7.781  0.0032  0.0893  0.5169
  132OSM    H7G14300   3.370   1.198   7.802  2.3466  1.9590  3.0547
  132OSM    C8F14301   3.240   1.344   7.901  0.1093 -0.3684  0.1473
  132OSM    H8F14302   3.225   1.452   7.878 -1.6504 -0.7710 -0.7430
  132OSM    H8G14303   3.298   1.344   7.996  1.4254  1.5719 -0.5930
  132OSM    C9F14304   3.108   1.267   7.904  0.2646  0.3272  1.1851
  132OSM    H9F14305   3.045   1.298   7.819  3.3726 -0.7355 -1.7202
  132OSM   C10F14306   3.072   1.169   7.986  0.1160 -0.0355  0.6931
  132OSM   H10F14307   2.976   1.116   7.986  0.2996 -0.4640 -1.6747
  132OSM   C11F14308   3.176   1.128   8.093  0.6880  0.0708 -0.2045
  132OSM   H11F14309   3.157   1.182   8.188  1.9624 -0.2131  0.2244
  132OSM   H11G14310   3.280   1.147   8.060  0.8734 -0.9400 -0.2324
  132OSM   C12F14311   3.174   0.980   8.138  0.3385  0.8827  0.1925
  132OSM   H12F14312   3.256   0.967   8.211  0.4973 -1.4373 -0.3221
  132OSM   H12G14313   3.195   0.910   8.053  2.9853  2.4594 -0.5408
  132OSM   C13F14314   3.051   0.922   8.208 -0.2862  0.0109 -0.2524
  132OSM   H13F14315   2.977   0.917   8.126  0.7920 -0.3823 -1.2287
  132OSM   H13G14316   3.031   0.986   8.296 -1.8665 -0.8781  0.0664
  132OSM   C14F14317   3.063   0.774   8.253 -0.3124  0.1637  0.3801
  132OSM   H14F14318   3.120   0.718   8.176  1.1156  2.1602 -0.1082
  132OSM   H14G14319   2.962   0.728   8.246 -0.1008 -0.0981 -1.5878
  132OSM   C15F14320   3.130   0.752   8.387  0.2623  0.1114 -0.6017
  132OSM   H15F14321   3.083   0.810   8.470  2.0134  3.6695 -1.8967
  132OSM   H15G14322   3.232   0.796   8.385  0.7897 -1.0119  0.6651
  132OSM   C16F14323   3.113   0.605   8.431  0.7043 -0.2951 -0.7020
  132OSM   H16F14324   3.172   0.547   8.357  0.9815 -1.2439  0.2399
  132OSM   H16G14325   3.006   0.580   8.415  0.0615  1.9083 -0.2238
  132OSM   C17F14326   3.146   0.569   8.576 -0.2929  0.3453 -0.0767
  132OSM   H17F14327   3.105   0.469   8.599 -2.1187  1.3377  1.3080
  132OSM   H17G14328   3.087   0.636   8.642 -0.0380 -1.6083  2.2686
  132OSM   C18F14329   3.294   0.566   8.605 -0.0199  0.1998  0.0122
  132OSM   H18F14330   3.345   0.663   8.585  2.2107 -0.8400  0.3501
  132OSM   H18G14331   3.348   0.500   8.534 -0.3209 -2.0998  1.8342
  132OSM   H18H14332   3.319   0.531   8.707 -0.7907  0.8158  0.4194
  133OSM      N14333   3.287   0.847   5.903 -0.0787 -0.2336 -0.5610
  133OSM    C1514334   3.144   0.864   5.928 -1.0720  0.2009 -0.0453
  133OSM   H15A14335   3.105   0.768   5.956 -0.1392 -0.4976 -1.0931
  133OSM   H15B14336   3.097   0.886   5.833  0.7833 -0.8464 -1.2692
  133OSM   H15C14337   3.117   0.935   6.006 -1.3867  1.7412 -1.4827
  133OSM    C1414338   3.304   0.736   5.800  0.0433 -0.1116 -0.2869
  133OSM   H14A14339   3.244   0.760   5.714 -1.6886 -0.4799  0.7839
  133OSM   H14B14340   3.263   0.643   5.838  1.6195 -0.5531  0.4212
  133OSM   H14C14341   3.406   0.726   5.765 -0.0970 -0.4174 -0.6128
  133OSM    C1314342   3.334   0.974   5.841  0.0598  0.2104 -0.2684
  133OSM   H13A14343   3.442   0.977   5.837  0.0599  0.5618 -0.0783
  133OSM   H13B14344   3.307   1.055   5.908  1.4959  1.1571 -0.7717
  133OSM   H13C14345   3.288   0.992   5.745  2.2124 -1.6993 -1.7743
  133OSM    C1214346   3.361   0.808   6.029  0.3374 -0.4409 -0.2283
  133OSM   H12A14347   3.465   0.789   6.005  0.5225 -0.3821  0.4876
  133OSM   H12B14348   3.313   0.722   6.071 -1.7767  0.6294 -0.3292
  133OSM    C1114349   3.361   0.908   6.148  0.9023  0.0490 -0.4781
  133OSM   H11A14350   3.392   1.008   6.111  0.5712  1.0820  1.8291
  133OSM   H11B14351   3.439   0.878   6.222  1.1726 -0.7966 -1.0980
  133OSM      P14352   3.179   1.044   6.271 -0.0414 -0.3124  0.0895
  133OSM    O1314353   3.206   1.162   6.186  0.0475 -0.0311 -0.6546
  133OSM    O1414354   3.040   1.019   6.315 -0.3089  0.3102  0.2837
  133OSM    O1114355   3.275   1.036   6.398  0.1744  0.0518 -0.0669
  133OSM    O1214356   3.227   0.912   6.201  0.4319  0.4766 -0.1917
  133OSM    C1S14357   3.237   1.103   6.523 -0.0693 -0.2189 -0.5114
  133OSM    H1S14358   3.129   1.085   6.538 -0.6368  1.3456 -2.2980
  133OSM    H1T14359   3.255   1.212   6.510 -0.3245 -0.4038 -2.8602
  133OSM     NF14360   3.263   1.111   6.773 -0.4405  0.3073  0.4319
  133OSM    HNF14361   3.308   1.183   6.826  0.3858 -0.0555  0.2430
  133OSM    C2S14362   3.311   1.048   6.651 -0.4725  0.1286  0.1377
  133OSM    H2S14363   3.305   0.937   6.655 -0.6932  0.0770 -1.0488
  133OSM    C3S14364   3.468   1.074   6.631 -0.5522 -0.7684 -0.2247
  133OSM    H3S14365   3.475   1.180   6.599 -0.2100  1.1252  5.0388
  133OSM     O314366   3.528   0.986   6.536 -0.1710 -0.3541 -0.1590
  133OSM    HO314367   3.453   0.965   6.480 -0.0564  0.8169 -0.7884
  133OSM    C4S14368   3.543   1.064   6.758  0.0741  0.3343 -0.9734
  133OSM    H4S14369   3.542   1.157   6.817 -0.6110 -1.5639  2.2716
  133OSM    C5S14370   3.607   0.956   6.806 -0.6197  0.2116  0.2559
  133OSM    H5S14371   3.622   0.872   6.737 -2.1087 -0.2985  0.5339
  133OSM    C6S14372   3.690   0.949   6.931  0.6955  0.1669  0.0138
  133OSM    H6S14373   3.796   0.931   6.902  0.5824 -1.1376  0.3429
  133OSM    H6T14374   3.646   0.866   6.991  0.5403  0.8702  0.8991
  133OSM    C7S14375   3.680   1.068   7.028 -0.4315  0.4102 -1.0665
  133OSM    H7S14376   3.572   1.081   7.048 -0.4771 -2.7338  1.5174
  133OSM    H7T14377   3.712   1.159   6.974 -1.2825  1.1033 -0.4292
  133OSM    C8S14378   3.763   1.046   7.156 -0.2696 -0.5095  0.4444
  133OSM    H8S14379   3.869   1.033   7.126 -0.9616  0.1609 -2.6702
  133OSM    H8T14380   3.748   0.944   7.196  1.5790 -1.3255 -0.8049
  133OSM    C9S14381   3.746   1.157   7.255  0.3061 -0.3047 -0.2999
  133OSM    H9S14382   3.637   1.166   7.271  0.4312 -0.0957  0.5042
  133OSM    H9T14383   3.786   1.251   7.211 -0.8965  0.1220 -0.5069
  133OSM   C10S14384   3.820   1.127   7.386  0.1759  0.0230  0.3801
  133OSM   H10S14385   3.929   1.134   7.365 -0.3295  1.8049 -2.0909
  133OSM   H10T14386   3.790   1.024   7.417  0.3264 -0.2463 -0.3530
  133OSM   C11S14387   3.777   1.220   7.499 -0.1690 -0.1650  0.4135
  133OSM   H11S14388   3.667   1.227   7.509 -0.3493 -0.9695 -0.7863
  133OSM   H11T14389   3.825   1.320   7.500 -1.6372  0.5651  1.2233
  133OSM   C12S14390   3.808   1.160   7.635 -0.4506  0.0175 -0.0474
  133OSM   H12S14391   3.918   1.171   7.646 -0.7093  0.7660  2.6648
  133OSM   H12T14392   3.783   1.052   7.647  1.0691 -0.3135  0.3914
  133OSM   C13S14393   3.739   1.238   7.753  0.0008 -0.4658  0.3968
  133OSM   H13S14394   3.630   1.219   7.738 -0.7467  3.2695 -0.0041
  133OSM   H13T14395   3.757   1.346   7.738  2.5752 -0.6362  1.7686
  133OSM   C14S14396   3.786   1.191   7.893  0.3995  0.1210  0.0640
  133OSM   H14S14397   3.880   1.247   7.911 -0.5321  1.5461  0.6294
  133OSM   H14T14398   3.805   1.081   7.894 -1.2851 -0.2448 -1.4844
  133OSM   C15S14399   3.684   1.217   8.010 -0.1224  0.3488 -0.6764
  133OSM   H15S14400   3.597   1.157   7.975  0.2152 -0.2763 -0.4727
  133OSM   H15T14401   3.646   1.321   8.020 -0.2691  0.2280  0.0494
  133OSM   C16S14402   3.724   1.169   8.149 -0.2963 -0.0315 -0.8203
  133OSM   H16S14403   3.816   1.207   8.197 -0.2253 -1.1399 -0.0322
  133OSM   H16T14404   3.749   1.061   8.141 -0.2579  0.0454 -1.9830
  133OSM   C17S14405   3.603   1.188   8.245 -0.0945  0.1040 -0.4306
  133OSM   H17S14406   3.633   1.120   8.328  2.5265 -1.9596 -2.8704
  133OSM   H17T14407   3.514   1.145   8.195 -0.8699  0.5892  0.5080
  133OSM   C18S14408   3.576   1.336   8.285  0.3131  0.1640 -0.3730
  133OSM   H18S14409   3.664   1.369   8.344  0.8480 -1.8756  0.0410
  133OSM   H18T14410   3.484   1.351   8.344  0.3377  2.1132 -0.7622
  133OSM   H18U14411   3.572   1.394   8.190 -3.4948 -1.6566 -1.5253
  133OSM    C1F14412   3.148   1.072   6.823 -0.2459 -0.5721 -0.4553
  133OSM     OF14413   3.076   0.993   6.764  0.1107  0.4507 -0.4445
  133OSM    C2F14414   3.106   1.140   6.950  0.6126 -0.2968 -0.3866
  133OSM    H2F14415   3.087   1.245   6.919  2.7904 -0.0065 -0.8946
  133OSM    H2G14416   3.190   1.128   7.022  1.1355  0.6403 -0.8213
  133OSM    C3F14417   2.978   1.075   7.000 -0.0972  0.3794 -0.3719
  133OSM    H3F14418   2.987   0.964   7.005 -1.2239  0.3057  3.0007
  133OSM    H3G14419   2.891   1.111   6.942 -2.5410 -0.9325  2.2276
  133OSM    C4F14420   2.936   1.111   7.143  0.2263 -0.4475  0.2942
  133OSM    H4F14421   2.829   1.084   7.154 -0.1165  0.0872 -1.3748
  133OSM    H4G14422   2.947   1.221   7.155 -1.7509 -0.2912  1.0796
  133OSM    C5F14423   3.020   1.058   7.256  0.3473  0.6302 -0.7280
  133OSM    H5F14424   3.125   1.090   7.240  0.2250  1.1301 -0.5270
  133OSM    H5G14425   3.019   0.947   7.250  3.4535  0.4877 -0.4092
  133OSM    C6F14426   2.959   1.091   7.393 -0.1373 -0.5076 -0.1643
  133OSM    H6F14427   2.851   1.069   7.381 -0.4902  0.7185  0.5283
  133OSM    H6G14428   2.965   1.198   7.423  0.8535 -0.6697  0.2665
  133OSM    C7F14429   3.022   1.002   7.506  0.0362  0.7921 -0.7985
  133OSM    H7F14430   3.129   1.031   7.497  0.3594 -0.2301 -0.3895
  133OSM    H7G14431   3.003   0.895   7.484  0.2791  0.6057 -0.1302
  133OSM    C8F14432   2.951   1.028   7.639  0.5803  0.2151 -0.2182
  133OSM    H8F14433   2.843   1.007   7.623  0.3412  1.5109 -0.4519
  133OSM    H8G14434   2.966   1.134   7.669  1.5970  0.3624 -1.1814
  133OSM    C9F14435   3.016   0.949   7.746 -0.6552 -0.0977  0.1576
  133OSM    H9F14436   3.119   0.986   7.762 -1.1534  1.2582  0.4001
  133OSM   C10F14437   2.969   0.844   7.814 -0.9402  0.3865 -0.1333
  133OSM   H10F14438   3.032   0.790   7.886 -2.1904  0.2101  0.8705
  133OSM   C11F14439   2.839   0.771   7.798  0.4095  0.0508 -0.0852
  133OSM   H11F14440   2.788   0.814   7.709 -0.7608  0.9531  0.9857
  133OSM   H11G14441   2.777   0.794   7.887  0.3390 -0.2279 -0.0620
  133OSM   C12F14442   2.852   0.618   7.785  0.0038 -0.6661  0.4653
  133OSM   H12F14443   2.901   0.596   7.688  2.6144  2.8902  0.7920
  133OSM   H12G14444   2.757   0.560   7.783 -0.7423  0.4970  1.0987
  133OSM   C13F14445   2.943   0.558   7.895 -0.6039 -0.4427  0.3882
  133OSM   H13F14446   2.909   0.599   7.993  0.2439 -0.3792  0.6636
  133OSM   H13G14447   3.048   0.582   7.868 -0.3124  2.1325  3.2099
  133OSM   C14F14448   2.917   0.403   7.907 -0.7215  0.2772 -0.3937
  133OSM   H14F14449   2.963   0.356   7.818  2.5594  0.5225  1.0049
  133OSM   H14G14450   2.810   0.374   7.904 -0.1469 -1.9912 -0.7347
  133OSM   C15F14451   2.997   0.348   8.028  0.0375 -0.2157 -0.2181
  133OSM   H15F14452   3.099   0.389   8.035 -0.9461  2.0712  3.3086
  133OSM   H15G14453   3.001   0.238   8.010  2.6588 -0.5231  1.8010
  133OSM   C16F14454   2.927   0.374   8.163  0.8951 -0.1879 -0.2026
  133OSM   H16F14455   2.915   0.484   8.178 -0.2870  0.1150 -2.7208
  133OSM   H16G14456   2.995   0.344   8.245 -0.0669 -1.4175  0.1748
  133OSM   C17F14457   2.796   0.299   8.177 -0.1830  1.2207 -0.0877
  133OSM   H17F14458   2.817   0.201   8.128 -0.2807 -0.2525  2.6177
  133OSM   H17G14459   2.717   0.357   8.126  0.3836  2.3761  0.3188
  133OSM   C18F14460   2.757   0.269   8.316  0.0303 -0.0894  0.0080
  133OSM   H18F14461   2.771   0.354   8.385  0.4796 -0.8130  0.8210
  133OSM   H18G14462   2.821   0.186   8.352  0.3514 -0.6972 -1.8626
  133OSM   H18H14463   2.655   0.223   8.321  0.1650 -0.2844  1.1273
  134OSM      N14464   3.958   4.380   6.450  0.3501  0.7454 -0.4533
  134OSM    C1514465   4.064   4.493   6.413  0.2695 -0.7472 -0.2759
  134OSM   H15A14466   4.052   4.506   6.307 -1.1909 -0.1795 -0.0625
  134OSM   H15B14467   4.152   4.456   6.463 -0.7982  1.5051  3.7274
  134OSM   H15C14468   4.046   4.587   6.463  2.1822 -0.5102  0.0486
  134OSM    C1414469   3.826   4.436   6.453  0.3796 -0.1561  0.4097
  134OSM   H14A14470   3.820   4.523   6.516 -0.5174  0.1571 -0.0889
  134OSM   H14B14471   3.743   4.373   6.482 -1.1145  1.4249 -0.2415
  134OSM   H14C14472   3.800   4.450   6.349 -0.9291 -1.1378  0.5763
  134OSM    C1314473   3.963   4.273   6.346 -0.4545  0.0639  0.1472
  134OSM   H13A14474   4.056   4.218   6.346  0.1702  1.1012 -0.2254
  134OSM   H13B14475   3.928   4.315   6.253 -1.9265  0.7230  0.9616
  134OSM   H13C14476   3.879   4.208   6.367  0.1065 -0.4570  0.8327
  134OSM    C1214477   3.997   4.325   6.587 -0.2656  0.3469  0.5332
  134OSM   H12A14478   3.984   4.405   6.657 -3.6190 -0.4075  0.9160
  134OSM   H12B14479   4.100   4.292   6.580  0.0892  1.6322 -0.6481
  134OSM    C1114480   3.911   4.202   6.639  0.0768 -0.5438 -0.3995
  134OSM   H11A14481   3.804   4.209   6.612  0.0114 -0.3358 -0.0911
  134OSM   H11B14482   3.911   4.196   6.750  2.5831  2.3551 -0.0831
  134OSM      P14483   3.928   3.958   6.523 -0.0653 -0.2876  0.3266
  134OSM    O1314484   3.883   3.973   6.383  0.6088 -0.3905 -0.0650
  134OSM    O1414485   4.032   3.856   6.537  0.2682 -0.1116 -0.4666
  134OSM    O1114486   3.804   3.916   6.608  0.2975 -0.1723  0.6195
  134OSM    O1214487   3.978   4.084   6.594  0.8572 -0.2765  0.4281
  134OSM    C1S14488   3.815   3.840   6.727  0.1120 -0.7067 -0.6385
  134OSM    H1S14489   3.809   3.915   6.809  2.1671  0.8503 -1.8004
  134OSM    H1T14490   3.916   3.796   6.747 -0.0738 -1.0448 -0.4403
  134OSM     NF14491   3.721   3.656   6.866 -0.8372 -0.2738 -0.2032
  134OSM    HNF14492   3.779   3.575   6.861 -1.5840 -0.9273  1.1938
  134OSM    C2S14493   3.708   3.729   6.737  0.1786 -0.3497  0.9466
  134OSM    H2S14494   3.610   3.783   6.735 -0.4701 -1.5029  0.3399
  134OSM    C3S14495   3.713   3.629   6.615 -0.1247  0.1622  1.0143
  134OSM    H3S14496   3.810   3.581   6.592 -0.7163 -0.7824  0.4091
  134OSM     O314497   3.686   3.694   6.488 -0.2853 -0.0983  0.2867
  134OSM    HO314498   3.670   3.788   6.506  1.2282  0.1711  0.3333
  134OSM    C4S14499   3.603   3.526   6.632 -0.0852  0.2372  0.3450
  134OSM    H4S14500   3.501   3.568   6.626  0.3842  1.1284 -2.5209
  134OSM    C5S14501   3.618   3.389   6.652  0.5895 -0.1708  0.2407
  134OSM    H5S14502   3.720   3.348   6.655  0.3132 -1.0662 -1.4771
  134OSM    C6S14503   3.518   3.276   6.664  0.7560  0.1408  0.0598
  134OSM    H6S14504   3.528   3.214   6.572  0.2580  0.8591 -0.4916
  134OSM    H6T14505   3.411   3.305   6.666  0.7320  0.2720 -1.6834
  134OSM    C7S14506   3.550   3.188   6.787 -0.5908  0.5003 -0.3667
  134OSM    H7S14507   3.659   3.171   6.779 -0.5820 -1.4801  2.5682
  134OSM    H7T14508   3.498   3.090   6.784  0.4738 -0.1664  1.6031
  134OSM    C8S14509   3.518   3.254   6.918 -0.0392 -0.3636  0.3625
  134OSM    H8S14510   3.416   3.298   6.921 -0.3696 -1.0794 -0.1191
  134OSM    H8T14511   3.583   3.342   6.938  0.0771 -0.3126 -0.2355
  134OSM    C9S14512   3.525   3.164   7.038  0.1717 -0.3406 -0.3883
  134OSM    H9S14513   3.626   3.116   7.033 -0.2514 -1.2343 -0.5029
  134OSM    H9T14514   3.468   3.069   7.031  0.9257 -0.9351  1.1600
  134OSM   C10S14515   3.507   3.230   7.171 -0.2078 -0.1257 -0.8516
  134OSM   H10S14516   3.402   3.265   7.181  0.5157  2.4670 -1.6889
  134OSM   H10T14517   3.567   3.323   7.180  1.0605 -0.7902 -2.0044
  134OSM   C11S14518   3.549   3.133   7.287  0.6872  0.4350 -0.7257
  134OSM   H11S14519   3.657   3.111   7.278  0.4168 -1.1715 -0.5249
  134OSM   H11T14520   3.495   3.035   7.284 -0.8118  1.2450 -1.3004
  134OSM   C12S14521   3.517   3.200   7.421  0.5018 -0.0872 -0.2880
  134OSM   H12S14522   3.409   3.221   7.435  1.0138  2.8996 -0.3059
  134OSM   H12T14523   3.570   3.295   7.401 -2.1185  1.6809  0.7297
  134OSM   C13S14524   3.583   3.125   7.534 -0.0111  0.2782 -0.2395
  134OSM   H13S14525   3.692   3.128   7.511 -0.0340  1.5252 -0.2510
  134OSM   H13T14526   3.543   3.022   7.546  0.0658  0.2922  0.1442
  134OSM   C14S14527   3.545   3.187   7.667 -1.1714 -0.4777  0.1376
  134OSM   H14S14528   3.434   3.181   7.672 -1.3947  1.1610 -1.8943
  134OSM   H14T14529   3.564   3.296   7.662  3.6358 -1.1110  0.2013
  134OSM   C15S14530   3.611   3.132   7.792  0.2853 -0.2508 -0.5782
  134OSM   H15S14531   3.721   3.146   7.782  0.0925  2.5865  0.2150
  134OSM   H15T14532   3.585   3.024   7.794 -2.3442  0.2443 -2.4754
  134OSM   C16S14533   3.567   3.197   7.924 -0.1957  0.2770 -0.4868
  134OSM   H16S14534   3.457   3.202   7.939 -0.3769 -2.3771 -0.5580
  134OSM   H16T14535   3.604   3.302   7.930 -2.4310  1.0445  1.4258
  134OSM   C17S14536   3.639   3.123   8.035  0.0041  0.7380  0.8651
  134OSM   H17S14537   3.748   3.119   8.014 -0.1683 -1.0335  0.1818
  134OSM   H17T14538   3.605   3.017   8.033 -0.7151  0.9667  0.5690
  134OSM   C18S14539   3.627   3.171   8.180  0.3437 -0.1447  0.4607
  134OSM   H18S14540   3.520   3.189   8.203  0.0499  0.6761 -1.4086
  134OSM   H18T14541   3.668   3.274   8.178  0.5587 -0.2383 -0.5851
  134OSM   H18U14542   3.689   3.113   8.251  0.0114  1.7150  2.3625
  134OSM    C1F14543   3.658   3.706   6.977  0.1621  0.0976 -0.6355
  134OSM     OF14544   3.634   3.826   6.978  0.3233  0.0354 -0.6780
  134OSM    C2F14545   3.637   3.609   7.089 -0.7777 -0.1203  0.0096
  134OSM    H2F14546   3.702   3.519   7.088 -1.2011 -0.4617 -2.4705
  134OSM    H2G14547   3.535   3.565   7.087 -0.3883 -1.1488  1.1026
  134OSM    C3F14548   3.639   3.686   7.228 -0.1727 -0.1247 -0.3385
  134OSM    H3F14549   3.553   3.756   7.217 -0.3910 -0.2138  0.7734
  134OSM    H3G14550   3.732   3.746   7.224 -0.6621  0.6986  0.3057
  134OSM    C4F14551   3.653   3.605   7.355 -0.7962 -0.0433 -0.0418
  134OSM    H4F14552   3.752   3.554   7.353  0.6449  2.5978 -0.4864
  134OSM    H4G14553   3.570   3.535   7.378 -1.5798  0.0088 -2.4435
  134OSM    C5F14554   3.660   3.694   7.482 -0.0748 -0.3914  0.2298
  134OSM    H5F14555   3.559   3.738   7.487  1.2230  2.7363  1.6189
  134OSM    H5G14556   3.724   3.783   7.467 -1.1693  0.4363  0.3821
  134OSM    C6F14557   3.683   3.622   7.612 -0.5788  0.6325 -0.0743
  134OSM    H6F14558   3.775   3.561   7.602 -0.3248  0.6599  1.7099
  134OSM    H6G14559   3.602   3.549   7.635 -0.2949  0.0197 -0.9643
  134OSM    C7F14560   3.704   3.706   7.742  0.2276 -0.0932  0.3405
  134OSM    H7F14561   3.611   3.760   7.768  0.4733 -0.2868  1.6988
  134OSM    H7G14562   3.777   3.789   7.731  1.8170 -1.3650  0.8570
  134OSM    C8F14563   3.739   3.620   7.866  0.5286 -0.2713 -0.6942
  134OSM    H8F14564   3.844   3.586   7.851  1.2469 -0.5409  3.7594
  134OSM    H8G14565   3.677   3.529   7.877 -0.1307  0.2472 -0.0853
  134OSM    C9F14566   3.733   3.704   7.998 -0.2814  0.2073  0.8904
  134OSM    H9F14567   3.644   3.770   7.998  0.4928  1.3974 -1.5041
  134OSM   C10F14568   3.819   3.708   8.103  0.0084  0.7233  0.0577
  134OSM   H10F14569   3.796   3.773   8.189 -1.2393  1.1839 -0.6080
  134OSM   C11F14570   3.945   3.623   8.111 -0.5535  0.6318  0.2731
  134OSM   H11F14571   4.025   3.683   8.160  0.3323 -0.7623  0.5998
  134OSM   H11G14572   3.980   3.601   8.008 -1.3099  2.6877 -0.4582
  134OSM   C12F14573   3.923   3.489   8.181  0.4609 -0.8907 -0.3686
  134OSM   H12F14574   4.019   3.434   8.170  1.4608  0.4047  1.3341
  134OSM   H12G14575   3.842   3.435   8.127  0.9633 -1.8045 -0.2328
  134OSM   C13F14576   3.892   3.514   8.325 -0.8373  0.5716 -0.4331
  134OSM   H13F14577   3.804   3.580   8.343 -1.0129  0.1412  0.3709
  134OSM   H13G14578   3.979   3.563   8.373 -0.6910 -1.2688  1.3094
  134OSM   C14F14579   3.857   3.383   8.412 -0.0744 -0.6540  0.3656
  134OSM   H14F14580   3.935   3.304   8.403 -0.0654 -0.4212 -2.3009
  134OSM   H14G14581   3.769   3.342   8.359  1.0783 -2.3488 -0.3377
  134OSM   C15F14582   3.813   3.415   8.559 -0.4370 -0.6643  0.2085
  134OSM   H15F14583   3.733   3.491   8.550  1.2166  1.1170 -0.1011
  134OSM   H15G14584   3.892   3.462   8.621 -0.7309  2.6854 -1.7093
  134OSM   C16F14585   3.772   3.277   8.620 -0.1169  0.6331  0.7602
  134OSM   H16F14586   3.779   3.266   8.730  0.6091  0.7654  0.7318
  134OSM   H16G14587   3.827   3.191   8.578 -1.0596 -0.4481  1.6845
  134OSM   C17F14588   3.629   3.242   8.582 -0.1640 -0.6407 -0.1929
  134OSM   H17F14589   3.605   3.254   8.474 -1.4015 -4.1598 -0.4433
  134OSM   H17G14590   3.556   3.302   8.642  2.7515  1.9999  1.0000
  134OSM   C18F14591   3.600   3.090   8.611  0.2462  0.2246  0.1460
  134OSM   H18F14592   3.490   3.075   8.605 -0.1258  2.6725 -0.1872
  134OSM   H18G14593   3.627   3.066   8.716  0.7321  3.1520  0.7662
  134OSM   H18H14594   3.652   3.011   8.553  1.0881  0.6205  0.3555
  135OSM      N14595   3.510   3.908   6.220  0.2650  0.5332 -0.1313
  135OSM    C1514596   3.581   3.878   6.094  0.1840  1.0230  0.3542
  135OSM   H15A14597   3.670   3.818   6.111 -2.0022 -2.4405  0.6206
  135OSM   H15B14598   3.613   3.963   6.036  0.9066  0.7470  0.3308
  135OSM   H15C14599   3.526   3.806   6.036  0.7448  0.8598  0.0182
  135OSM    C1414600   3.394   3.999   6.180 -0.3118  0.0686 -0.7128
  135OSM   H14A14601   3.419   4.083   6.117 -0.8569  1.2703  0.6190
  135OSM   H14B14602   3.345   4.038   6.268 -3.0424 -2.5439 -0.8935
  135OSM   H14C14603   3.315   3.952   6.123 -0.9103  1.8550 -1.4668
  135OSM    C1314604   3.451   3.782   6.275  0.1988  0.1015  0.1268
  135OSM   H13A14605   3.356   3.762   6.228  0.5599 -0.5211 -0.3693
  135OSM   H13B14606   3.430   3.798   6.379  2.2106  0.1954  0.5682
  135OSM   H13C14607   3.514   3.694   6.275  0.9831  0.6174 -1.4899
  135OSM    C1214608   3.596   3.972   6.324 -0.3810 -0.2389 -0.5199
  135OSM   H12A14609   3.641   4.057   6.274 -2.0065  0.2623 -1.2077
  135OSM   H12B14610   3.679   3.913   6.360 -0.2888  0.8563  1.1845
  135OSM    C1114611   3.527   4.028   6.455 -0.4840 -0.5909  0.9615
  135OSM   H11A14612   3.609   4.061   6.523  1.9511 -0.0825 -1.9926
  135OSM   H11B14613   3.473   3.943   6.502 -0.9303 -0.9392 -0.1511
  135OSM      P14614   3.413   4.250   6.527 -0.2146  0.2025  0.1028
  135OSM    O1314615   3.526   4.341   6.531  0.0216 -0.6157  0.2121
  135OSM    O1414616   3.288   4.316   6.484 -0.2019 -0.0981 -0.5842
  135OSM    O1114617   3.388   4.177   6.671  0.2691 -0.0897  0.4366
  135OSM    O1214618   3.440   4.130   6.433 -0.2673 -0.8359 -0.0636
  135OSM    C1S14619   3.498   4.160   6.757  0.0121  0.6799  0.1301
  135OSM    H1S14620   3.573   4.241   6.747  1.0839 -0.4037 -0.8093
  135OSM    H1T14621   3.553   4.067   6.732 -0.0253  0.2351  1.6299
  135OSM     NF14622   3.575   4.125   6.985  0.2620 -0.4508 -0.0207
  135OSM    HNF14623   3.581   4.030   7.014 -2.8354 -0.7595 -0.0896
  135OSM    C2S14624   3.458   4.164   6.906  0.2933  0.5694  0.0374
  135OSM    H2S14625   3.427   4.271   6.914 -2.2533  0.1232 -2.3225
  135OSM    C3S14626   3.332   4.078   6.946 -0.5697  1.2586 -0.0155
  135OSM    H3S14627   3.341   3.976   6.904 -4.1009  0.1934  1.4611
  135OSM     O314628   3.218   4.126   6.874  0.0196  0.2006 -0.4005
  135OSM    HO314629   3.241   4.163   6.789 -0.8117  2.4824  0.3056
  135OSM    C4S14630   3.297   4.084   7.092 -0.0233 -0.0118 -0.0889
  135OSM    H4S14631   3.246   4.178   7.118  1.5193  0.4992  1.3029
  135OSM    C5S14632   3.286   3.980   7.175  0.1883 -0.3468  0.8930
  135OSM    H5S14633   3.317   3.879   7.145 -0.2493  0.0974 -1.2999
  135OSM    C6S14634   3.243   3.996   7.316  0.2579 -0.7991  0.0094
  135OSM    H6S14635   3.190   3.901   7.341 -0.2780 -0.0670  1.8914
  135OSM    H6T14636   3.166   4.074   7.334  1.3344  0.5461 -1.0963
  135OSM    C7S14637   3.357   4.012   7.416 -0.1314 -0.3727 -0.2987
  135OSM    H7S14638   3.404   4.113   7.415 -0.0617 -0.2513  3.1650
  135OSM    H7T14639   3.439   3.942   7.390  0.5372 -0.0354  0.8487
  135OSM    C8S14640   3.305   3.978   7.556  0.2887  0.5733  0.4604
  135OSM    H8S14641   3.263   3.875   7.561  1.0508  0.3261  4.0434
  135OSM    H8T14642   3.213   4.038   7.570 -0.4833 -0.3761 -0.3928
  135OSM    C9S14643   3.400   3.995   7.671 -0.1618 -0.1714 -0.0972
  135OSM    H9S14644   3.447   4.096   7.667  1.2553 -0.8500 -2.9668
  135OSM    H9T14645   3.484   3.925   7.655 -0.0829  0.3447 -2.1434
  135OSM   C10S14646   3.331   3.983   7.813  0.2384 -0.1745  0.7381
  135OSM   H10S14647   3.293   3.879   7.817  0.8692 -0.4686 -0.5323
  135OSM   H10T14648   3.235   4.040   7.816  0.4323  0.3230 -1.3886
  135OSM   C11S14649   3.418   4.014   7.928  0.4943 -0.5069 -0.2483
  135OSM   H11S14650   3.471   4.111   7.916 -2.1108  1.2140  1.1724
  135OSM   H11T14651   3.495   3.934   7.936  0.8416 -0.6613 -3.7097
  135OSM   C12S14652   3.341   4.017   8.058  0.5319 -0.4682  0.0707
  135OSM   H12S14653   3.300   3.921   8.094  1.3713 -1.3740 -1.2722
  135OSM   H12T14654   3.252   4.078   8.032  0.5844 -0.1014  0.7305
  135OSM   C13S14655   3.420   4.082   8.174 -0.4368  0.1079 -0.7554
  135OSM   H13S14656   3.473   4.174   8.141  1.0287 -0.1812  0.6511
  135OSM   H13T14657   3.501   4.011   8.199 -1.6321 -1.1288 -0.2638
  135OSM   C14S14658   3.337   4.118   8.298  0.3528  0.2757  0.3243
  135OSM   H14S14659   3.311   4.028   8.359  2.1871  0.7055  1.8640
  135OSM   H14T14660   3.254   4.181   8.261 -0.7277 -0.1427  1.9061
  135OSM   C15S14661   3.409   4.212   8.401 -0.2385  0.2110  0.1224
  135OSM   H15S14662   3.408   4.312   8.352  2.5779  0.3810  0.2503
  135OSM   H15T14663   3.515   4.179   8.402 -0.7721 -1.6004  0.8601
  135OSM   C16S14664   3.341   4.233   8.534  0.1186 -0.0806  0.9620
  135OSM   H16S14665   3.389   4.161   8.603 -1.2859 -2.4464 -0.4102
  135OSM   H16T14666   3.233   4.207   8.528  0.1208 -0.0911  0.9689
  135OSM   C17S14667   3.354   4.379   8.580 -0.7615  0.6197 -0.6967
  135OSM   H17S14668   3.309   4.445   8.502 -0.3301  0.9940 -0.6333
  135OSM   H17T14669   3.460   4.399   8.604 -0.5670 -0.2287 -0.7933
  135OSM   C18S14670   3.275   4.401   8.702  0.5767 -0.9014 -0.5985
  135OSM   H18S14671   3.279   4.506   8.737  0.6579 -1.0672 -0.0962
  135OSM   H18T14672   3.314   4.344   8.789 -1.4783 -0.9399  0.3561
  135OSM   H18U14673   3.168   4.371   8.696  0.0439  0.6249  0.6993
  135OSM    C1F14674   3.679   4.204   6.993  0.3476 -0.5698  0.4411
  135OSM     OF14675   3.679   4.322   6.958 -0.0835  0.4374 -0.2458
  135OSM    C2F14676   3.795   4.135   7.048 -0.5515 -0.4273  0.5071
  135OSM    H2F14677   3.880   4.129   6.976 -0.4780 -0.3819  0.5896
  135OSM    H2G14678   3.767   4.031   7.076  0.2828 -0.8017  0.0070
  135OSM    C3F14679   3.847   4.210   7.169  0.2391  0.2076  0.0648
  135OSM    H3F14680   3.883   4.314   7.150  2.1023 -0.3872  0.2033
  135OSM    H3G14681   3.935   4.160   7.215 -0.5788 -0.3122  1.1205
  135OSM    C4F14682   3.745   4.215   7.287  0.1849  0.5094  0.2957
  135OSM    H4F14683   3.733   4.108   7.315 -2.3787  0.6668  0.0311
  135OSM    H4G14684   3.645   4.256   7.259 -0.0188 -0.1231  0.0793
  135OSM    C5F14685   3.802   4.297   7.402  0.4999 -1.2933 -0.4632
  135OSM    H5F14686   3.792   4.405   7.379 -0.2576 -1.4403 -0.8506
  135OSM    H5G14687   3.907   4.261   7.416  1.5474 -0.8669 -5.5252
  135OSM    C6F14688   3.726   4.263   7.534 -0.0740  0.1498 -0.7030
  135OSM    H6F14689   3.740   4.153   7.545  3.2724  0.6407  1.6786
  135OSM    H6G14690   3.620   4.293   7.520  0.4354  2.4227 -0.1096
  135OSM    C7F14691   3.792   4.337   7.660  0.1843  0.6134 -0.0664
  135OSM    H7F14692   3.781   4.443   7.631  1.1300  0.9724  0.8142
  135OSM    H7G14693   3.899   4.305   7.667  0.1876  1.0093  2.4236
  135OSM    C8F14694   3.719   4.322   7.792 -0.5663  0.0921  0.0706
  135OSM    H8F14695   3.612   4.336   7.766 -0.3168  1.5524 -0.2483
  135OSM    H8G14696   3.749   4.406   7.858  2.0967 -1.3535  0.8899
  135OSM    C9F14697   3.731   4.176   7.840 -0.1154  0.6927  0.5429
  135OSM    H9F14698   3.685   4.105   7.770 -0.0384  0.4125  0.7753
  135OSM   C10F14699   3.789   4.136   7.952 -0.0522  0.1222 -0.5095
  135OSM   H10F14700   3.798   4.030   7.980  0.1053  0.9916  3.2684
  135OSM   C11F14701   3.840   4.230   8.059 -0.0997  0.2800 -0.5053
  135OSM   H11F14702   3.782   4.325   8.066 -0.6625 -0.1129  0.4332
  135OSM   H11G14703   3.946   4.262   8.052  0.1198 -0.4420 -0.5619
  135OSM   C12F14704   3.817   4.166   8.200  0.0622 -0.3820 -0.3550
  135OSM   H12F14705   3.876   4.072   8.209 -0.2519 -0.4947  0.6299
  135OSM   H12G14706   3.710   4.140   8.210 -0.1105  0.4521  0.0236
  135OSM   C13F14707   3.859   4.261   8.315  0.1917 -0.3740 -0.1593
  135OSM   H13F14708   3.847   4.211   8.413  0.7985 -1.3234 -0.5588
  135OSM   H13G14709   3.795   4.352   8.318  2.9902  1.8101 -1.5633
  135OSM   C14F14710   4.008   4.298   8.312 -0.0569 -0.0942  0.1235
  135OSM   H14F14711   4.024   4.362   8.223 -1.3411  1.1640  0.7654
  135OSM   H14G14712   4.077   4.211   8.300  0.2022  0.2180 -0.7367
  135OSM   C15F14713   4.053   4.374   8.430  0.4438 -0.5236  0.3529
  135OSM   H15F14714   3.986   4.461   8.447  3.1601  2.1274 -1.5994
  135OSM   H15G14715   4.156   4.415   8.421  0.4102 -0.4090  0.4922
  135OSM   C16F14716   4.059   4.301   8.566 -0.1424  0.7964  0.1063
  135OSM   H16F14717   4.136   4.222   8.556  0.1806  0.9512  1.1580
  135OSM   H16G14718   3.957   4.260   8.587 -0.4607  0.6114 -1.6548
  135OSM   C17F14719   4.093   4.398   8.682  0.2402  0.7220 -0.2002
  135OSM   H17F14720   4.018   4.480   8.684  2.2425  2.6526  1.6474
  135OSM   H17G14721   4.190   4.447   8.656  0.0645  0.5897 -1.1432
  135OSM   C18F14722   4.092   4.333   8.822 -0.2515 -0.1371  0.2649
  135OSM   H18F14723   4.099   4.413   8.898 -0.1460 -0.9326  1.1024
  135OSM   H18G14724   4.177   4.261   8.827  0.3754  0.5417 -0.4120
  135OSM   H18H14725   3.996   4.279   8.838 -0.9104  1.4015  1.7803
  136OSM      N14726   1.219   0.082   6.098  0.6182  0.8558  0.1875
  136OSM    C1514727   1.297   0.123   6.222  0.4130 -0.2328  0.0046
  136OSM   H15A14728   1.374   0.049   6.232  0.3293 -0.2900  0.2222
  136OSM   H15B14729   1.238   0.115   6.312  1.1010 -0.1946  0.4656
  136OSM   H15C14730   1.340   0.222   6.212 -0.4437  0.2141  0.6090
  136OSM    C1414731   1.308   0.053   5.989 -0.7199 -0.1863  0.7476
  136OSM   H14A14732   1.245   0.022   5.907 -1.8976  2.8695  0.3497
  136OSM   H14B14733   1.378  -0.027   6.011  1.1139  0.2945 -2.6413
  136OSM   H14C14734   1.365   0.139   5.956  0.0441 -0.1622  2.0610
  136OSM    C1314735   1.148  -0.047   6.114 -0.4646  0.4970 -0.0705
  136OSM   H13A14736   1.097  -0.076   6.024  0.6171  0.2013 -0.6098
  136OSM   H13B14737   1.063  -0.042   6.181 -0.1223 -0.9488  0.5255
  136OSM   H13C14738   1.207  -0.129   6.155 -0.0148  0.5480 -0.6102
  136OSM    C1214739   1.113   0.186   6.064 -0.1046 -0.5519  0.0911
  136OSM   H12A14740   1.075   0.180   5.963 -0.8013 -2.7028  0.4337
  136OSM   H12B14741   1.162   0.282   6.078  0.0400 -0.7592  1.1114
  136OSM    C1114742   0.989   0.194   6.154  0.0721  0.2702  0.2344
  136OSM   H11A14743   0.929   0.100   6.162  0.6778 -0.3721 -2.0707
  136OSM   H11B14744   0.929   0.268   6.097  1.2092  0.2841 -0.9913
  136OSM      P14745   1.029   0.387   6.305  0.3179 -0.3243  0.1772
  136OSM    O1314746   1.140   0.445   6.226  0.4785 -0.6795  0.2194
  136OSM    O1414747   0.892   0.455   6.291  0.3219 -0.0963  0.2323
  136OSM    O1114748   1.071   0.398   6.460 -0.1241 -0.4579 -0.4026
  136OSM    O1214749   1.017   0.240   6.284  0.1210 -0.2888  0.2845
  136OSM    C1S14750   1.142   0.300   6.534  0.9256  0.5661 -0.0664
  136OSM    H1S14751   1.248   0.328   6.516  0.5197  2.7019  0.6889
  136OSM    H1T14752   1.112   0.200   6.495  0.4025 -0.3425  2.4790
  136OSM     NF14753   1.211   0.213   6.757 -0.2784  0.6479  0.3698
  136OSM    HNF14754   1.168   0.123   6.752 -0.4795  0.7914 -0.5671
  136OSM    C2S14755   1.134   0.317   6.687 -0.3122 -0.7049 -0.5560
  136OSM    H2S14756   1.180   0.415   6.714  0.3159 -0.6275 -1.8141
  136OSM    C3S14757   0.991   0.315   6.727  0.7103  0.3786 -0.4279
  136OSM    H3S14758   0.945   0.220   6.693  0.4124  0.8868 -1.4919
  136OSM     O314759   0.904   0.415   6.668 -0.4514 -0.0670 -0.3452
  136OSM    HO314760   0.954   0.438   6.590 -0.2851  0.3293 -0.1276
  136OSM    C4S14761   0.989   0.305   6.883  0.0620  0.4752 -0.9894
  136OSM    H4S14762   1.000   0.203   6.921 -1.6355  0.8725  0.6739
  136OSM    C5S14763   0.980   0.404   6.970  0.1621  0.1007 -0.2140
  136OSM    H5S14764   0.991   0.504   6.926 -1.3692  1.2461  1.8446
  136OSM    C6S14765   0.978   0.403   7.123 -0.1969 -0.4235  0.4144
  136OSM    H6S14766   0.871   0.411   7.153 -0.5870 -2.4415 -0.2890
  136OSM    H6T14767   1.037   0.488   7.164  0.5058  0.4357 -2.2134
  136OSM    C7S14768   1.033   0.282   7.191 -0.2341  0.4522  0.2035
  136OSM    H7S14769   1.137   0.271   7.152 -0.9132 -0.7010 -1.3713
  136OSM    H7T14770   0.981   0.192   7.152  0.9093 -0.4211  0.6017
  136OSM    C8S14771   1.019   0.300   7.342 -0.9308 -0.4563 -0.3729
  136OSM    H8S14772   0.913   0.320   7.369 -0.9033  0.9500 -1.2063
  136OSM    H8T14773   1.074   0.391   7.374 -0.3615 -1.4704  1.6491
  136OSM    C9S14774   1.081   0.173   7.402  0.3964 -0.0866 -0.0051
  136OSM    H9S14775   1.168   0.138   7.344  1.3407  0.7711  0.8554
  136OSM    H9T14776   0.996   0.102   7.394 -0.0385  0.5553 -1.2498
  136OSM   C10S14777   1.116   0.203   7.542  0.2291  0.5932 -0.8284
  136OSM   H10S14778   1.182   0.291   7.560  2.0604 -0.9292  0.2187
  136OSM   H10T14779   1.175   0.120   7.585 -1.3249 -0.3558 -0.4764
  136OSM   C11S14780   0.991   0.206   7.626  0.6660 -0.4679 -1.1525
  136OSM   H11S14781   0.933   0.113   7.613 -1.9578  0.6170  1.6662
  136OSM   H11T14782   0.913   0.281   7.602 -0.0941 -0.8201  0.1454
  136OSM   C12S14783   1.030   0.234   7.776  0.4156  0.2133 -0.5585
  136OSM   H12S14784   1.103   0.317   7.785 -0.3406  1.0238 -1.7381
  136OSM   H12T14785   1.069   0.144   7.828 -0.2544  1.1616  1.7239
  136OSM   C13S14786   0.902   0.286   7.854 -0.3411 -0.1028  0.5345
  136OSM   H13S14787   0.839   0.194   7.857 -1.0375  0.3899  1.4590
  136OSM   H13T14788   0.860   0.366   7.789 -0.0727 -0.3903  0.0054
  136OSM   C14S14789   0.943   0.352   7.983  0.0127 -0.4447 -0.2533
  136OSM   H14S14790   1.017   0.430   7.957 -0.0511  0.0619  1.0244
  136OSM   H14T14791   0.990   0.270   8.042  0.8689 -0.1409 -0.4900
  136OSM   C15S14792   0.812   0.408   8.052  0.5036  0.1740  0.0135
  136OSM   H15S14793   0.745   0.320   8.056 -0.9515  1.2435  0.0280
  136OSM   H15T14794   0.770   0.482   7.981 -0.9106 -0.4614  0.1636
  136OSM   C16S14795   0.832   0.463   8.194 -0.4756 -0.4033  0.1270
  136OSM   H16S14796   0.731   0.503   8.216 -0.3160  0.3043 -0.3836
  136OSM   H16T14797   0.906   0.545   8.185 -1.3465  0.3725 -0.0424
  136OSM   C17S14798   0.880   0.376   8.304 -1.0735  0.3205 -0.0105
  136OSM   H17S14799   0.972   0.322   8.273 -0.8258  0.1024  1.0607
  136OSM   H17T14800   0.803   0.297   8.318 -1.3013 -0.1118 -3.0621
  136OSM   C18S14801   0.894   0.463   8.433 -0.4808  0.4386  0.8551
  136OSM   H18S14802   0.793   0.500   8.462  0.1166  1.7148  1.3935
  136OSM   H18T14803   0.954   0.552   8.407 -0.3605  0.1385  0.0860
  136OSM   H18U14804   0.951   0.422   8.520  2.2482  1.6120 -0.2678
  136OSM    C1F14805   1.352   0.228   6.760 -0.2933 -0.2639 -0.3729
  136OSM     OF14806   1.399   0.326   6.711 -0.2354 -0.4172  0.0216
  136OSM    C2F14807   1.436   0.119   6.822  0.2879  0.6181  0.0068
  136OSM    H2F14808   1.493   0.078   6.736 -2.8051 -0.7300 -1.5365
  136OSM    H2G14809   1.367   0.040   6.859 -1.1912  2.7303  2.0669
  136OSM    C3F14810   1.527   0.179   6.937  0.5464  0.0026  0.1353
  136OSM    H3F14811   1.563   0.278   6.902 -1.1538  1.3876  2.0798
  136OSM    H3G14812   1.597   0.099   6.969  0.3668 -0.6167 -0.9456
  136OSM    C4F14813   1.435   0.220   7.057 -0.9321  0.2585  0.1143
  136OSM    H4F14814   1.385   0.127   7.092 -0.8849 -0.4302 -1.5583
  136OSM    H4G14815   1.355   0.288   7.019 -1.1853  0.3662  0.8282
  136OSM    C5F14816   1.522   0.290   7.162 -0.1266  0.7822  0.3749
  136OSM    H5F14817   1.443   0.335   7.226 -1.0387  0.3959 -0.4378
  136OSM    H5G14818   1.575   0.375   7.114  1.0706 -0.3716 -0.4031
  136OSM    C6F14819   1.619   0.199   7.236  0.3779 -0.5277  0.2026
  136OSM    H6F14820   1.697   0.182   7.158 -1.5240  0.6725 -2.1183
  136OSM    H6G14821   1.576   0.100   7.264  1.0389 -1.0563 -0.5976
  136OSM    C7F14822   1.678   0.274   7.358 -0.0062 -0.6643  0.3049
  136OSM    H7F14823   1.706   0.374   7.320  1.7096 -1.7653 -1.5283
  136OSM    H7G14824   1.775   0.223   7.379  1.6386  1.8671 -0.7118
  136OSM    C8F14825   1.581   0.280   7.472 -0.1190  0.4760 -0.4329
  136OSM    H8F14826   1.493   0.338   7.436 -1.5240 -1.3196 -0.0011
  136OSM    H8G14827   1.626   0.347   7.548  0.6909  0.2303 -0.6875
  136OSM    C9F14828   1.535   0.152   7.530 -0.2789  0.5312 -0.5272
  136OSM    H9F14829   1.475   0.102   7.452 -2.0421  1.4027  0.2122
  136OSM   C10F14830   1.557   0.097   7.653 -0.1651  0.6855 -0.2527
  136OSM   H10F14831   1.520  -0.005   7.671  2.6519 -0.2629  0.8024
  136OSM   C11F14832   1.633   0.161   7.763 -0.1547 -0.0536 -1.4081
  136OSM   H11F14833   1.654   0.269   7.743  1.0061  0.1120  0.4976
  136OSM   H11G14834   1.735   0.122   7.786  0.0481 -0.7079 -3.2261
  136OSM   C12F14835   1.544   0.172   7.890 -0.1986 -1.0752 -0.4557
  136OSM   H12F14836   1.513   0.068   7.914 -1.3745 -1.1883 -2.2745
  136OSM   H12G14837   1.447   0.223   7.875  0.3083 -0.8029 -3.3443
  136OSM   C13F14838   1.619   0.229   8.008 -0.4112 -0.4950 -0.1974
  136OSM   H13F14839   1.638   0.336   7.991  1.0256 -0.8784 -1.1391
  136OSM   H13G14840   1.721   0.187   8.018 -0.9451 -1.4536  1.9145
  136OSM   C14F14841   1.552   0.215   8.150  0.5737 -0.2691  0.0465
  136OSM   H14F14842   1.526   0.107   8.157  1.2097 -0.3318  2.0663
  136OSM   H14G14843   1.463   0.281   8.144 -0.5914 -1.7833  0.0296
  136OSM   C15F14844   1.656   0.247   8.266  0.4030 -0.1988 -0.5974
  136OSM   H15F14845   1.650   0.356   8.282 -1.7290 -0.2630 -0.6183
  136OSM   H15G14846   1.756   0.205   8.242  2.2122  2.1920  2.1634
  136OSM   C16F14847   1.618   0.198   8.407 -0.0148 -0.3317 -0.2778
  136OSM   H16F14848   1.631   0.088   8.413 -4.2328 -0.9633  1.8332
  136OSM   H16G14849   1.510   0.224   8.420  0.5076  1.1119  1.6290
  136OSM   C17F14850   1.692   0.253   8.534 -0.0519 -0.1583  0.9102
  136OSM   H17F14851   1.657   0.204   8.627 -1.5084 -3.3238 -1.1353
  136OSM   H17G14852   1.663   0.360   8.544  0.5088 -0.0840  1.8422
  136OSM   C18F14853   1.841   0.242   8.532 -0.3805 -0.5100 -0.7154
  136OSM   H18F14854   1.881   0.141   8.555  2.7589  0.5400 -1.1095
  136OSM   H18G14855   1.885   0.314   8.604 -1.7259 -0.8662  0.5101
  136OSM   H18H14856   1.887   0.256   8.432 -0.6800  1.9330 -0.5656
  137OSM      N14857   4.820   3.378   6.530  0.0278 -0.5658 -0.0780
  137OSM    C1514858   4.760   3.313   6.646  0.3313 -0.7042  0.1801
  137OSM   H15A14859   4.657   3.281   6.634  0.3797 -0.5612 -0.6713
  137OSM   H15B14860   4.763   3.374   6.734  1.8909 -0.8546  0.2546
  137OSM   H15C14861   4.803   3.218   6.675 -0.7760 -1.0122  0.8672
  137OSM    C1414862   4.968   3.398   6.540 -0.1521 -0.5166  0.5207
  137OSM   H14A14863   5.011   3.437   6.449 -0.6345 -2.6674 -0.7042
  137OSM   H14B14864   5.021   3.309   6.572  0.1698 -1.1283 -1.5357
  137OSM   H14C14865   4.980   3.479   6.610 -1.1429 -1.1781  1.4875
  137OSM    C1314866   4.799   3.281   6.415  0.0299 -0.5622  0.1704
  137OSM   H13A14867   4.880   3.209   6.412  0.3432 -0.2632  1.0972
  137OSM   H13B14868   4.809   3.328   6.319  0.6490 -0.1658  0.4285
  137OSM   H13C14869   4.701   3.235   6.414 -0.0929 -0.4044  1.9819
  137OSM    C1214870   4.740   3.503   6.496 -0.4569 -0.1097 -0.8109
  137OSM   H12A14871   4.645   3.469   6.459  1.0238 -0.7991 -4.4933
  137OSM   H12B14872   4.794   3.559   6.421  0.1106  2.2865  1.2143
  137OSM    C1114873   4.709   3.597   6.612 -0.2675 -0.1935  0.7637
  137OSM   H11A14874   4.663   3.547   6.700 -0.7390 -0.9555  0.0936
  137OSM   H11B14875   4.641   3.673   6.568 -0.9902 -0.9293  0.5931
  137OSM      P14876   4.915   3.768   6.612  0.5921  0.1435 -0.4105
  137OSM    O1314877   4.879   3.797   6.476  0.2976  0.3233 -0.1964
  137OSM    O1414878   4.902   3.875   6.715 -0.3342 -0.5741  0.0321
  137OSM    O1114879   5.052   3.690   6.615  0.3945  0.0217 -0.4827
  137OSM    O1214880   4.829   3.648   6.664 -0.5512  0.0985  0.3529
  137OSM    C1S14881   5.131   3.711   6.736  0.4448 -0.3787  0.4216
  137OSM    H1S14882   5.071   3.723   6.829  1.9357  1.2963  1.2341
  137OSM    H1T14883   5.187   3.806   6.727  0.2247 -0.3513 -0.6864
  137OSM     NF14884   5.292   3.580   6.894  0.2280 -0.3879  0.0114
  137OSM    HNF14885   5.385   3.615   6.899  0.5655 -1.0711 -1.0596
  137OSM    C2S14886   5.223   3.589   6.762  0.0518  0.1226 -0.2100
  137OSM    H2S14887   5.165   3.494   6.763 -1.8142  1.1938 -0.9659
  137OSM    C3S14888   5.320   3.580   6.641  0.0120 -0.1367  0.0005
  137OSM    H3S14889   5.381   3.673   6.650  1.2984 -1.0447  1.1341
  137OSM     O314890   5.255   3.582   6.515 -0.0505 -0.0788  0.4641
  137OSM    HO314891   5.163   3.600   6.538  0.5034 -0.0255  2.8852
  137OSM    C4S14892   5.410   3.459   6.662 -1.0092  0.0473  0.4065
  137OSM    H4S14893   5.482   3.482   6.742 -1.1171  2.7487 -0.1817
  137OSM    C5S14894   5.397   3.332   6.619  0.0185 -0.1940  0.2229
  137OSM    H5S14895   5.313   3.294   6.559  0.2905 -0.0096 -0.2803
  137OSM    C6S14896   5.502   3.234   6.667  0.0519  0.3302  0.3734
  137OSM    H6S14897   5.599   3.288   6.670  0.8221 -1.0348  1.8358
  137OSM    H6T14898   5.520   3.138   6.613 -0.6120 -0.2179  1.1020
  137OSM    C7S14899   5.491   3.200   6.819  0.1244  0.0502 -0.1396
  137OSM    H7S14900   5.418   3.118   6.836  2.4377 -1.9331  0.9216
  137OSM    H7T14901   5.471   3.282   6.890 -0.0513  0.6432 -0.8617
  137OSM    C8S14902   5.625   3.150   6.873 -0.1557  0.3556 -0.6216
  137OSM    H8S14903   5.691   3.239   6.881 -1.6199  1.4009  0.4932
  137OSM    H8T14904   5.677   3.084   6.801 -0.6561 -0.6849 -0.0627
  137OSM    C9S14905   5.610   3.074   7.005 -0.1099  0.1488 -0.1705
  137OSM    H9S14906   5.710   3.027   7.016 -1.1733 -1.5429  3.6913
  137OSM    H9T14907   5.539   2.994   6.973 -1.6246  1.7976 -1.1950
  137OSM   C10S14908   5.575   3.162   7.125  0.7431 -0.1190  0.3409
  137OSM   H10S14909   5.491   3.232   7.102 -0.1145 -1.3526 -0.4386
  137OSM   H10T14910   5.658   3.232   7.145 -0.2553  2.0886 -2.4719
  137OSM   C11S14911   5.537   3.073   7.248  0.1531  0.3306 -0.9373
  137OSM   H11S14912   5.616   2.995   7.251 -0.6132 -0.4251  0.1759
  137OSM   H11T14913   5.448   3.015   7.215 -0.4384 -0.8205  2.3348
  137OSM   C12S14914   5.540   3.147   7.372  0.1568  0.3640 -1.0840
  137OSM   H12S14915   5.501   3.250   7.361 -0.5519  0.2668  0.2242
  137OSM   H12T14916   5.648   3.158   7.393  0.2877  2.3158 -2.5730
  137OSM   C13S14917   5.462   3.076   7.490  0.8401  0.0892 -0.3297
  137OSM   H13S14918   5.490   2.969   7.500 -1.1593 -0.3287  1.7154
  137OSM   H13T14919   5.354   3.069   7.464 -0.8077 -0.5837  5.3084
  137OSM   C14S14920   5.478   3.145   7.630  0.2830 -0.2382  0.7253
  137OSM   H14S14921   5.458   3.254   7.628  1.1479 -0.0781  0.7096
  137OSM   H14T14922   5.586   3.148   7.653  0.2576 -1.1812  0.9915
  137OSM   C15S14923   5.406   3.076   7.739  0.0772 -0.6880 -1.1716
  137OSM   H15S14924   5.425   2.967   7.741  0.0438 -0.7024 -1.5560
  137OSM   H15T14925   5.296   3.090   7.730  0.1471  0.1772 -0.8388
  137OSM   C16S14926   5.449   3.142   7.875  0.6836 -0.1672 -0.0958
  137OSM   H16S14927   5.413   3.247   7.879 -0.5974 -0.5827 -0.4622
  137OSM   H16T14928   5.560   3.143   7.874  0.7511 -1.4724 -2.6143
  137OSM   C17S14929   5.397   3.076   8.011  0.4601 -0.5433  0.5933
  137OSM   H17S14930   5.458   2.983   8.019  1.9262  0.3115 -0.2479
  137OSM   H17T14931   5.291   3.050   7.989 -0.2037  2.0965  0.3548
  137OSM   C18S14932   5.405   3.175   8.125  0.3066  0.3230 -0.4906
  137OSM   H18S14933   5.513   3.183   8.151  0.4259  0.3801 -0.9896
  137OSM   H18T14934   5.347   3.130   8.208  0.8608 -0.4563 -0.5123
  137OSM   H18U14935   5.359   3.270   8.093 -0.7932  0.4259  1.2691
  137OSM    C1F14936   5.220   3.578   7.003 -0.6344  0.9439 -0.2075
  137OSM     OF14937   5.101   3.555   7.005 -0.3086 -0.4296  0.6190
  137OSM    C2F14938   5.295   3.593   7.131  0.5108 -0.1103  0.4636
  137OSM    H2F14939   5.363   3.681   7.129 -1.1470  1.2203  0.1318
  137OSM    H2G14940   5.358   3.503   7.139  2.3165  0.9984 -0.6058
  137OSM    C3F14941   5.200   3.597   7.257 -0.1798 -0.1484  0.6903
  137OSM    H3F14942   5.125   3.516   7.250 -1.5317  1.0266  1.0305
  137OSM    H3G14943   5.136   3.686   7.243 -0.9267 -0.6406  0.9464
  137OSM    C4F14944   5.262   3.615   7.402 -0.5817  0.4322  0.8408
  137OSM    H4F14945   5.356   3.674   7.396 -0.4126  0.1065  0.1025
  137OSM    H4G14946   5.285   3.509   7.424 -1.6123  0.4388  2.0429
  137OSM    C5F14947   5.166   3.650   7.512 -0.0467  0.1023 -0.9331
  137OSM    H5F14948   5.106   3.558   7.524 -0.3515  0.4632  0.4650
  137OSM    H5G14949   5.097   3.734   7.487 -0.4403  0.1831  0.3693
  137OSM    C6F14950   5.240   3.684   7.643  0.2573  0.7349 -0.2787
  137OSM    H6F14951   5.286   3.784   7.656 -0.9580  1.0871  1.8687
  137OSM    H6G14952   5.304   3.596   7.667 -3.8768 -2.8649 -1.1265
  137OSM    C7F14953   5.144   3.684   7.759 -0.0771 -0.4748  0.5042
  137OSM    H7F14954   5.080   3.594   7.768 -2.0855  0.8413  0.0313
  137OSM    H7G14955   5.074   3.769   7.742  1.2892  0.9494  1.7039
  137OSM    C8F14956   5.209   3.696   7.897 -0.6674 -0.2482 -0.1841
  137OSM    H8F14957   5.274   3.786   7.907 -2.2210  0.8078  0.9673
  137OSM    H8G14958   5.276   3.609   7.910  0.2216  0.0261 -2.5372
  137OSM    C9F14959   5.117   3.700   8.015 -0.1844 -0.0751 -0.3459
  137OSM    H9F14960   5.012   3.700   7.982 -0.2470  1.3648 -0.2085
  137OSM   C10F14961   5.160   3.727   8.142  0.2391 -0.3374  0.6517
  137OSM   H10F14962   5.084   3.728   8.221  0.4223  0.5195  0.8236
  137OSM   C11F14963   5.301   3.744   8.198 -0.1860  0.2460  0.4417
  137OSM   H11F14964   5.315   3.833   8.264  2.7168 -0.0561  0.3457
  137OSM   H11G14965   5.362   3.755   8.106 -1.8699 -0.3488 -0.7838
  137OSM   C12F14966   5.340   3.614   8.265 -0.3980 -0.6575 -0.1418
  137OSM   H12F14967   5.358   3.539   8.185  2.3336 -0.3162  0.0824
  137OSM   H12G14968   5.253   3.584   8.328 -1.4466 -0.1629 -1.3200
  137OSM   C13F14969   5.460   3.616   8.359  0.6793 -0.3861 -0.0314
  137OSM   H13F14970   5.428   3.658   8.457  1.0176 -0.7693  0.2502
  137OSM   H13G14971   5.542   3.669   8.307  0.6014  0.7077  0.9341
  137OSM   C14F14972   5.512   3.472   8.387  0.1827  0.4618  0.5187
  137OSM   H14F14973   5.553   3.424   8.295 -1.3146  1.5378 -0.7431
  137OSM   H14G14974   5.429   3.403   8.415  0.6646 -0.9126 -1.2130
  137OSM   C15F14975   5.611   3.470   8.509 -0.3243 -0.7984 -0.9161
  137OSM   H15F14976   5.564   3.522   8.595 -2.0641 -2.4319 -0.8232
  137OSM   H15G14977   5.710   3.510   8.478 -0.3974 -0.3352 -0.5517
  137OSM   C16F14978   5.639   3.321   8.561  0.2943 -0.8250 -0.4828
  137OSM   H16F14979   5.678   3.264   8.474  0.5964 -0.2985 -0.6945
  137OSM   H16G14980   5.541   3.277   8.592 -1.3284  1.3985 -2.0559
  137OSM   C17F14981   5.747   3.325   8.662  0.9372 -0.0806  0.0865
  137OSM   H17F14982   5.689   3.360   8.750 -1.9403 -0.8675 -1.3325
  137OSM   H17G14983   5.825   3.392   8.620  1.7896  0.2373  2.0903
  137OSM   C18F14984   5.824   3.191   8.690  0.0250  0.0128  0.5562
  137OSM   H18F14985   5.848   3.139   8.595 -1.3650 -0.0735  0.2192
  137OSM   H18G14986   5.764   3.116   8.745  1.3010 -0.7027  1.0033
  137OSM   H18H14987   5.916   3.210   8.749  2.0086 -1.0142 -2.0516
  138OSM      N14988   5.438   4.782   6.075 -0.4437 -0.3998  0.4262
  138OSM    C1514989   5.461   4.637   6.035 -0.1572 -0.4767  0.3659
  138OSM   H15A14990   5.566   4.612   6.027  0.7693  3.2846 -1.6590
  138OSM   H15B14991   5.409   4.616   5.942  1.5220 -1.7359 -0.3459
  138OSM   H15C14992   5.411   4.565   6.098 -0.2439  0.1223  0.9873
  138OSM    C1414993   5.292   4.814   6.065 -0.5240 -0.1364 -0.7544
  138OSM   H14A14994   5.270   4.919   6.063  0.2355  0.1410  2.0043
  138OSM   H14B14995   5.248   4.777   6.157  0.7552 -0.9787 -0.4576
  138OSM   H14C14996   5.239   4.762   5.986  0.0163 -2.3681  0.2639
  138OSM    C1314997   5.491   4.815   6.214 -0.1277 -0.8608 -0.2899
  138OSM   H13A14998   5.598   4.798   6.206  0.2928  0.3752  1.9610
  138OSM   H13B14999   5.458   4.743   6.288 -0.2284 -0.0415  0.4762
  138OSM   H13C15000   5.472   4.912   6.258 -1.1875 -1.5929  0.9301
  138OSM    C1215001   5.530   4.862   5.981  0.3133  0.2544  0.2272
  138OSM   H12A15002   5.514   4.965   6.007  2.4701  0.4388  1.0805
  138OSM   H12B15003   5.488   4.864   5.882 -1.2940  0.0382  0.8845
  138OSM    C1115004   5.686   4.844   5.968  0.0930  0.1761 -0.3952
  138OSM   H11A15005   5.720   4.928   5.904  2.0637  0.2559  0.6972
  138OSM   H11B15006   5.716   4.755   5.908  0.3450  0.5018 -0.7592
  138OSM      P15007   5.903   4.894   6.103 -0.4350  0.2699 -0.9653
  138OSM    O1315008   5.987   4.767   6.111  0.1359 -0.4040 -0.2449
  138OSM    O1415009   5.928   4.988   5.991  0.1575 -0.2923  0.0631
  138OSM    O1115010   5.911   4.982   6.234  0.3908  0.5940 -0.3827
  138OSM    O1215011   5.749   4.858   6.093 -0.0621  0.3173 -0.4595
  138OSM    C1S15012   5.856   4.913   6.350 -0.9050 -0.2968 -0.1897
  138OSM    H1S15013   5.923   4.831   6.385  0.8266  1.9460  2.0834
  138OSM    H1T15014   5.754   4.872   6.332 -1.5584  0.8031  0.8777
  138OSM     NF15015   5.799   4.908   6.581 -0.5726  0.1270  0.5089
  138OSM    HNF15016   5.703   4.895   6.605 -0.7085  0.4444  0.1329
  138OSM    C2S15017   5.834   5.004   6.479  0.3323 -0.2780 -0.3317
  138OSM    H2S15018   5.934   5.046   6.504  0.9800 -1.8902 -0.1255
  138OSM    C3S15019   5.730   5.112   6.453 -0.2224  0.2174 -0.1074
  138OSM    H3S15020   5.631   5.065   6.437 -0.5129  0.3664  1.1177
  138OSM     O315021   5.762   5.191   6.340 -0.1545 -0.7822  0.5133
  138OSM    HO315022   5.811   5.132   6.282 -1.0629 -1.4970  0.4605
  138OSM    C4S15023   5.712   5.203   6.567  0.2430 -0.3492 -0.2669
  138OSM    H4S15024   5.780   5.289   6.578 -1.5261  1.1887 -0.6395
  138OSM    C5S15025   5.609   5.204   6.654 -0.0789 -1.1258 -0.1469
  138OSM    H5S15026   5.531   5.130   6.632 -0.2254 -0.4228 -2.1558
  138OSM    C6S15027   5.588   5.302   6.772 -0.3919  0.2200  0.1416
  138OSM    H6S15028   5.508   5.257   6.834 -1.1327  0.4185 -0.6565
  138OSM    H6T15029   5.547   5.397   6.732  2.8149  1.4059 -0.7097
  138OSM    C7S15030   5.720   5.340   6.858  0.3536 -0.0511 -0.1307
  138OSM    H7S15031   5.784   5.406   6.795  1.8706 -2.2593 -1.0351
  138OSM    H7T15032   5.776   5.250   6.892  0.1671 -0.4727 -0.9197
  138OSM    C8S15033   5.685   5.415   6.982 -0.1085  0.8722 -0.8623
  138OSM    H8S15034   5.606   5.491   6.966 -2.9031 -1.6760 -0.0081
  138OSM    H8T15035   5.778   5.467   7.017  2.2137 -3.3488 -0.0255
  138OSM    C9S15036   5.648   5.313   7.088  0.2363  0.0453 -0.4589
  138OSM    H9S15037   5.724   5.232   7.091  0.1437 -0.0152  1.8936
  138OSM    H9T15038   5.553   5.260   7.062  0.8107 -0.4139 -1.6917
  138OSM   C10S15039   5.633   5.375   7.229 -0.1994  0.0291 -0.3655
  138OSM   H10S15040   5.558   5.457   7.228  1.7052  2.0020  2.6052
  138OSM   H10T15041   5.726   5.426   7.264 -0.1347 -1.3490  1.6326
  138OSM   C11S15042   5.607   5.281   7.340  0.3491  0.0547 -0.3638
  138OSM   H11S15043   5.693   5.213   7.355  2.0311  1.6982 -1.9161
  138OSM   H11T15044   5.509   5.230   7.336 -1.1222  2.6414  0.6376
  138OSM   C12S15045   5.595   5.367   7.474  0.3337 -0.4461  0.3103
  138OSM   H12S15046   5.513   5.441   7.464  0.3836  0.1659  3.5371
  138OSM   H12T15047   5.692   5.419   7.486  0.8243 -1.7351  2.4769
  138OSM   C13S15048   5.564   5.283   7.597 -0.2985 -0.2261  0.2077
  138OSM   H13S15049   5.461   5.241   7.596 -1.9889  3.5746 -0.0382
  138OSM   H13T15050   5.564   5.345   7.689  1.1156 -1.0742  0.8222
  138OSM   C14S15051   5.666   5.180   7.635 -0.6115  0.1857  0.2582
  138OSM   H14S15052   5.767   5.227   7.636 -0.5734  0.3685 -2.5585
  138OSM   H14T15053   5.670   5.098   7.560  0.6478  0.5681 -0.1174
  138OSM   C15S15054   5.646   5.127   7.777  0.5110 -0.4193 -0.1783
  138OSM   H15S15055   5.681   5.022   7.776 -0.5107 -0.7714 -0.2870
  138OSM   H15T15056   5.539   5.129   7.807  0.6589 -1.6360  0.4787
  138OSM   C16S15057   5.722   5.196   7.890  0.3446 -0.2033  0.6532
  138OSM   H16S15058   5.720   5.307   7.887 -1.0168 -0.2330 -0.4903
  138OSM   H16T15059   5.826   5.161   7.869  0.2639  0.7642 -1.5707
  138OSM   C17S15060   5.682   5.146   8.021  0.3773  0.1185 -0.0627
  138OSM   H17S15061   5.673   5.035   8.023  0.1278  0.1417  0.6377
  138OSM   H17T15062   5.584   5.194   8.043 -0.1618 -1.0833  0.2657
  138OSM   C18S15063   5.790   5.179   8.130 -0.4028 -0.3095  0.6699
  138OSM   H18S15064   5.830   5.282   8.116 -0.8813 -0.3141 -0.8182
  138OSM   H18T15065   5.863   5.096   8.143 -2.0893 -1.7042  1.8318
  138OSM   H18U15066   5.735   5.173   8.227 -0.3227 -2.8434  0.6205
  138OSM    C1F15067   5.892   4.838   6.640 -0.3208 -0.5721 -0.2624
  138OSM     OF15068   6.011   4.855   6.609 -0.0671 -0.5146  0.1235
  138OSM    C2F15069   5.858   4.741   6.741  0.9437  0.1238  0.3311
  138OSM    H2F15070   5.855   4.637   6.701 -0.2841  0.1125  0.4195
  138OSM    H2G15071   5.759   4.773   6.779  1.0484  1.0812 -0.1739
  138OSM    C3F15072   5.955   4.756   6.861  0.0719  0.1043  1.0563
  138OSM    H3F15073   5.944   4.860   6.901 -0.9137  1.2838 -2.0038
  138OSM    H3G15074   6.062   4.743   6.837 -0.3621 -0.2736 -0.7705
  138OSM    C4F15075   5.913   4.671   6.976 -0.6832 -0.2256 -0.6425
  138OSM    H4F15076   5.926   4.566   6.941 -2.8578 -0.7773 -0.0166
  138OSM    H4G15077   5.807   4.674   7.009 -0.0850 -1.6763  1.7090
  138OSM    C5F15078   6.009   4.689   7.097 -0.3949 -0.7422 -0.1398
  138OSM    H5F15079   6.016   4.795   7.130  1.6681 -1.2864  1.4236
  138OSM    H5G15080   6.106   4.676   7.044 -1.4331  0.0136 -2.3383
  138OSM    C6F15081   5.987   4.591   7.217  0.0982 -0.0673  0.1757
  138OSM    H6F15082   5.985   4.488   7.175 -1.1588 -0.3243  0.8166
  138OSM    H6G15083   5.893   4.612   7.272  0.3193  0.2958  0.4144
  138OSM    C7F15084   6.105   4.600   7.309  0.2364  0.8388 -0.4976
  138OSM    H7F15085   6.099   4.701   7.354  0.6565  0.8336 -0.4244
  138OSM    H7G15086   6.198   4.585   7.249  0.5274 -4.5778  0.8605
  138OSM    C8F15087   6.104   4.487   7.409 -0.4915 -0.5688 -0.2404
  138OSM    H8F15088   6.107   4.391   7.352 -0.1499  0.2418 -1.6368
  138OSM    H8G15089   5.997   4.490   7.440 -0.2752  0.4785  0.4591
  138OSM    C9F15090   6.200   4.507   7.520  0.1105 -0.4660  0.3320
  138OSM    H9F15091   6.218   4.613   7.544 -0.4995 -0.0375 -1.0096
  138OSM   C10F15092   6.262   4.430   7.603  0.0520  0.6731  0.2008
  138OSM   H10F15093   6.330   4.467   7.681 -0.4210 -0.1915  1.0526
  138OSM   C11F15094   6.243   4.278   7.583 -0.0522 -0.0052  0.5640
  138OSM   H11F15095   6.301   4.240   7.496 -0.6002 -0.5877  0.4373
  138OSM   H11G15096   6.138   4.252   7.555  0.5273 -0.2483 -1.5447
  138OSM   C12F15097   6.262   4.197   7.710  0.5478 -0.2811  0.6270
  138OSM   H12F15098   6.357   4.235   7.752  1.3192  1.4967 -2.3775
  138OSM   H12G15099   6.261   4.086   7.703  0.4689 -0.4090  2.3781
  138OSM   C13F15100   6.141   4.224   7.806  0.1504 -0.4368 -0.3121
  138OSM   H13F15101   6.044   4.204   7.754 -0.7226  0.7043  0.8265
  138OSM   H13G15102   6.117   4.327   7.838 -1.7635 -1.0702  0.4428
  138OSM   C14F15103   6.130   4.130   7.928 -0.4319 -0.3670  0.4296
  138OSM   H14F15104   6.033   4.155   7.977 -2.0163 -2.0059 -1.6605
  138OSM   H14G15105   6.216   4.150   7.995 -0.5130  2.3359 -0.1464
  138OSM   C15F15106   6.130   3.983   7.891  0.7762  0.3769 -0.2417
  138OSM   H15F15107   6.231   3.954   7.854 -0.0324 -1.1780 -1.3605
  138OSM   H15G15108   6.053   3.958   7.815 -0.4701 -0.0526  1.1191
  138OSM   C16F15109   6.108   3.895   8.014 -0.6387 -0.6718 -0.0365
  138OSM   H16F15110   6.007   3.915   8.054 -0.5162  0.3860 -0.2064
  138OSM   H16G15111   6.188   3.913   8.090 -0.5640 -1.2778  0.0335
  138OSM   C17F15112   6.120   3.747   7.984  0.1863  0.0148  0.1291
  138OSM   H17F15113   6.053   3.732   7.896  0.9953 -1.9147 -0.2136
  138OSM   H17G15114   6.077   3.685   8.066 -0.4074 -1.3566 -1.1786
  138OSM   C18F15115   6.261   3.694   7.941  0.0300 -0.6791 -0.2186
  138OSM   H18F15116   6.292   3.730   7.840 -1.7525  0.9362 -0.2757
  138OSM   H18G15117   6.257   3.584   7.947 -1.0048 -0.6298  0.2233
  138OSM   H18H15118   6.341   3.721   8.012  0.4809 -2.9090  0.1837
  139OSM      N15119   4.887   5.878   6.157 -0.2563  0.0094 -0.1586
  139OSM    C1515120   5.021   5.879   6.091 -0.0278 -0.5069  0.0494
  139OSM   H15A15121   5.094   5.913   6.163 -0.9866  1.9007 -0.0384
  139OSM   H15B15122   5.018   5.943   6.005  0.2811  1.7094  1.6053
  139OSM   H15C15123   5.051   5.779   6.061  0.9961 -0.2079  0.0269
  139OSM    C1415124   4.892   5.800   6.282  0.3809  0.4405  0.0248
  139OSM   H14A15125   4.895   5.694   6.262 -2.0498  0.6237 -1.7350
  139OSM   H14B15126   4.808   5.809   6.349  0.8518 -0.2634  0.7160
  139OSM   H14C15127   4.973   5.838   6.342  1.1517 -1.4728  0.2588
  139OSM    C1315128   4.856   6.010   6.183  0.4183 -0.4606 -1.1358
  139OSM   H13A15129   4.931   6.053   6.246  0.3474  1.5683 -2.3624
  139OSM   H13B15130   4.757   6.021   6.225  0.2930  0.5072 -1.6523
  139OSM   H13C15131   4.852   6.067   6.091 -0.1498 -1.5017 -1.7778
  139OSM    C1215132   4.779   5.825   6.052  0.2153  0.3009  0.1263
  139OSM   H12A15133   4.813   5.727   6.020  2.7070  0.6545  1.4000
  139OSM   H12B15134   4.773   5.891   5.967 -1.0646 -0.4214 -0.3716
  139OSM    C1115135   4.639   5.805   6.100  0.1178 -0.1792  0.2886
  139OSM   H11A15136   4.586   5.790   6.004 -0.7344  1.9641  0.3527
  139OSM   H11B15137   4.583   5.887   6.150  0.4571 -0.1046  0.5494
  139OSM      P15138   4.485   5.620   6.182  0.0734 -0.2010  0.0942
  139OSM    O1315139   4.384   5.702   6.109  0.4149  0.1019 -0.5958
  139OSM    O1415140   4.502   5.482   6.130 -0.3052 -0.4407  0.8224
  139OSM    O1115141   4.442   5.598   6.329  0.3973  0.3990 -0.2678
  139OSM    O1215142   4.629   5.687   6.183 -0.8210  0.6290  0.2571
  139OSM    C1S15143   4.542   5.600   6.433  0.0069  0.4244  0.0594
  139OSM    H1S15144   4.581   5.704   6.432 -1.0240  0.8271  0.4356
  139OSM    H1T15145   4.630   5.533   6.419 -2.5151 -2.9500 -0.9303
  139OSM     NF15146   4.551   5.646   6.680  0.2620 -0.6998 -0.0324
  139OSM    HNF15147   4.628   5.604   6.727 -0.6203  1.1372  3.4209
  139OSM    C2S15148   4.476   5.577   6.574  0.2101 -0.6460  0.7330
  139OSM    H2S15149   4.373   5.620   6.574 -0.1210 -0.9746 -3.7089
  139OSM    C3S15150   4.451   5.424   6.595 -0.7075  0.0245  0.3753
  139OSM    H3S15151   4.546   5.368   6.610 -0.9307 -0.3478  0.4253
  139OSM     O315152   4.391   5.361   6.488 -0.4612 -0.3328  0.4335
  139OSM    HO315153   4.377   5.436   6.429 -1.4923  1.2732  2.5745
  139OSM    C4S15154   4.377   5.388   6.723  0.2672  0.1786  0.0632
  139OSM    H4S15155   4.272   5.421   6.716 -0.1086 -0.8361  0.6494
  139OSM    C5S15156   4.413   5.310   6.829 -0.4290  0.2014 -0.3685
  139OSM    H5S15157   4.503   5.248   6.822 -1.8398 -1.7826 -3.5209
  139OSM    C6S15158   4.327   5.276   6.950  0.6738 -0.2274  0.2241
  139OSM    H6S15159   4.368   5.331   7.037 -0.7981  0.6681  0.3728
  139OSM    H6T15160   4.332   5.166   6.968 -1.1431 -0.2646  0.6511
  139OSM    C7S15161   4.175   5.303   6.932  0.3007 -0.4047 -0.9776
  139OSM    H7S15162   4.126   5.238   6.856 -2.4227  0.9191 -0.5003
  139OSM    H7T15163   4.156   5.408   6.901  0.8701 -0.2467 -0.7935
  139OSM    C8S15164   4.108   5.283   7.075  0.4627  1.0498  0.0845
  139OSM    H8S15165   4.171   5.346   7.142 -0.0346  0.6373  0.9559
  139OSM    H8T15166   4.120   5.178   7.109 -1.1514  1.1884  1.1542
  139OSM    C9S15167   3.962   5.311   7.091 -0.0742 -0.7712  0.1520
  139OSM    H9S15168   3.904   5.238   7.030 -1.0334  0.5932 -0.6209
  139OSM    H9T15169   3.942   5.410   7.046  4.4129 -0.5124 -1.8866
  139OSM   C10S15170   3.910   5.299   7.235  0.0862  0.0695 -0.3727
  139OSM   H10S15171   3.963   5.210   7.276 -1.0428 -0.0568  0.8910
  139OSM   H10T15172   3.800   5.284   7.231 -0.1490  1.7618 -1.3817
  139OSM   C11S15173   3.943   5.427   7.314 -0.2191  0.3997 -0.0833
  139OSM   H11S15174   3.918   5.513   7.248  0.1859  1.7917  1.4977
  139OSM   H11T15175   4.047   5.416   7.352  0.0484  0.1873 -0.8614
  139OSM   C12S15176   3.856   5.441   7.435 -0.1763  0.2978  0.0856
  139OSM   H12S15177   3.867   5.350   7.499  0.5857  0.2729 -0.0722
  139OSM   H12T15178   3.750   5.459   7.407 -0.8395 -0.3959  1.9782
  139OSM   C13S15179   3.911   5.549   7.530  0.0524 -0.0181 -0.7630
  139OSM   H13S15180   3.919   5.652   7.487 -2.0526 -0.2952 -1.9594
  139OSM   H13T15181   4.012   5.528   7.571 -0.9865  0.7026  2.4860
  139OSM   C14S15182   3.826   5.568   7.659  0.2134  0.2060  0.2923
  139OSM   H14S15183   3.787   5.466   7.682  1.9316 -0.2989  1.2533
  139OSM   H14T15184   3.735   5.630   7.653 -1.3657 -1.8706  1.3602
  139OSM   C15S15185   3.902   5.629   7.774 -0.1960  0.3775  0.1019
  139OSM   H15S15186   3.958   5.723   7.754  0.3931 -0.0413 -0.2705
  139OSM   H15T15187   3.975   5.550   7.800 -0.1766  0.9142  1.8025
  139OSM   C16S15188   3.810   5.640   7.897 -1.1957  0.6426 -0.8533
  139OSM   H16S15189   3.733   5.560   7.904  1.0061 -1.4474  1.3618
  139OSM   H16T15190   3.758   5.736   7.872 -0.8862  1.1014  0.2012
  139OSM   C17S15191   3.889   5.665   8.029 -0.7080 -0.2354  0.6389
  139OSM   H17S15192   3.927   5.768   8.010 -1.9001  0.4734  1.9277
  139OSM   H17T15193   3.974   5.595   8.033 -1.0280 -0.7077 -0.4939
  139OSM   C18S15194   3.808   5.649   8.156 -0.0075 -0.0088 -0.0208
  139OSM   H18S15195   3.714   5.709   8.152  0.1921  0.2648 -2.3990
  139OSM   H18T15196   3.865   5.697   8.239  1.9713 -0.0616 -1.2819
  139OSM   H18U15197   3.789   5.541   8.175  1.2712  0.2018  2.9120
  139OSM    C1F15198   4.553   5.778   6.697 -0.1457 -0.2544  0.1417
  139OSM     OF15199   4.487   5.851   6.616 -0.8137 -0.1775 -0.1082
  139OSM    C2F15200   4.636   5.843   6.796  0.1414 -0.2184 -0.7079
  139OSM    H2F15201   4.740   5.850   6.760  0.3719  1.1675  0.1345
  139OSM    H2G15202   4.630   5.785   6.891 -2.6559 -0.7676 -1.1227
  139OSM    C3F15203   4.591   5.992   6.827  0.0231  0.5125  0.5695
  139OSM    H3F15204   4.488   5.991   6.868  0.6235 -0.8005  2.1800
  139OSM    H3G15205   4.600   6.040   6.728 -2.9159 -1.7996 -0.9934
  139OSM    C4F15206   4.689   6.053   6.926 -0.4239 -1.2737  0.0333
  139OSM    H4F15207   4.791   6.039   6.882 -0.4279  1.2324 -0.9420
  139OSM    H4G15208   4.670   6.015   7.028  0.0318 -0.5019  0.4206
  139OSM    C5F15209   4.688   6.206   6.921  0.5395  0.1528 -0.3196
  139OSM    H5F15210   4.588   6.238   6.959  0.4694  2.6771 -2.3614
  139OSM    H5G15211   4.697   6.239   6.815 -1.3277  1.8138 -0.0358
  139OSM    C6F15212   4.797   6.273   7.004 -0.4401  0.2267 -0.0145
  139OSM    H6F15213   4.785   6.380   6.977  1.6734  0.2362 -1.1605
  139OSM    H6G15214   4.895   6.237   6.964  0.2270  0.2842  1.5140
  139OSM    C7F15215   4.782   6.257   7.149  0.9029 -0.3925  0.2415
  139OSM    H7F15216   4.847   6.317   7.217 -0.2167  0.1897  0.8305
  139OSM    H7G15217   4.807   6.150   7.169  0.9132 -0.3844  0.2718
  139OSM    C8F15218   4.636   6.279   7.206 -0.1282  0.2589 -0.3860
  139OSM    H8F15219   4.647   6.217   7.298 -0.0735 -1.8967 -1.7756
  139OSM    H8G15220   4.553   6.223   7.157 -1.5361  2.2785 -0.4486
  139OSM    C9F15221   4.612   6.426   7.223 -0.5864 -0.9349  0.0227
  139OSM    H9F15222   4.634   6.483   7.131  2.0087  0.9901  1.7054
  139OSM   C10F15223   4.559   6.487   7.329 -0.3880 -0.7756 -0.6536
  139OSM   H10F15224   4.551   6.595   7.346 -3.5919 -1.1683  1.1781
  139OSM   C11F15225   4.513   6.415   7.448 -0.5576 -0.6655 -0.4932
  139OSM   H11F15226   4.578   6.330   7.476  0.6209 -0.1316 -1.5098
  139OSM   H11G15227   4.408   6.381   7.446  0.3903 -4.3215  1.9752
  139OSM   C12F15228   4.538   6.497   7.575  0.2322 -0.1043 -0.0217
  139OSM   H12F15229   4.521   6.606   7.568 -0.1058 -0.0934  0.8212
  139OSM   H12G15230   4.649   6.489   7.584  0.5143  0.1014 -2.5342
  139OSM   C13F15231   4.471   6.446   7.706 -0.4299  0.4520  0.2642
  139OSM   H13F15232   4.511   6.506   7.790 -1.5195  0.3234  0.8964
  139OSM   H13G15233   4.463   6.337   7.729  1.4994 -0.2240 -1.9236
  139OSM   C14F15234   4.330   6.501   7.714 -0.6754  0.5405  1.2047
  139OSM   H14F15235   4.271   6.463   7.627 -0.8339  2.2066  0.5602
  139OSM   H14G15236   4.341   6.608   7.689  0.5884  0.0679 -0.4469
  139OSM   C15F15237   4.250   6.470   7.840  0.4093  0.5759  0.4436
  139OSM   H15F15238   4.237   6.360   7.849 -1.0542  0.3841 -2.7153
  139OSM   H15G15239   4.147   6.510   7.833  0.0306 -0.4962 -0.4562
  139OSM   C16F15240   4.309   6.529   7.971  0.0358 -0.1527 -0.5661
  139OSM   H16F15241   4.295   6.639   7.963  3.3260  0.5341  1.2507
  139OSM   H16G15242   4.418   6.528   7.991 -0.1847  1.3708  0.9740
  139OSM   C17F15243   4.229   6.478   8.092  0.1788  0.0685 -0.3187
  139OSM   H17F15244   4.127   6.457   8.053  0.8573  0.1254 -2.2206
  139OSM   H17G15245   4.226   6.559   8.167  2.8959  0.3212 -0.3564
  139OSM   C18F15246   4.277   6.351   8.166  0.0699 -0.7098  1.0265
  139OSM   H18F15247   4.195   6.319   8.233 -2.3446  0.3202 -1.2528
  139OSM   H18G15248   4.371   6.362   8.224 -0.4165  1.6313  1.4575
  139OSM   H18H15249   4.283   6.266   8.095 -1.3044  1.8376 -2.4557
  140OSM      N15250   4.291   0.390   6.279 -0.4365 -0.4453 -0.6005
  140OSM    C1515251   4.323   0.508   6.197 -0.0049 -0.0274 -0.3286
  140OSM   H15A15252   4.246   0.582   6.199  1.1360  1.1750  0.7351
  140OSM   H15B15253   4.349   0.479   6.096  1.2860 -1.9316  0.4699
  140OSM   H15C15254   4.418   0.542   6.235  1.0551 -3.0988  0.0982
  140OSM    C1415255   4.190   0.313   6.202  0.4735  0.5149 -0.5575
  140OSM   H14A15256   4.095   0.364   6.213  0.3991  1.1380 -3.3030
  140OSM   H14B15257   4.177   0.209   6.227  0.3486  0.6892  0.1052
  140OSM   H14C15258   4.210   0.313   6.095  0.0644 -0.3348 -0.6442
  140OSM    C1315259   4.413   0.312   6.281 -0.0525  0.1474 -0.0373
  140OSM   H13A15260   4.390   0.209   6.306  1.6196 -0.0519  0.8802
  140OSM   H13B15261   4.474   0.348   6.363  0.5141 -0.0172 -0.3799
  140OSM   H13C15262   4.459   0.309   6.183  3.3863  0.5878  1.4042
  140OSM    C1215263   4.224   0.438   6.408  0.1339  0.1754 -0.1969
  140OSM   H12A15264   4.183   0.356   6.465 -0.4021  1.5834  1.5314
  140OSM   H12B15265   4.143   0.503   6.377  0.7120  1.4595  0.8284
  140OSM    C1115266   4.319   0.524   6.496 -0.2116  0.0292 -0.9161
  140OSM   H11A15267   4.410   0.464   6.517  0.6317  1.6615  0.2742
  140OSM   H11B15268   4.269   0.549   6.592 -0.3594  3.9035 -1.8500
  140OSM      P15269   4.446   0.752   6.455  0.0147  0.1697 -0.0558
  140OSM    O1315270   4.572   0.725   6.384  0.0637 -0.3752  0.4261
  140OSM    O1415271   4.377   0.880   6.433  0.2390  0.1510 -0.5812
  140OSM    O1115272   4.478   0.737   6.610  0.3063  0.3086 -0.4208
  140OSM    O1215273   4.335   0.647   6.435 -0.1829 -0.4542 -0.5640
  140OSM    C1S15274   4.575   0.827   6.665 -0.0203 -0.0376  0.2889
  140OSM    H1S15275   4.568   0.927   6.616 -1.5887 -0.3797 -0.2532
  140OSM    H1T15276   4.679   0.794   6.649  0.6575  2.1761 -0.2470
  140OSM     NF15277   4.639   0.944   6.868  0.1780 -1.0747  0.5117
  140OSM    HNF15278   4.736   0.924   6.871  0.3481 -0.2257  0.8277
  140OSM    C2S15279   4.557   0.837   6.817  0.1727  0.1584  0.0227
  140OSM    H2S15280   4.451   0.858   6.839  0.1316  1.3900 -1.2232
  140OSM    C3S15281   4.588   0.703   6.877  0.1422 -0.0598  0.0764
  140OSM    H3S15282   4.675   0.653   6.830  0.2428 -0.9988  1.2132
  140OSM     O315283   4.487   0.603   6.853  0.1851 -0.4594 -0.5006
  140OSM    HO315284   4.443   0.641   6.777  2.2469  3.9084  0.1892
  140OSM    C4S15285   4.604   0.700   7.029 -0.2204  0.3621  0.1406
  140OSM    H4S15286   4.530   0.753   7.089 -0.1999  0.1629  0.3398
  140OSM    C5S15287   4.701   0.639   7.101 -1.0792 -0.0080 -0.7761
  140OSM    H5S15288   4.786   0.596   7.045 -0.2321  1.5859 -0.7758
  140OSM    C6S15289   4.710   0.637   7.251  0.4563  0.0011 -0.0939
  140OSM    H6S15290   4.666   0.732   7.287  0.5674 -0.6183  1.7565
  140OSM    H6T15291   4.818   0.646   7.275  0.6510 -0.4717 -0.7682
  140OSM    C7S15292   4.637   0.513   7.295 -0.5274 -0.5054  0.5661
  140OSM    H7S15293   4.673   0.423   7.240  0.4892  0.0298  0.3352
  140OSM    H7T15294   4.531   0.530   7.267 -0.7131 -1.2932  0.7664
  140OSM    C8S15295   4.638   0.484   7.446 -0.3603  0.5842 -0.1438
  140OSM    H8S15296   4.745   0.456   7.462 -0.3218  0.8279  0.0180
  140OSM    H8T15297   4.580   0.390   7.457 -0.7442  1.0079  1.7789
  140OSM    C9S15298   4.575   0.599   7.533  0.6803  0.1996  0.1650
  140OSM    H9S15299   4.485   0.559   7.585  1.3461 -0.2901  0.9787
  140OSM    H9T15300   4.531   0.674   7.464 -0.2209  1.0902  1.6440
  140OSM   C10S15301   4.652   0.658   7.646 -0.1471  0.1579 -0.0468
  140OSM   H10S15302   4.734   0.724   7.610 -0.5727 -0.7217 -2.8424
  140OSM   H10T15303   4.703   0.579   7.704 -0.9399  0.6992  1.4522
  140OSM   C11S15304   4.562   0.738   7.744 -0.1353  0.3032 -0.1595
  140OSM   H11S15305   4.478   0.674   7.778 -2.8147  3.2468 -0.7538
  140OSM   H11T15306   4.508   0.821   7.694 -1.5573  0.4707  1.5601
  140OSM   C12S15307   4.641   0.791   7.867 -0.6094 -0.4622  0.4173
  140OSM   H12S15308   4.714   0.870   7.839  0.0909 -1.6243 -1.1478
  140OSM   H12T15309   4.711   0.711   7.899 -0.5937  0.2179  2.1987
  140OSM   C13S15310   4.540   0.842   7.980 -0.2745 -0.0727  0.0280
  140OSM   H13S15311   4.484   0.752   8.014  0.7145 -1.3334 -1.5414
  140OSM   H13T15312   4.469   0.912   7.931 -0.8667 -0.2103  0.6716
  140OSM   C14S15313   4.608   0.914   8.097 -0.2723  0.4272 -0.2487
  140OSM   H14S15314   4.661   0.999   8.050  2.3703 -0.1021  1.5741
  140OSM   H14T15315   4.693   0.853   8.135  0.1071  1.3082  0.3363
  140OSM   C15S15316   4.506   0.967   8.200 -0.1244 -0.2714  0.5835
  140OSM   H15S15317   4.462   0.878   8.249 -0.3048 -1.2448 -1.2526
  140OSM   H15T15318   4.443   1.040   8.146  1.9892  0.4511 -1.0582
  140OSM   C16S15319   4.570   1.044   8.315 -1.1232  0.4291  0.4465
  140OSM   H16S15320   4.639   1.121   8.274 -1.4423 -0.8359 -2.7425
  140OSM   H16T15321   4.631   0.966   8.367 -0.1083  0.6046 -0.4397
  140OSM   C17S15322   4.473   1.108   8.413 -0.8460 -0.0244  1.1258
  140OSM   H17S15323   4.411   1.029   8.460 -1.5291  0.8459  1.7230
  140OSM   H17T15324   4.402   1.168   8.352 -1.0934 -0.2783  1.1627
  140OSM   C18S15325   4.544   1.197   8.515  0.0629 -0.1152 -0.0542
  140OSM   H18S15326   4.585   1.128   8.591 -0.5475 -0.7676 -0.3088
  140OSM   H18T15327   4.475   1.265   8.570 -1.2088 -1.3081 -0.1440
  140OSM   H18U15328   4.626   1.257   8.468 -1.0224  0.1175 -1.7179
  140OSM    C1F15329   4.593   1.070   6.858 -0.0933 -0.7607 -0.0735
  140OSM     OF15330   4.490   1.097   6.794 -0.6686  0.4076  0.1391
  140OSM    C2F15331   4.676   1.183   6.918  0.1294  0.1788  0.2257
  140OSM    H2F15332   4.699   1.255   6.837  2.5051 -0.7097  0.0176
  140OSM    H2G15333   4.776   1.147   6.952  0.7579  2.1659  0.6088
  140OSM    C3F15334   4.597   1.241   7.035  0.0226 -0.1836 -0.2054
  140OSM    H3F15335   4.490   1.266   7.024 -0.2172 -0.7775  0.6461
  140OSM    H3G15336   4.655   1.332   7.062  2.1309 -1.4178 -0.3401
  140OSM    C4F15337   4.600   1.136   7.156 -0.1756 -0.4110 -0.4559
  140OSM    H4F15338   4.702   1.116   7.196 -0.2190 -1.4776 -0.8479
  140OSM    H4G15339   4.544   1.045   7.125 -1.4805  0.6052 -1.2030
  140OSM    C5F15340   4.512   1.195   7.271 -0.2037 -0.2335 -0.1595
  140OSM    H5F15341   4.404   1.200   7.243 -0.2854 -0.1286  0.1589
  140OSM    H5G15342   4.537   1.302   7.290 -0.6407  0.0030 -0.8697
  140OSM    C6F15343   4.524   1.126   7.409  0.1450  0.4107  0.1890
  140OSM    H6F15344   4.633   1.115   7.427 -0.0842 -1.8451  0.5737
  140OSM    H6G15345   4.481   1.023   7.405  0.4470  0.0749  3.2525
  140OSM    C7F15346   4.459   1.200   7.534  0.0497  0.1680  0.0127
  140OSM    H7F15347   4.350   1.215   7.517 -0.3950 -0.0270  2.4442
  140OSM    H7G15348   4.503   1.302   7.532  0.2440  0.0780 -0.5688
  140OSM    C8F15349   4.490   1.126   7.667  0.0340  0.4065 -0.2247
  140OSM    H8F15350   4.597   1.095   7.678 -0.4793 -2.2735 -1.8631
  140OSM    H8G15351   4.429   1.034   7.676 -0.1217  0.4104 -1.1496
  140OSM    C9F15352   4.446   1.198   7.790 -0.0982 -0.9991 -0.2639
  140OSM    H9F15353   4.339   1.187   7.813 -0.4076 -1.2818 -1.7795
  140OSM   C10F15354   4.511   1.296   7.856  0.8744  0.2602 -0.3327
  140OSM   H10F15355   4.467   1.344   7.945  2.9002  2.3441 -0.3759
  140OSM   C11F15356   4.653   1.346   7.831  0.7008  0.2329  0.0517
  140OSM   H11F15357   4.653   1.454   7.802 -2.3944  0.6616  1.2567
  140OSM   H11G15358   4.710   1.288   7.755 -0.3204  1.8625 -2.1000
  140OSM   C12F15359   4.728   1.333   7.959  0.2973 -0.9156  0.0111
  140OSM   H12F15360   4.739   1.230   7.998  0.7231 -0.7371  0.3736
  140OSM   H12G15361   4.669   1.388   8.036  0.7282  0.4439 -0.6003
  140OSM   C13F15362   4.873   1.389   7.957 -0.1347  0.4750 -0.2310
  140OSM   H13F15363   4.876   1.500   7.950 -0.7702  0.5112  0.0010
  140OSM   H13G15364   4.922   1.359   7.862 -1.5949  1.9522 -1.5391
  140OSM   C14F15365   4.938   1.339   8.089 -0.2089  0.0596  0.5036
  140OSM   H14F15366   4.932   1.230   8.107 -3.0912  0.3793  2.1840
  140OSM   H14G15367   4.873   1.385   8.167  1.4043  4.5568 -0.5334
  140OSM   C15F15368   5.077   1.393   8.105  0.6340  0.5521 -0.1306
  140OSM   H15F15369   5.066   1.503   8.117  1.4524  0.6046  0.2089
  140OSM   H15G15370   5.134   1.388   8.010 -0.1706  0.2675 -0.6139
  140OSM   C16F15371   5.159   1.318   8.218 -0.0892 -0.5010 -0.0739
  140OSM   H16F15372   5.178   1.212   8.191 -2.0656 -1.2363  1.1873
  140OSM   H16G15373   5.079   1.325   8.296 -0.7832  1.4223 -0.8968
  140OSM   C17F15374   5.284   1.392   8.256  0.8279 -0.1745 -0.3697
  140OSM   H17F15375   5.259   1.499   8.273 -0.0285 -0.7638  2.6045
  140OSM   H17G15376   5.346   1.377   8.165  0.2773 -0.7354 -0.6527
  140OSM   C18F15377   5.343   1.332   8.389  0.3705 -1.0502  0.4184
  140OSM   H18F15378   5.363   1.225   8.368 -0.1454 -0.8938 -1.0027
  140OSM   H18G15379   5.266   1.350   8.467  0.2862  1.6422 -0.1744
  140OSM   H18H15380   5.443   1.369   8.421  0.8986 -2.9994  1.1313
  141OSM      N15381   3.967   3.328   6.002 -0.2834  0.2555 -0.0546
  141OSM    C1515382   4.009   3.367   5.862 -0.0783 -0.2975  0.7708
  141OSM   H15A15383   3.997   3.286   5.792  0.5468  0.5173 -0.3095
  141OSM   H15B15384   4.116   3.383   5.861  0.3956 -2.8922  0.2896
  141OSM   H15C15385   3.950   3.452   5.833  0.3371 -0.5879 -1.0601
  141OSM    C1415386   3.827   3.271   5.991  0.0340  0.4220 -0.2772
  141OSM   H14A15387   3.757   3.349   5.963  0.5802  0.5220 -1.4583
  141OSM   H14B15388   3.803   3.226   6.086 -0.3249  1.0418 -0.0687
  141OSM   H14C15389   3.825   3.193   5.916  0.2691 -1.3187  1.4619
  141OSM    C1315390   4.063   3.213   6.031 -0.1486  0.0249 -0.7125
  141OSM   H13A15391   4.035   3.174   6.127 -1.7089  1.5418 -0.4855
  141OSM   H13B15392   4.169   3.231   6.028 -0.2331  0.6418 -0.2857
  141OSM   H13C15393   4.034   3.136   5.961 -1.0878  0.3887 -0.7419
  141OSM    C1215394   3.976   3.435   6.110 -0.3674 -0.3684 -0.1394
  141OSM   H12A15395   3.900   3.511   6.099 -0.6727 -0.6310  0.1177
  141OSM   H12B15396   4.069   3.486   6.092 -1.6402  1.8208 -0.9495
  141OSM    C1115397   3.965   3.392   6.258  0.2870 -0.3683  0.3377
  141OSM   H11A15398   3.972   3.484   6.320 -1.1617  0.3054 -0.4544
  141OSM   H11B15399   4.058   3.332   6.273  1.0816  0.8288  0.3515
  141OSM      P15400   3.836   3.172   6.334  0.0483 -0.4390  0.4417
  141OSM    O1315401   3.697   3.118   6.304 -0.3641 -0.8354  0.1675
  141OSM    O1415402   3.945   3.098   6.279 -0.0034 -0.2977 -0.3694
  141OSM    O1115403   3.853   3.173   6.493  0.3390 -0.3228  0.0709
  141OSM    O1215404   3.842   3.328   6.291 -0.0178  0.4807  0.0170
  141OSM    C1S15405   3.960   3.241   6.561  0.9290 -0.1645 -0.0930
  141OSM    H1S15406   3.938   3.348   6.578 -0.7311 -0.8184  2.5243
  141OSM    H1T15407   4.053   3.228   6.502  0.0535  1.6812 -2.0293
  141OSM     NF15408   4.084   3.275   6.774 -0.3933 -1.1189  0.3256
  141OSM    HNF15409   4.176   3.237   6.774  0.1059 -0.0090 -1.0520
  141OSM    C2S15410   3.991   3.186   6.706 -0.1726  0.3924  0.5776
  141OSM    H2S15411   3.895   3.185   6.763 -1.0383  0.2104 -0.8262
  141OSM    C3S15412   4.037   3.033   6.710  0.8134  0.8339 -0.0214
  141OSM    H3S15413   4.138   3.028   6.665  0.0609  0.0403 -1.7132
  141OSM     O315414   3.961   2.950   6.630 -0.0018 -0.2394  0.1100
  141OSM    HO315415   3.907   3.018   6.589 -0.3916  0.4245  1.6396
  141OSM    C4S15416   4.045   2.987   6.853  0.0950 -0.7432  0.4067
  141OSM    H4S15417   4.147   2.960   6.883  0.7745  0.2942 -0.8653
  141OSM    C5S15418   3.957   2.959   6.952  0.1474  0.4148  0.7895
  141OSM    H5S15419   3.848   2.968   6.944  0.0647  0.4624  1.8801
  141OSM    C6S15420   3.997   2.913   7.089 -0.0194 -0.1182 -1.1447
  141OSM    H6S15421   4.101   2.873   7.090  0.5875  1.4154 -0.1030
  141OSM    H6T15422   3.931   2.828   7.121  0.4282 -0.5148 -1.2649
  141OSM    C7S15423   3.995   3.023   7.195  0.4825 -0.9806  0.6558
  141OSM    H7S15424   3.895   3.070   7.184  2.0138  2.4745  0.1629
  141OSM    H7T15425   4.068   3.105   7.183  0.0569 -0.7722 -0.7061
  141OSM    C8S15426   4.015   2.981   7.344  0.7040  0.0132 -0.8451
  141OSM    H8S15427   4.118   2.943   7.363 -0.1001 -1.6481  0.3724
  141OSM    H8T15428   3.949   2.896   7.369 -0.5128  1.0171 -0.5167
  141OSM    C9S15429   3.980   3.090   7.447 -0.4211  0.1734 -0.3352
  141OSM    H9S15430   3.881   3.138   7.431 -0.0679  1.1840  0.4219
  141OSM    H9T15431   4.057   3.168   7.429  1.1268 -0.9251  1.2418
  141OSM   C10S15432   4.010   3.064   7.595  0.3712 -0.1451 -0.1729
  141OSM   H10S15433   3.967   3.141   7.663 -1.3076  1.3860 -2.8064
  141OSM   H10T15434   4.120   3.076   7.605  0.4769 -0.7963 -0.4859
  141OSM   C11S15435   3.992   2.918   7.642 -0.5432  0.4078 -0.0953
  141OSM   H11S15436   4.059   2.861   7.574 -0.8762 -0.6562  0.4518
  141OSM   H11T15437   3.888   2.881   7.627  0.0182 -0.4511 -2.1925
  141OSM   C12S15438   4.044   2.886   7.787 -0.1192 -0.2748 -0.0207
  141OSM   H12S15439   4.153   2.894   7.806 -0.5933 -1.4637  4.0245
  141OSM   H12T15440   4.035   2.778   7.810 -0.8408 -0.3841 -0.7286
  141OSM   C13S15441   3.962   2.944   7.897 -0.1652 -0.3781 -0.2093
  141OSM   H13S15442   3.854   2.921   7.880 -0.0486 -2.2525  1.3083
  141OSM   H13T15443   3.979   3.053   7.909 -1.0720 -0.5065  3.4000
  141OSM   C14S15444   4.006   2.874   8.024 -0.4179  0.2598 -0.2169
  141OSM   H14S15445   4.115   2.885   8.042 -0.4217  0.0856 -0.0730
  141OSM   H14T15446   3.984   2.765   8.020  1.5460 -0.2372  1.1096
  141OSM   C15S15447   3.927   2.929   8.148  0.2207 -0.2311 -0.6349
  141OSM   H15S15448   3.824   2.888   8.149 -1.2243  2.9727  2.1653
  141OSM   H15T15449   3.914   3.039   8.151 -3.9505 -0.5473 -0.6578
  141OSM   C16S15450   3.981   2.897   8.289  0.6869  0.2847  0.8849
  141OSM   H16S15451   4.083   2.938   8.303  0.7906  0.3457  0.0040
  141OSM   H16T15452   3.972   2.786   8.297 -1.1066  0.4788  2.4338
  141OSM   C17S15453   3.876   2.941   8.391 -0.1150 -0.0725 -0.8446
  141OSM   H17S15454   3.776   2.899   8.368 -0.3378 -0.9938  1.5960
  141OSM   H17T15455   3.861   3.050   8.376 -2.2101  0.0479  1.4910
  141OSM   C18S15456   3.917   2.917   8.540 -0.1747  0.0314 -0.1781
  141OSM   H18S15457   3.910   2.808   8.561  0.1176  0.1445  0.5318
  141OSM   H18T15458   3.848   2.966   8.611 -1.6771 -1.8983 -0.2016
  141OSM   H18U15459   4.025   2.939   8.554 -0.6076  1.4122  1.2777
  141OSM    C1F15460   4.054   3.408   6.817  0.5234  0.3185  0.5683
  141OSM     OF15461   3.939   3.459   6.804 -0.0399 -0.4157 -0.2669
  141OSM    C2F15462   4.162   3.490   6.860 -0.0085 -0.4776  0.4621
  141OSM    H2F15463   4.139   3.588   6.813  0.7396 -0.8832 -0.7951
  141OSM    H2G15464   4.262   3.450   6.834  0.7780  2.3049 -1.2456
  141OSM    C3F15465   4.167   3.508   7.012  0.2117  0.0258  0.2232
  141OSM    H3F15466   4.096   3.586   7.047  0.1293 -0.9804  2.4723
  141OSM    H3G15467   4.267   3.551   7.034 -0.8852  2.0196  1.5986
  141OSM    C4F15468   4.157   3.367   7.081 -0.0756 -0.2704 -0.4617
  141OSM    H4F15469   4.214   3.299   7.015  2.4126  2.3000 -1.1569
  141OSM    H4G15470   4.056   3.320   7.076  0.4929 -1.4431 -1.5232
  141OSM    C5F15471   4.204   3.356   7.225 -0.5886  0.8459 -0.4433
  141OSM    H5F15472   4.303   3.400   7.249  0.5814 -2.7604  2.2365
  141OSM    H5G15473   4.231   3.249   7.243  0.8679  1.4209  1.0196
  141OSM    C6F15474   4.110   3.410   7.328  0.9253  0.1626  0.8012
  141OSM    H6F15475   4.009   3.363   7.331  0.5581  0.7673 -0.8815
  141OSM    H6G15476   4.096   3.514   7.293 -0.2161  0.0832  0.9628
  141OSM    C7F15477   4.163   3.405   7.476  0.3487 -0.3472  0.3683
  141OSM    H7F15478   4.262   3.453   7.459 -0.0312  0.2106 -0.3443
  141OSM    H7G15479   4.186   3.307   7.524 -0.9471 -0.6006  0.4897
  141OSM    C8F15480   4.080   3.489   7.576  0.6819 -0.0049 -0.2796
  141OSM    H8F15481   3.988   3.434   7.604 -0.0136  2.2215  2.2637
  141OSM    H8G15482   4.041   3.581   7.528 -1.5954  0.0192  1.4242
  141OSM    C9F15483   4.154   3.534   7.696 -0.3028  0.3127  0.0312
  141OSM    H9F15484   4.174   3.642   7.694 -2.9459  0.8869  0.6526
  141OSM   C10F15485   4.209   3.460   7.790 -0.3001 -0.0503 -0.1293
  141OSM   H10F15486   4.267   3.513   7.867  0.2922 -0.3603 -0.3631
  141OSM   C11F15487   4.215   3.309   7.808  0.1637 -0.6053 -0.6233
  141OSM   H11F15488   4.317   3.271   7.783  0.0938 -1.2954  0.1241
  141OSM   H11G15489   4.143   3.264   7.737 -2.1938  0.3348  1.0563
  141OSM   C12F15490   4.171   3.257   7.955 -0.4947  0.6146  0.2447
  141OSM   H12F15491   4.190   3.148   7.945 -0.4614  0.2138  3.6454
  141OSM   H12G15492   4.065   3.287   7.966 -1.2359 -2.1160  1.5080
  141OSM   C13F15493   4.262   3.301   8.069  0.0913 -0.2803 -0.1995
  141OSM   H13F15494   4.243   3.405   8.104 -1.9279 -1.7280  3.5837
  141OSM   H13G15495   4.368   3.279   8.043  0.1034 -2.3648  1.3903
  141OSM   C14F15496   4.234   3.205   8.192 -0.4260  0.0687  0.2224
  141OSM   H14F15497   4.252   3.096   8.179  0.2738  0.2867 -0.7378
  141OSM   H14G15498   4.123   3.216   8.201 -0.5403 -0.8617  0.1234
  141OSM   C15F15499   4.315   3.246   8.316  0.5208 -0.0270  0.3403
  141OSM   H15F15500   4.311   3.355   8.337 -0.3649 -0.0258  0.1958
  141OSM   H15G15501   4.420   3.220   8.291  0.3595  0.1772 -0.6099
  141OSM   C16F15502   4.275   3.164   8.438  0.2261 -0.2977  0.1096
  141OSM   H16F15503   4.257   3.059   8.408  0.1858  0.0237 -1.0336
  141OSM   H16G15504   4.172   3.203   8.449  0.5548  0.8407 -0.6516
  141OSM   C17F15505   4.372   3.177   8.546  0.2180  0.1311 -0.2591
  141OSM   H17F15506   4.370   3.280   8.588 -0.8216  0.2924 -0.6667
  141OSM   H17G15507   4.471   3.145   8.508 -0.6594 -2.4756 -0.5477
  141OSM   C18F15508   4.323   3.077   8.660 -0.0882 -0.6458 -0.0350
  141OSM   H18F15509   4.355   2.975   8.631 -1.6283 -1.0184 -0.5059
  141OSM   H18G15510   4.212   3.071   8.659 -0.2911  1.8223  0.5433
  141OSM   H18H15511   4.362   3.107   8.760 -2.3353  3.6098 -0.1739
  142OSM      N15512   5.304   3.893   6.257 -0.3719 -0.3500 -0.0566
  142OSM    C1515513   5.389   3.803   6.176 -0.4435 -0.0791 -0.0440
  142OSM   H15A15514   5.367   3.698   6.189  0.0393  0.1448  3.3931
  142OSM   H15B15515   5.494   3.808   6.199 -0.7732 -1.6581  2.0922
  142OSM   H15C15516   5.367   3.829   6.073  1.1413 -0.3965 -0.4844
  142OSM    C1415517   5.284   3.845   6.398 -0.5048  0.8858  0.8155
  142OSM   H14A15518   5.215   3.763   6.412  1.2470 -0.4808  1.8175
  142OSM   H14B15519   5.240   3.921   6.461 -2.0699  1.0355 -0.3975
  142OSM   H14C15520   5.378   3.811   6.438 -0.3216  0.0673 -0.2787
  142OSM    C1315521   5.383   4.022   6.265  0.1275 -0.4291  0.3479
  142OSM   H13A15522   5.423   4.046   6.168 -2.3631  1.4450 -0.3051
  142OSM   H13B15523   5.468   4.018   6.332 -0.0382  0.5448  0.6256
  142OSM   H13C15524   5.326   4.110   6.289  1.6154  0.6671  0.0166
  142OSM    C1215525   5.172   3.917   6.196  0.1667  0.2339  0.2003
  142OSM   H12A15526   5.137   3.815   6.190  1.3986 -0.4503  3.0237
  142OSM   H12B15527   5.188   3.945   6.092  1.6257 -0.9904  0.0669
  142OSM    C1115528   5.075   4.009   6.273  0.3618 -0.3297  0.7999
  142OSM   H11A15529   5.060   3.988   6.381 -3.0567 -0.3344  0.4272
  142OSM   H11B15530   4.973   3.993   6.234  0.1971  2.6093 -0.2509
  142OSM      P15531   5.054   4.264   6.330  0.1157  0.3099  0.2983
  142OSM    O1315532   5.103   4.391   6.279 -0.0232  0.8516 -0.5034
  142OSM    O1415533   4.907   4.238   6.340  0.3976  0.3784  0.8321
  142OSM    O1115534   5.119   4.227   6.472 -0.3441 -0.1805 -0.4596
  142OSM    O1215535   5.116   4.145   6.241  0.0148  0.1908  0.4215
  142OSM    C1S15536   5.082   4.302   6.587 -0.0409 -0.5025 -0.6111
  142OSM    H1S15537   4.986   4.359   6.585  0.4087  0.3808  1.1540
  142OSM    H1T15538   5.169   4.370   6.597 -1.2401  1.3701 -2.1435
  142OSM     NF15539   5.061   4.306   6.837 -0.3249  0.1562  0.2153
  142OSM    HNF15540   5.133   4.332   6.901 -0.1497  0.0024  0.0832
  142OSM    C2S15541   5.085   4.220   6.724 -0.0742  0.3672  0.8175
  142OSM    H2S15542   5.003   4.145   6.719 -1.1398  1.5031  0.8416
  142OSM    C3S15543   5.224   4.150   6.726 -0.0082 -0.1913  0.6310
  142OSM    H3S15544   5.297   4.233   6.728 -1.5662  1.2266  0.9849
  142OSM     O315545   5.257   4.068   6.617 -0.8818 -0.0102 -0.1534
  142OSM    HO315546   5.212   4.117   6.548 -1.4752  0.5224  0.5898
  142OSM    C4S15547   5.227   4.071   6.851 -0.1550 -0.3812  0.6473
  142OSM    H4S15548   5.149   3.995   6.844 -1.3862  0.8014  1.1594
  142OSM    C5S15549   5.312   4.064   6.958 -0.1382 -0.3596  0.6285
  142OSM    H5S15550   5.407   4.119   6.954 -1.2103  1.5520  0.2591
  142OSM    C6S15551   5.285   3.974   7.080  0.1124  0.5175 -0.4036
  142OSM    H6S15552   5.372   3.908   7.103  1.2395  2.4839  1.2920
  142OSM    H6T15553   5.192   3.917   7.058  0.2955  0.6370 -1.5725
  142OSM    C7S15554   5.287   4.065   7.205 -0.1131  0.2464  0.0417
  142OSM    H7S15555   5.211   4.144   7.214  0.9720  1.1287  1.8443
  142OSM    H7T15556   5.387   4.112   7.219  0.7768 -0.9409 -1.8089
  142OSM    C8S15557   5.273   3.975   7.326 -0.0371 -0.1638 -1.0662
  142OSM    H8S15558   5.365   3.917   7.352 -1.2757 -3.0676 -2.6274
  142OSM    H8T15559   5.201   3.891   7.315 -1.7929  1.1109  0.1965
  142OSM    C9S15560   5.229   4.048   7.453 -0.5798 -0.3445 -0.3826
  142OSM    H9S15561   5.177   3.972   7.517  0.8754 -0.2495  0.9867
  142OSM    H9T15562   5.166   4.138   7.436 -1.5835 -0.6911  1.1835
  142OSM   C10S15563   5.351   4.100   7.517  0.3351  0.0213 -0.7014
  142OSM   H10S15564   5.376   4.199   7.474 -2.5216  0.8466 -0.6961
  142OSM   H10T15565   5.438   4.032   7.512  0.3073 -0.2431  1.5807
  142OSM   C11S15566   5.306   4.130   7.660  0.5990 -0.0188  0.6956
  142OSM   H11S15567   5.260   4.037   7.698  0.7971 -0.1267  0.6750
  142OSM   H11T15568   5.228   4.207   7.644  1.4047  0.2279 -2.9734
  142OSM   C12S15569   5.414   4.174   7.759 -0.3643  0.5311  0.1694
  142OSM   H12S15570   5.465   4.267   7.726  0.6494  0.1029  0.4805
  142OSM   H12T15571   5.499   4.102   7.761  0.9102  2.0171  1.6037
  142OSM   C13S15572   5.365   4.183   7.905 -0.2146  0.2397 -0.4558
  142OSM   H13S15573   5.313   4.089   7.933 -0.5799  0.3308 -0.8281
  142OSM   H13T15574   5.284   4.259   7.912 -0.2444  0.1703 -0.0078
  142OSM   C14S15575   5.468   4.205   8.015  0.4616 -0.1541 -0.2929
  142OSM   H14S15576   5.508   4.307   8.003  0.8111 -0.2651 -0.0660
  142OSM   H14T15577   5.547   4.127   8.019  0.1420 -0.4378  2.1386
  142OSM   C15S15578   5.412   4.209   8.155  0.1014 -0.9683 -0.6274
  142OSM   H15S15579   5.353   4.120   8.186  0.4385 -0.5073  1.5027
  142OSM   H15T15580   5.335   4.290   8.158  1.4978  0.4446 -1.3450
  142OSM   C16S15581   5.525   4.225   8.261 -0.4781 -0.2400  0.4356
  142OSM   H16S15582   5.603   4.302   8.241  0.3342 -0.4484  2.5546
  142OSM   H16T15583   5.576   4.127   8.255  1.6778  0.8690 -0.9269
  142OSM   C17S15584   5.468   4.240   8.405  0.5937 -0.6157  0.0897
  142OSM   H17S15585   5.387   4.165   8.419 -0.8995  0.9375  0.0946
  142OSM   H17T15586   5.411   4.336   8.410 -0.4993 -1.1267 -1.6773
  142OSM   C18S15587   5.565   4.236   8.519 -0.3009  0.1497  0.3052
  142OSM   H18S15588   5.633   4.148   8.520 -0.5154 -0.1307 -2.4548
  142OSM   H18T15589   5.511   4.223   8.615  1.3230 -3.3689  0.8884
  142OSM   H18U15590   5.629   4.327   8.526  1.5670 -1.1542  0.7903
  142OSM    C1F15591   4.946   4.360   6.857  0.0798 -0.6760  0.1332
  142OSM     OF15592   4.850   4.322   6.796  0.2744  0.1163 -0.1656
  142OSM    C2F15593   4.953   4.487   6.944 -0.1922 -0.8873 -0.4555
  142OSM    H2F15594   5.029   4.541   6.883  1.6444 -3.1827 -0.3244
  142OSM    H2G15595   4.998   4.457   7.041 -3.1607 -3.9578  0.1322
  142OSM    C3F15596   4.816   4.567   6.950 -0.7479 -1.3012  0.5679
  142OSM    H3F15597   4.789   4.580   6.843  0.0083 -1.1414  0.3887
  142OSM    H3G15598   4.836   4.662   7.004  2.3224 -2.1547  1.1300
  142OSM    C4F15599   4.699   4.494   7.015 -0.0974 -0.0358 -0.6338
  142OSM    H4F15600   4.667   4.420   6.938  1.2398 -1.6226  0.2498
  142OSM    H4G15601   4.612   4.560   7.033 -0.3968 -0.6922  0.3705
  142OSM    C5F15602   4.739   4.430   7.152 -0.4017 -0.4813  0.2814
  142OSM    H5F15603   4.833   4.373   7.168  0.7588  1.5841  1.1455
  142OSM    H5G15604   4.659   4.355   7.170  0.9639 -1.2005  4.5483
  142OSM    C6F15605   4.741   4.536   7.263 -0.5505  0.1269  0.4322
  142OSM    H6F15606   4.642   4.586   7.268 -1.9657 -2.2610 -1.5829
  142OSM    H6G15607   4.818   4.612   7.236  1.6007 -2.5246 -1.4386
  142OSM    C7F15608   4.757   4.474   7.405  0.4143 -0.8549 -0.3621
  142OSM    H7F15609   4.855   4.422   7.414  0.3999 -0.6186  1.6608
  142OSM    H7G15610   4.677   4.400   7.427 -0.3481  0.0443 -0.0523
  142OSM    C8F15611   4.753   4.582   7.520 -0.0450 -0.7796  0.1659
  142OSM    H8F15612   4.765   4.534   7.620  0.1345  0.2723  0.6587
  142OSM    H8G15613   4.649   4.618   7.513 -0.6786 -2.6581 -0.8350
  142OSM    C9F15614   4.854   4.701   7.510 -0.2082 -0.0003  0.9475
  142OSM    H9F15615   4.941   4.674   7.448 -0.0883  1.8754  0.2271
  142OSM   C10F15616   4.844   4.827   7.560 -0.1386  0.1912  0.1021
  142OSM   H10F15617   4.929   4.896   7.547  0.2433 -0.1411  0.7855
  142OSM   C11F15618   4.737   4.889   7.642  0.2156  0.0621  0.0126
  142OSM   H11F15619   4.656   4.814   7.651 -1.1719  1.4502 -0.5920
  142OSM   H11G15620   4.681   4.973   7.597  0.6143 -0.0178 -0.6480
  142OSM   C12F15621   4.795   4.938   7.776 -0.1051  0.0078  0.2541
  142OSM   H12F15622   4.869   5.020   7.759 -1.7167  1.9652  2.0559
  142OSM   H12G15623   4.841   4.854   7.832  2.0202  0.7473 -0.2510
  142OSM   C13F15624   4.689   5.000   7.862 -0.0732  0.2019  0.1473
  142OSM   H13F15625   4.601   4.935   7.884  0.3178  0.3676  2.5067
  142OSM   H13G15626   4.657   5.095   7.815 -2.2980 -0.3714  0.3784
  142OSM   C14F15627   4.758   5.050   7.986 -0.0683 -0.4830  0.0789
  142OSM   H14F15628   4.856   5.099   7.970 -0.7967  0.2952 -2.4246
  142OSM   H14G15629   4.759   4.961   8.053 -1.2720 -0.1702  0.5320
  142OSM   C15F15630   4.672   5.166   8.054  0.2520 -0.9971 -0.3708
  142OSM   H15F15631   4.569   5.124   8.060 -1.2355  2.2927 -1.1324
  142OSM   H15G15632   4.671   5.253   7.985  1.0649 -2.2678 -2.0666
  142OSM   C16F15633   4.723   5.220   8.188  0.1439 -0.0782  0.2005
  142OSM   H16F15634   4.661   5.309   8.211  0.9477  1.1633 -2.1183
  142OSM   H16G15635   4.828   5.251   8.166  0.1245 -1.9414 -3.3347
  142OSM   C17F15636   4.709   5.121   8.305  0.9272  0.6302  0.3525
  142OSM   H17F15637   4.743   5.020   8.274  0.3374  0.6776 -0.4943
  142OSM   H17G15638   4.600   5.119   8.325  1.2234 -1.1588  2.1405
  142OSM   C18F15639   4.772   5.174   8.428 -0.1411  0.3922  0.3058
  142OSM   H18F15640   4.739   5.104   8.507 -2.4249 -0.1753 -1.0613
  142OSM   H18G15641   4.733   5.276   8.451  0.1245  0.3933  0.7511
  142OSM   H18H15642   4.880   5.190   8.410 -0.7446  4.6287 -0.8768
  143OSM      N15643   4.755   1.078   6.173 -0.4038 -0.0940 -0.3345
  143OSM    C1515644   4.759   1.216   6.236 -0.7048 -0.3341 -0.6314
  143OSM   H15A15645   4.832   1.212   6.316 -1.8983 -0.5897  0.4744
  143OSM   H15B15646   4.667   1.247   6.284  0.5036 -1.0275  2.3747
  143OSM   H15C15647   4.787   1.302   6.177 -3.4949  0.4621 -0.9177
  143OSM    C1415648   4.648   1.080   6.067 -0.2702  0.4798 -0.0263
  143OSM   H14A15649   4.686   1.130   5.979 -0.4902 -1.4301 -1.2628
  143OSM   H14B15650   4.557   1.131   6.096 -1.2361 -1.2235  0.0216
  143OSM   H14C15651   4.635   0.977   6.037  0.8684 -0.3205  1.9992
  143OSM    C1315652   4.892   1.056   6.112  0.1895  0.5132  0.1774
  143OSM   H13A15653   4.965   1.058   6.192 -0.8721 -1.4185  1.2638
  143OSM   H13B15654   4.917   1.130   6.037 -0.4756  0.4596 -0.1025
  143OSM   H13C15655   4.892   0.955   6.075 -0.4403 -0.8775  3.5929
  143OSM    C1215656   4.722   0.968   6.278  0.1042 -0.2936  0.0778
  143OSM   H12A15657   4.706   0.875   6.226  0.2629 -0.4119  0.2391
  143OSM   H12B15658   4.625   0.987   6.323  0.2381 -2.3864  1.4066
  143OSM    C1115659   4.809   0.943   6.410  0.0106 -0.4419 -0.1949
  143OSM   H11A15660   4.769   0.856   6.465  2.8012 -0.7623  1.5051
  143OSM   H11B15661   4.800   1.029   6.480 -0.5863  0.3502 -1.2039
  143OSM      P15662   5.011   0.790   6.350 -0.1381 -0.0358 -0.2332
  143OSM    O1315663   4.929   0.708   6.260  0.2530  0.1885  0.6621
  143OSM    O1415664   5.157   0.798   6.323 -0.5778  0.3638  0.4669
  143OSM    O1115665   4.998   0.722   6.491 -0.5942 -0.0773  0.2037
  143OSM    O1215666   4.945   0.929   6.371  0.6693 -0.1407 -0.5108
  143OSM    C1S15667   5.050   0.790   6.609  0.6793 -0.5842  0.2969
  143OSM    H1S15668   4.997   0.885   6.628  1.0339 -0.1526 -0.7682
  143OSM    H1T15669   5.156   0.822   6.596  0.4012 -0.0450 -0.7615
  143OSM     NF15670   5.085   0.782   6.837  0.3082 -0.4999  0.6126
  143OSM    HNF15671   5.183   0.772   6.850  0.0364 -2.1636  1.6019
  143OSM    C2S15672   5.039   0.702   6.735  0.3590  0.2997  0.8399
  143OSM    H2S15673   4.931   0.684   6.751 -0.0729  0.3686 -1.5650
  143OSM    C3S15674   5.110   0.567   6.727  0.2092  0.5823 -0.4822
  143OSM    H3S15675   5.220   0.571   6.732  0.3345  0.2799 -2.3098
  143OSM     O315676   5.077   0.489   6.606  0.2583 -0.5239 -0.6301
  143OSM    HO315677   5.053   0.557   6.543  2.0096  0.8510  0.0986
  143OSM    C4S15678   5.073   0.485   6.848  0.2101 -0.3011  0.3789
  143OSM    H4S15679   4.966   0.463   6.865  0.0813 -0.1746 -0.2358
  143OSM    C5S15680   5.159   0.446   6.943  0.2708 -0.1595 -1.0086
  143OSM    H5S15681   5.261   0.488   6.949  0.2369 -0.1866 -0.1484
  143OSM    C6S15682   5.122   0.366   7.072  0.2931 -0.1327  0.0770
  143OSM    H6S15683   5.190   0.286   7.108 -1.1266 -1.2976  0.2085
  143OSM    H6T15684   5.028   0.311   7.055  1.3343 -2.0215  0.2197
  143OSM    C7S15685   5.106   0.462   7.191 -0.0377 -0.0892 -0.9078
  143OSM    H7S15686   5.030   0.540   7.169 -0.7797 -0.8542 -1.1154
  143OSM    H7T15687   5.203   0.514   7.207 -0.1615 -0.3019  0.7705
  143OSM    C8S15688   5.064   0.395   7.328 -0.1691 -0.8177  0.6374
  143OSM    H8S15689   5.144   0.321   7.349  0.1706 -0.7571 -0.3918
  143OSM    H8T15690   4.966   0.350   7.302  0.3967 -2.4934  1.2961
  143OSM    C9S15691   5.057   0.500   7.436  0.2426  0.8385 -0.1270
  143OSM    H9S15692   4.977   0.576   7.422 -0.2607  0.7940  2.0753
  143OSM    H9T15693   5.162   0.536   7.445  1.6330 -1.9612 -3.3135
  143OSM   C10S15694   5.031   0.449   7.584 -0.2834  0.1657 -0.1650
  143OSM   H10S15695   5.108   0.374   7.611 -1.0061 -0.2086  0.9374
  143OSM   H10T15696   4.932   0.399   7.587  0.3191 -1.0448 -0.2074
  143OSM   C11S15697   5.024   0.564   7.688 -0.4053  0.3186 -0.5945
  143OSM   H11S15698   4.937   0.634   7.685 -2.5533 -2.0442  1.3267
  143OSM   H11T15699   5.116   0.623   7.668  0.9835 -2.0987 -1.7068
  143OSM   C12S15700   5.045   0.505   7.833  0.3059 -0.7025  0.3660
  143OSM   H12S15701   5.066   0.592   7.898 -3.0799 -1.1679  2.3189
  143OSM   H12T15702   5.126   0.428   7.835 -0.0357 -1.0581  0.8529
  143OSM   C13S15703   4.916   0.456   7.898 -0.2004 -0.2863  0.4274
  143OSM   H13S15704   4.894   0.355   7.859  2.6510 -0.6030 -0.6594
  143OSM   H13T15705   4.835   0.528   7.874  0.5912  0.9437  1.2851
  143OSM   C14S15706   4.938   0.452   8.052  0.4585 -0.4410  0.8688
  143OSM   H14S15707   4.969   0.554   8.083  3.0169 -1.1288  0.7372
  143OSM   H14T15708   5.020   0.383   8.080  2.0164 -0.0125 -2.3083
  143OSM   C15S15709   4.811   0.408   8.129 -0.4078 -0.2604 -0.7941
  143OSM   H15S15710   4.793   0.303   8.098 -1.1827 -0.1774 -0.6323
  143OSM   H15T15711   4.726   0.472   8.096  0.5282  1.8992  0.7521
  143OSM   C16S15712   4.812   0.419   8.285  0.5283  0.2288  0.0073
  143OSM   H16S15713   4.857   0.519   8.304  0.1423  0.2678  0.7624
  143OSM   H16T15714   4.873   0.339   8.333  0.3474  0.1169  0.0505
  143OSM   C17S15715   4.673   0.422   8.350  0.2779 -0.8506  0.4602
  143OSM   H17S15716   4.614   0.334   8.315  0.2879  0.2551 -2.6510
  143OSM   H17T15717   4.614   0.509   8.315  1.6130 -0.9129 -2.2333
  143OSM   C18S15718   4.671   0.414   8.502 -0.5394  0.0368 -0.7624
  143OSM   H18S15719   4.730   0.496   8.547  0.1196 -0.2230 -1.1332
  143OSM   H18T15720   4.720   0.318   8.531  1.1946  1.6865  2.2214
  143OSM   H18U15721   4.565   0.412   8.534 -0.5807 -1.3592 -0.8943
  143OSM    C1F15722   5.010   0.876   6.901  0.1733  0.0390  0.0363
  143OSM     OF15723   4.897   0.902   6.869  0.1429  0.5949 -0.7197
  143OSM    C2F15724   5.072   0.947   7.019 -0.1190  0.3281  0.5430
  143OSM    H2F15725   5.056   1.057   7.014 -0.5158  0.2314 -0.4987
  143OSM    H2G15726   5.180   0.919   7.021 -0.0029  0.7414  0.2203
  143OSM    C3F15727   5.006   0.904   7.151  0.1431  0.3880 -0.2607
  143OSM    H3F15728   5.015   0.794   7.161  0.2785  0.3696 -0.5790
  143OSM    H3G15729   4.897   0.920   7.138  0.2325  0.1807 -1.3382
  143OSM    C4F15730   5.063   0.966   7.282 -0.8179 -0.0962  0.4506
  143OSM    H4F15731   5.066   1.077   7.268  2.8085 -0.3651 -2.6218
  143OSM    H4G15732   5.161   0.916   7.298 -0.7670  0.3103  1.5596
  143OSM    C5F15733   4.972   0.928   7.392 -0.4901 -0.7318 -0.3720
  143OSM    H5F15734   4.990   0.828   7.439 -0.3102 -0.9300 -0.8583
  143OSM    H5G15735   4.870   0.949   7.354  0.2805  0.1732 -2.0318
  143OSM    C6F15736   5.007   1.017   7.519  0.7859 -0.2073  1.0339
  143OSM    H6F15737   4.926   1.001   7.593 -0.3687  1.1916  0.1217
  143OSM    H6G15738   5.005   1.123   7.485 -0.6742 -1.6500 -4.3099
  143OSM    C7F15739   5.143   0.985   7.580 -0.0030 -0.5398  0.3578
  143OSM    H7F15740   5.221   1.002   7.504 -0.3686 -1.3448 -0.2042
  143OSM    H7G15741   5.151   0.880   7.614 -0.2352  0.0397  2.3670
  143OSM    C8F15742   5.169   1.076   7.698  0.0260  0.4184 -0.3870
  143OSM    H8F15743   5.087   1.061   7.771 -0.5234 -1.0682 -1.2570
  143OSM    H8G15744   5.155   1.181   7.668  0.8926  1.1789  1.6636
  143OSM    C9F15745   5.309   1.066   7.747  0.6292  0.7549 -0.2949
  143OSM    H9F15746   5.391   1.079   7.675 -0.7738  0.0144 -2.1063
  143OSM   C10F15747   5.339   1.023   7.873  0.1869  0.6103 -0.7701
  143OSM   H10F15748   5.443   1.020   7.906 -0.1619  0.9656  0.4116
  143OSM   C11F15749   5.237   0.996   7.973  0.6774 -0.2876 -0.4017
  143OSM   H11F15750   5.168   1.083   7.967 -1.2296 -1.8048 -2.0183
  143OSM   H11G15751   5.290   0.997   8.071  2.4905  1.5464 -1.3357
  143OSM   C12F15752   5.152   0.866   7.964  0.2353 -0.9052  0.1912
  143OSM   H12F15753   5.227   0.786   7.980 -1.7467 -2.5565  1.7731
  143OSM   H12G15754   5.112   0.863   7.860 -0.6523  0.2894  0.4725
  143OSM   C13F15755   5.027   0.857   8.050  0.0470 -0.1625  0.2471
  143OSM   H13F15756   4.955   0.780   8.015  0.4353 -0.5881  0.3637
  143OSM   H13G15757   4.968   0.947   8.025  0.0657 -1.4125 -5.6621
  143OSM   C14F15758   5.056   0.841   8.200 -0.0638 -0.4058  0.0247
  143OSM   H14F15759   5.120   0.927   8.228  0.7025 -0.0920 -2.4641
  143OSM   H14G15760   5.109   0.746   8.223 -0.0593 -0.8704 -1.7907
  143OSM   C15F15761   4.927   0.834   8.291  0.2288 -0.1649  0.3201
  143OSM   H15F15762   4.861   0.754   8.252  0.2648  0.1775 -0.4676
  143OSM   H15G15763   4.875   0.930   8.271  0.3471 -0.6569 -3.0340
  143OSM   C16F15764   4.949   0.789   8.439 -0.6981  0.1292 -0.8299
  143OSM   H16F15765   5.005   0.693   8.439  0.3220  0.7003 -0.1289
  143OSM   H16G15766   4.854   0.775   8.494 -0.8322 -0.8814 -1.2909
  143OSM   C17F15767   5.003   0.899   8.531 -1.0882  0.4624  0.1157
  143OSM   H17F15768   5.105   0.922   8.495 -1.0831 -0.4044 -0.4406
  143OSM   H17G15769   5.018   0.855   8.632 -0.4452 -0.6650 -0.4554
  143OSM   C18F15770   4.912   1.020   8.545  0.7188  0.3365  0.2155
  143OSM   H18F15771   4.819   0.985   8.594  0.8754  0.4468  0.6025
  143OSM   H18G15772   4.896   1.066   8.445  1.1584 -1.3309 -0.6580
  143OSM   H18H15773   4.971   1.086   8.612  0.4396 -0.0899  0.8904
  144OSM      N15774   5.379   6.190   6.350 -0.1970 -0.4181  0.0563
  144OSM    C1515775   5.314   6.295   6.266 -0.0188 -0.2298 -0.1972
  144OSM   H15A15776   5.229   6.259   6.210  0.9947 -0.1851 -1.8479
  144OSM   H15B15777   5.391   6.325   6.196  0.6079 -0.3527  0.4223
  144OSM   H15C15778   5.289   6.380   6.328 -2.0634 -0.4299 -0.6877
  144OSM    C1415779   5.443   6.081   6.262  0.1679  0.2229  0.4887
  144OSM   H14A15780   5.522   6.119   6.198 -0.0645 -0.4162 -0.1941
  144OSM   H14B15781   5.373   6.040   6.191  1.3737  2.3679 -2.1018
  144OSM   H14C15782   5.480   6.002   6.326  1.1049 -1.3872 -1.9085
  144OSM    C1315783   5.487   6.250   6.431 -0.3671 -0.2251  0.3870
  144OSM   H13A15784   5.562   6.302   6.372  0.3020 -1.4030  0.1696
  144OSM   H13B15785   5.539   6.183   6.498 -0.5129 -1.7131 -0.9383
  144OSM   H13C15786   5.445   6.314   6.507  0.7894 -2.6578  3.3296
  144OSM    C1215787   5.279   6.124   6.436  0.0646  0.5759  0.0605
  144OSM   H12A15788   5.230   6.204   6.490 -1.7363  0.3593 -1.1491
  144OSM   H12B15789   5.328   6.060   6.508  1.8108  0.9133 -0.7923
  144OSM    C1115790   5.169   6.041   6.361 -0.1580 -0.0313 -0.3948
  144OSM   H11A15791   5.137   6.104   6.276 -2.9460  0.9251  1.2251
  144OSM   H11B15792   5.082   6.029   6.430  1.1006 -0.2873  1.2213
  144OSM      P15793   5.236   5.791   6.394 -0.1684 -0.3059 -0.3653
  144OSM    O1315794   5.243   5.679   6.302  0.0394 -0.1569 -0.2947
  144OSM    O1415795   5.356   5.823   6.477 -0.0903  0.0675  0.0942
  144OSM    O1115796   5.100   5.790   6.479  0.5215 -0.0764 -0.4221
  144OSM    O1215797   5.214   5.920   6.306 -0.2863 -0.3643  0.1862
  144OSM    C1S15798   5.069   5.688   6.571  0.0266  0.0377 -0.8136
  144OSM    H1S15799   5.108   5.586   6.548 -2.3177 -1.9206  2.9190
  144OSM    H1T15800   4.959   5.678   6.579  0.1342 -0.4198  0.1738
  144OSM     NF15801   5.119   5.620   6.795  0.3913 -0.4160  0.3876
  144OSM    HNF15802   5.029   5.592   6.829 -0.7022 -1.2939 -2.8798
  144OSM    C2S15803   5.116   5.743   6.706 -0.2741 -0.2098  0.3313
  144OSM    H2S15804   5.218   5.787   6.705 -0.6807  0.7876  0.8457
  144OSM    C3S15805   5.017   5.843   6.767  0.4263 -0.1961  0.4123
  144OSM    H3S15806   4.926   5.788   6.800  0.0267  0.1084 -0.1807
  144OSM     O315807   4.961   5.938   6.679 -0.1563 -0.2229  0.3987
  144OSM    HO315808   4.976   5.902   6.591 -1.2711 -0.6589  0.3626
  144OSM    C4S15809   5.074   5.910   6.891  0.4981 -0.0942 -0.4925
  144OSM    H4S15810   5.093   5.831   6.965  0.9647  0.1643 -0.3351
  144OSM    C5S15811   5.115   6.037   6.906 -0.5707 -0.4068 -0.5085
  144OSM    H5S15812   5.098   6.103   6.820  0.4361  1.2247  0.5004
  144OSM    C6S15813   5.171   6.105   7.030 -0.0459  0.5934  0.1562
  144OSM    H6S15814   5.098   6.181   7.065  1.3235  1.7846  0.5416
  144OSM    H6T15815   5.262   6.166   7.014  0.6560 -0.1737  1.1252
  144OSM    C7S15816   5.190   6.001   7.141 -0.2586 -0.1880 -0.7035
  144OSM    H7S15817   5.244   5.909   7.110  3.5167  1.4962  0.3437
  144OSM    H7T15818   5.089   5.979   7.182 -1.8355  2.0936 -3.0571
  144OSM    C8S15819   5.274   6.068   7.247  0.6431 -0.1543 -0.4187
  144OSM    H8S15820   5.245   6.173   7.266  0.7993 -0.1252 -0.3382
  144OSM    H8T15821   5.377   6.070   7.206  1.0422  0.4420  0.5845
  144OSM    C9S15822   5.270   5.989   7.378  0.6264  0.1748  0.1204
  144OSM    H9S15823   5.357   6.046   7.418 -0.2696  0.6797  1.4222
  144OSM    H9T15824   5.303   5.883   7.376 -1.4488 -0.5124 -0.7827
  144OSM   C10S15825   5.142   6.015   7.469 -0.1578 -0.3308 -0.4872
  144OSM   H10S15826   5.168   5.966   7.565  1.8531 -0.0487 -0.8343
  144OSM   H10T15827   5.058   5.960   7.420 -0.6855  1.0797 -1.2125
  144OSM   C11S15828   5.091   6.160   7.489 -0.2579  0.2400 -0.3624
  144OSM   H11S15829   5.061   6.207   7.393 -3.6446  1.5306  1.1807
  144OSM   H11T15830   5.172   6.223   7.532 -1.3830  1.0716  0.6262
  144OSM   C12S15831   4.976   6.188   7.589  0.0023  0.2423 -0.7674
  144OSM   H12S15832   4.957   6.297   7.583  0.0326  0.4034  1.3342
  144OSM   H12T15833   5.010   6.167   7.693  0.0505 -0.4177 -0.9176
  144OSM   C13S15834   4.845   6.103   7.562 -0.3677 -0.1387  0.2736
  144OSM   H13S15835   4.897   6.006   7.570  0.3317  0.1156 -0.9259
  144OSM   H13T15836   4.814   6.106   7.455 -0.1644  3.7426  0.1802
  144OSM   C14S15837   4.734   6.106   7.667 -0.1429 -0.5925  0.0283
  144OSM   H14S15838   4.658   6.028   7.644  0.2201 -0.9940  0.1718
  144OSM   H14T15839   4.676   6.200   7.656  0.0133 -0.6020 -0.9150
  144OSM   C15S15840   4.796   6.101   7.812  0.3317  0.1975 -0.0772
  144OSM   H15S15841   4.858   6.191   7.827 -0.1148  0.7877 -1.5660
  144OSM   H15T15842   4.864   6.013   7.817 -0.2869 -0.2738  0.1481
  144OSM   C16S15843   4.692   6.093   7.921  0.0597 -0.2125 -0.0254
  144OSM   H16S15844   4.637   5.997   7.920  0.5526 -0.4985  0.2059
  144OSM   H16T15845   4.609   6.168   7.913  0.5804  0.2006 -2.0829
  144OSM   C17S15846   4.762   6.101   8.057 -0.9233 -0.5223  0.3722
  144OSM   H17S15847   4.811   6.199   8.076 -1.7098 -0.3887  1.8682
  144OSM   H17T15848   4.841   6.023   8.052  0.8360  1.2753 -1.5925
  144OSM   C18S15849   4.670   6.071   8.179  0.7073 -0.3350  0.2730
  144OSM   H18S15850   4.585   6.141   8.187  1.0815  0.2772 -0.8487
  144OSM   H18T15851   4.723   6.066   8.276  3.5975 -1.5188 -1.2214
  144OSM   H18U15852   4.630   5.968   8.167 -3.2026  0.9277  0.9995
  144OSM    C1F15853   5.225   5.538   6.794 -0.4594 -0.0925  0.2791
  144OSM     OF15854   5.316   5.548   6.712  0.0239 -0.2394  0.3021
  144OSM    C2F15855   5.235   5.429   6.898 -0.5445  0.2959 -0.2702
  144OSM    H2F15856   5.297   5.345   6.860  1.2177  1.6359 -0.4598
  144OSM    H2G15857   5.130   5.399   6.917  0.3113 -2.4773  0.6739
  144OSM    C3F15858   5.300   5.470   7.031 -0.5232 -0.1970  0.1954
  144OSM    H3F15859   5.393   5.525   7.007 -0.6409 -0.9328 -2.1910
  144OSM    H3G15860   5.326   5.378   7.089 -1.0311  0.0392  0.8035
  144OSM    C4F15861   5.197   5.543   7.119  0.5587 -0.4333 -0.6240
  144OSM    H4F15862   5.102   5.486   7.114 -0.2299  0.7408  0.4607
  144OSM    H4G15863   5.173   5.641   7.074 -0.8158  0.1832  1.3294
  144OSM    C5F15864   5.226   5.563   7.268 -0.3239  0.3479  0.4692
  144OSM    H5F15865   5.313   5.633   7.269 -0.0481  0.0273 -0.0869
  144OSM    H5G15866   5.270   5.467   7.304 -0.1034  0.6183  0.9301
  144OSM    C6F15867   5.115   5.608   7.359  0.6655  1.0459 -0.9217
  144OSM    H6F15868   5.029   5.539   7.346  0.9152  0.4337  0.4345
  144OSM    H6G15869   5.087   5.713   7.336 -2.5379 -0.1012 -2.9124
  144OSM    C7F15870   5.158   5.593   7.507 -0.5663  1.1709 -0.2535
  144OSM    H7F15871   5.246   5.659   7.524 -0.2579  0.2815  2.0235
  144OSM    H7G15872   5.207   5.494   7.521 -1.9759 -0.0222 -2.9882
  144OSM    C8F15873   5.044   5.616   7.609 -0.7008 -0.9191  0.3893
  144OSM    H8F15874   4.979   5.688   7.554  0.2185  1.0403  1.7697
  144OSM    H8G15875   5.090   5.672   7.693  1.8585 -0.1500 -1.3914
  144OSM    C9F15876   4.964   5.491   7.642 -0.2195 -0.0581 -0.4179
  144OSM    H9F15877   4.918   5.449   7.551 -0.7167 -0.5658  0.0628
  144OSM   C10F15878   4.946   5.421   7.752 -0.2771 -0.4476  0.0090
  144OSM   H10F15879   4.886   5.329   7.745 -0.9872  0.0904 -1.2288
  144OSM   C11F15880   5.023   5.465   7.878 -0.7597 -0.0117  0.3928
  144OSM   H11F15881   4.979   5.411   7.965 -1.2213  3.8059  2.7353
  144OSM   H11G15882   5.014   5.574   7.898 -1.8607 -0.3146  1.7222
  144OSM   C12F15883   5.173   5.433   7.886  0.1002  0.1056 -0.1701
  144OSM   H12F15884   5.229   5.492   7.961  1.7033 -1.1361 -0.3548
  144OSM   H12G15885   5.222   5.464   7.791  0.1465  0.0734 -0.1569
  144OSM   C13F15886   5.200   5.286   7.907 -0.1992  0.7546  0.3142
  144OSM   H13F15887   5.310   5.281   7.894 -0.1476 -1.6186  1.1397
  144OSM   H13G15888   5.155   5.235   7.819  2.0803 -0.3635 -0.2695
  144OSM   C14F15889   5.152   5.220   8.035  0.0833  0.6613 -0.6459
  144OSM   H14F15890   5.043   5.241   8.047  0.0495  0.1828 -0.0503
  144OSM   H14G15891   5.205   5.258   8.124  0.3511 -2.9603  0.9131
  144OSM   C15F15892   5.168   5.068   8.037 -0.1403 -0.5212 -0.0123
  144OSM   H15F15893   5.077   5.023   7.991 -0.4340  1.4102 -1.4961
  144OSM   H15G15894   5.161   5.049   8.146 -1.5358 -1.3854 -0.2281
  144OSM   C16F15895   5.299   5.025   7.973  0.8859 -0.3272 -1.0792
  144OSM   H16F15896   5.389   5.079   8.011 -1.5329  3.6286 -0.4176
  144OSM   H16G15897   5.284   5.067   7.871 -3.2202 -2.4431 -1.5653
  144OSM   C17F15898   5.313   4.874   7.965 -0.1795  0.8435 -0.3327
  144OSM   H17F15899   5.244   4.839   7.885 -1.9380  2.5408  0.3417
  144OSM   H17G15900   5.287   4.826   8.062 -1.0009  2.0708  0.0796
  144OSM   C18F15901   5.462   4.846   7.925  0.1498 -0.0347 -0.8469
  144OSM   H18F15902   5.526   4.908   7.992 -2.3357 -1.6468  3.3856
  144OSM   H18G15903   5.488   4.890   7.826  0.8701 -0.0284 -0.6617
  144OSM   H18H15904   5.486   4.738   7.937 -0.0633  0.1240  1.3766
  145SAPE     N15905   4.639   0.033  10.951  0.3209  0.3071  0.0762
  145SAPE   HN115906   4.575   0.111  10.926  0.6063  0.3048 -0.6945
  145SAPE   HN215907   4.584  -0.029  11.013  0.5331  1.1816  1.1687
  145SAPE   HN315908   4.717   0.072  11.008  0.0889 -0.4722  0.9405
  145SAPE   C1215909   4.674  -0.050  10.830 -0.1010  0.1749 -0.5479
  145SAPE  H12A15910   4.580  -0.065  10.771 -0.8408 -0.5818  0.7846
  145SAPE  H12B15911   4.694  -0.152  10.867 -1.3602 -0.2095 -0.8610
  145SAPE   C1115912   4.783   0.012  10.756 -0.1989 -0.1961  0.6490
  145SAPE  H11A15913   4.820  -0.058  10.679  0.3907 -0.6233  1.3071
  145SAPE  H11B15914   4.870   0.009  10.825 -1.1943 -1.2938  1.8929
  145SAPE     P15915   4.865   0.230  10.637  0.1087 -0.6156  0.1466
  145SAPE   O1315916   4.929   0.317  10.742 -0.3470 -0.2008  0.3178
  145SAPE   O1415917   4.957   0.139  10.564  0.1398 -0.1814  0.1571
  145SAPE   O1215918   4.759   0.142  10.714  0.2519  0.0137  0.5048
  145SAPE   O1115919   4.779   0.312  10.532  0.7880  0.0261 -0.4365
  145SAPE    C115920   4.760   0.451  10.536  0.9909 -0.2470 -0.2426
  145SAPE    HA15921   4.656   0.470  10.502  0.6800  0.3665  1.0014
  145SAPE    HB15922   4.780   0.489  10.639 -0.4225 -0.3464  0.0816
  145SAPE    C215923   4.856   0.520  10.438  0.1344  0.3013 -0.5582
  145SAPE    HS15924   4.962   0.485  10.441  0.2972  0.7687 -0.6779
  145SAPE   O2115925   4.855   0.664  10.457 -0.0520 -0.4549 -0.0525
  145SAPE   C2115926   4.964   0.730  10.420 -0.0332 -0.2197  0.0378
  145SAPE   O2215927   5.069   0.675  10.381  0.2948 -0.2286 -0.9703
  145SAPE   C2215928   4.944   0.879  10.428 -0.5046  0.4933 -0.2365
  145SAPE   H2R15929   4.847   0.905  10.381 -0.3511 -1.7119 -1.9644
  145SAPE   H2S15930   4.950   0.911  10.534 -0.9759  0.7277 -0.2821
  145SAPE    C315931   4.802   0.493  10.297  0.1597 -0.4216  0.2224
  145SAPE    HX15932   4.714   0.558  10.282  1.0051  0.8383  0.5935
  145SAPE    HY15933   4.750   0.396  10.280  0.0218 -0.5415  1.2487
  145SAPE   O3115934   4.901   0.524  10.193  0.1972  0.2350  0.1203
  145SAPE   C3115935   5.005   0.434  10.190  0.9736 -0.2832  0.2290
  145SAPE   O3215936   5.003   0.327  10.244 -0.2552  0.1293 -0.5772
  145SAPE   C3215937   5.110   0.493  10.098 -0.5401  1.3801  0.4313
  145SAPE   H2X15938   5.209   0.445  10.114 -1.3246 -0.2543  0.6280
  145SAPE   H2Y15939   5.124   0.600  10.125  0.8345  1.1544  0.7160
  145SAPE   C2315940   5.049   0.956  10.339  0.0443 -0.8914 -1.1131
  145SAPE   H3R15941   5.037   0.924  10.233 -2.9781 -1.6055 -0.6661
  145SAPE   H3S15942   5.153   0.932  10.368 -0.1293 -0.4401 -0.0759
  145SAPE   C2415943   5.021   1.106  10.368  0.1896 -0.1972  0.2424
  145SAPE   H4R15944   5.084   1.166  10.298  0.4209 -1.7436 -0.9333
  145SAPE   H4S15945   5.047   1.134  10.472 -1.3693 -0.4611  0.7319
  145SAPE   C2515946   4.879   1.152  10.344  0.7073  0.1809  0.7253
  145SAPE   H5R15947   4.818   1.164  10.434 -2.0201 -2.5320 -0.5919
  145SAPE   C2615948   4.814   1.177  10.230  0.6931  0.1066  0.5098
  145SAPE   H6R15949   4.718   1.231  10.233  0.7297  0.1620  0.6559
  145SAPE   C2715950   4.865   1.162  10.088  0.1428  0.0623 -0.0352
  145SAPE   H7R15951   4.926   1.071  10.070  1.7082  0.8562  1.0465
  145SAPE   H7S15952   4.945   1.238  10.076  0.0689  0.2686  0.7623
  145SAPE   C2815953   4.769   1.184   9.974  0.3057  0.2251 -0.7176
  145SAPE   H8R15954   4.668   1.177  10.017  0.7136 -0.2227  0.1922
  145SAPE   C2915955   4.781   1.203   9.844 -0.2773  0.4842  0.4765
  145SAPE   H9R15956   4.696   1.178   9.780 -0.2612  1.6077 -0.0085
  145SAPE  C21015957   4.919   1.209   9.778 -0.3922  0.0801  0.1153
  145SAPE  H10R15958   4.991   1.132   9.813 -0.8308  0.0036  0.8670
  145SAPE  H10S15959   4.957   1.312   9.789 -0.1631  0.1802 -1.3896
  145SAPE  C21115960   4.908   1.183   9.631  1.0750  0.0548  0.5040
  145SAPE  H11R15961   4.809   1.170   9.585  1.0356  0.3560  0.4998
  145SAPE  C21215962   5.012   1.173   9.545 -0.1839 -0.4217  0.1027
  145SAPE  H12R15963   5.006   1.159   9.436  1.6534  2.4647 -0.4933
  145SAPE  C21315964   5.158   1.192   9.575 -0.0210 -1.1204 -0.3155
  145SAPE  H13R15965   5.216   1.155   9.487  1.2818 -0.8210  0.3811
  145SAPE  H13S15966   5.187   1.131   9.664 -2.4105  0.6167  1.7910
  145SAPE  C21415967   5.207   1.331   9.591  0.5053  0.2768 -0.0972
  145SAPE  H14R15968   5.136   1.416   9.591  1.6775  1.2851  0.3910
  145SAPE  C21515969   5.340   1.361   9.610  0.6210 -0.0889  1.4872
  145SAPE  H15R15970   5.367   1.467   9.618  0.8764  0.2339 -2.2757
  145SAPE  C21615971   5.459   1.265   9.604  0.3164  0.4351 -0.1148
  145SAPE  H16R15972   5.481   1.220   9.504  0.9716  1.5352 -0.4889
  145SAPE  H16S15973   5.442   1.169   9.658 -1.4163  1.1119  0.6144
  145SAPE  C21715974   5.588   1.330   9.655  0.7947 -0.5855 -0.5699
  145SAPE  H17R15975   5.596   1.421   9.593  2.9570  0.1282  0.6332
  145SAPE  H17S15976   5.668   1.254   9.639  1.8195  0.1060  1.0438
  145SAPE  C21815977   5.572   1.367   9.803 -0.0480  0.4662  0.2418
  145SAPE  H18R15978   5.535   1.282   9.865  0.2523 -0.6333 -1.0521
  145SAPE  H18S15979   5.492   1.443   9.814 -1.7636 -1.3881  1.3745
  145SAPE  C21915980   5.703   1.413   9.864 -0.0995  0.1466 -0.2167
  145SAPE  H19R15981   5.744   1.498   9.807  0.3568  0.8489  1.1185
  145SAPE  H19S15982   5.772   1.326   9.863  0.3537  0.5056 -0.6634
  145SAPE  C22015983   5.698   1.468  10.010 -0.0108  0.1480 -0.1528
  145SAPE  H20R15984   5.698   1.380  10.078 -1.4228  0.3103  0.0868
  145SAPE  H20S15985   5.611   1.531  10.039 -0.2257 -1.0517  2.0438
  145SAPE  H20T15986   5.793   1.524  10.020 -0.7252  1.6736 -1.4050
  145SAPE   C3315987   5.084   0.457   9.953 -0.1134 -0.6115 -1.0884
  145SAPE   H3X15988   5.165   0.504   9.892 -0.5073 -0.1879 -1.2914
  145SAPE   H3Y15989   4.993   0.510   9.918 -0.3608 -0.3302 -0.0380
  145SAPE   C3415990   5.081   0.306   9.906  0.4384  0.2565 -0.1188
  145SAPE   H4X15991   5.019   0.251   9.980 -0.3346  0.0280 -0.9213
  145SAPE   H4Y15992   5.182   0.262   9.910  0.6335  0.7326  0.3273
  145SAPE   C3515993   5.031   0.305   9.761  0.0378  0.3520  0.4257
  145SAPE   H5X15994   4.946   0.375   9.745 -1.5701 -1.1776  1.8245
  145SAPE   H5Y15995   4.992   0.204   9.736  0.2979 -0.1304  1.8785
  145SAPE   C3615996   5.140   0.336   9.656 -0.4703 -0.1200 -0.4250
  145SAPE   H6X15997   5.217   0.260   9.680 -1.8150 -1.6384 -0.7603
  145SAPE   H6Y15998   5.178   0.439   9.671  0.3291 -0.5779  0.9291
  145SAPE   C3715999   5.087   0.325   9.516  0.2194  0.2291 -0.8762
  145SAPE   H7X16000   5.011   0.404   9.501 -2.9540 -2.0036  1.8472
  145SAPE   H7Y16001   5.041   0.224   9.522 -0.7822  0.6970 -0.4702
  145SAPE   C3816002   5.193   0.324   9.399 -0.2075 -0.1621  0.1482
  145SAPE   H8X16003   5.245   0.225   9.397 -0.4433 -0.3077 -2.7900
  145SAPE   H8Y16004   5.251   0.418   9.401 -1.0655  0.4004 -0.6554
  145SAPE   C3916005   5.123   0.332   9.257  0.7976  0.0303 -0.0267
  145SAPE   H9X16006   5.041   0.256   9.255  1.3747 -0.6716  1.2925
  145SAPE   H9Y16007   5.196   0.311   9.177  3.0177  0.1025  1.8689
  145SAPE  C31016008   5.062   0.471   9.226 -0.6372  0.9954 -0.4238
  145SAPE  H10X16009   5.023   0.509   9.324 -0.2344 -2.0044  1.0179
  145SAPE  H10Y16010   4.983   0.453   9.151  0.3170 -1.2325 -0.9546
  145SAPE  C31116011   5.178   0.577   9.188 -0.3640  0.2953 -0.3466
  145SAPE  H11X16012   5.259   0.524   9.135  0.9363  1.0795  0.7865
  145SAPE  H11Y16013   5.227   0.608   9.283 -2.0938  1.6995  0.1439
  145SAPE  C31216014   5.137   0.702   9.108 -0.4139 -0.0605  0.0132
  145SAPE  H12X16015   5.162   0.681   9.002  0.9419 -2.8674  0.7881
  145SAPE  H12Y16016   5.189   0.797   9.131 -0.6475 -0.0787  0.6372
  145SAPE  C31316017   4.986   0.728   9.116  0.5207 -0.1651 -0.5418
  145SAPE  H13X16018   4.957   0.727   9.223  0.9376 -3.1734 -0.3680
  145SAPE  H13Y16019   4.938   0.642   9.063  1.0842  0.8188 -2.7892
  145SAPE  C31416020   4.935   0.860   9.046 -0.5545 -0.0583  0.3313
  145SAPE  H14X16021   4.952   0.860   8.936 -0.5024  1.3041  0.3248
  145SAPE  H14Y16022   5.005   0.934   9.091  1.7905 -2.1786  0.4078
  145SAPE  C31516023   4.786   0.884   9.075  0.3771  0.3070 -0.1709
  145SAPE  H15X16024   4.765   0.890   9.184 -1.4943  0.3698 -0.4911
  145SAPE  H15Y16025   4.730   0.792   9.050  0.9528 -0.3734  0.9814
  145SAPE  C31616026   4.729   1.012   9.011  0.6460  0.1918 -0.1821
  145SAPE  H16X16027   4.732   1.003   8.900  0.4663  0.3977 -0.2045
  145SAPE  H16Y16028   4.787   1.103   9.037 -0.8189  0.7933  1.1117
  145SAPE  C31716029   4.584   1.043   9.054  0.1129 -0.0498  0.3700
  145SAPE  H17X16030   4.575   1.040   9.164  2.7337 -1.1636  0.6299
  145SAPE  H17Y16031   4.526   0.964   9.002 -1.8517  2.4631 -1.5300
  145SAPE  C31816032   4.530   1.175   8.998  0.1692 -0.0714  0.4047
  145SAPE  H18X16033   4.596   1.263   9.014  0.4781 -0.5877  2.1922
  145SAPE  H18Y16034   4.434   1.206   9.044 -0.1947 -0.0261 -0.3694
  145SAPE  H18Z16035   4.514   1.164   8.889  0.0895  1.1482  0.2729
  146SAPE     N16036   4.340   2.624  10.634 -0.6316  0.1192  0.3003
  146SAPE   HN116037   4.270   2.693  10.599 -0.8173 -0.4731 -0.5300
  146SAPE   HN216038   4.434   2.669  10.627 -1.0443  0.8204 -1.2220
  146SAPE   HN316039   4.331   2.541  10.573 -0.0717  0.8571 -0.8237
  146SAPE   C1216040   4.310   2.577  10.772 -0.1294 -0.1278 -0.0320
  146SAPE  H12A16041   4.402   2.535  10.817  1.1633 -0.3855 -2.7321
  146SAPE  H12B16042   4.227   2.504  10.759 -0.3428 -0.2066  1.6088
  146SAPE   C1116043   4.278   2.704  10.855  0.0783 -0.4029  0.8204
  146SAPE  H11A16044   4.371   2.765  10.854  0.9450 -1.6872 -0.3175
  146SAPE  H11B16045   4.249   2.672  10.957  1.9063 -0.1039  1.4736
  146SAPE     P16046   4.046   2.823  10.884  0.1760 -0.1035  0.0389
  146SAPE   O1316047   3.973   2.700  10.927 -0.2339 -0.2112  0.3510
  146SAPE   O1416048   4.091   2.920  10.984 -0.2361  0.2601 -0.6542
  146SAPE   O1216049   4.170   2.775  10.795  0.2115 -0.1198  0.2924
  146SAPE   O1116050   3.966   2.898  10.768 -0.2248  0.6536 -0.3663
  146SAPE    C116051   3.967   2.849  10.633  0.8018  0.0925  0.2669
  146SAPE    HA16052   4.065   2.807  10.603  0.5905 -0.8598  0.8834
  146SAPE    HB16053   3.885   2.774  10.625 -0.8913  1.7039  1.4271
  146SAPE    C216054   3.933   2.964  10.530  0.1732  0.1027  0.2178
  146SAPE    HS16055   4.009   3.042  10.553 -2.5451  3.0213  0.0336
  146SAPE   O2116056   3.801   3.018  10.553  0.1467  0.0492  0.0503
  146SAPE   C2116057   3.792   3.141  10.549  0.5189 -0.1183 -0.2501
  146SAPE   O2216058   3.877   3.217  10.507 -0.3738 -0.3172  0.0479
  146SAPE   C2216059   3.651   3.188  10.579 -1.2190 -0.6123 -0.3332
  146SAPE   H2R16060   3.613   3.105  10.641  1.2307 -1.4091  0.2174
  146SAPE   H2S16061   3.648   3.277  10.645 -1.7495  0.8559 -2.2486
  146SAPE    C316062   3.940   2.909  10.383  0.1244 -0.4795 -0.2334
  146SAPE    HX16063   3.852   2.843  10.370  0.1858 -0.5966 -0.0407
  146SAPE    HY16064   4.034   2.851  10.379  0.4481 -0.0095  0.4374
  146SAPE   O3116065   3.937   3.007  10.275  0.3685  0.7185  0.1975
  146SAPE   C3116066   4.051   3.075  10.267  0.2371 -0.1516  0.7374
  146SAPE   O3216067   4.152   3.044  10.334 -0.3975 -0.2258  0.5883
  146SAPE   C3216068   4.039   3.187  10.164  0.5203  0.7930 -0.3248
  146SAPE   H2X16069   4.062   3.280  10.221  1.0261  2.2532 -2.7616
  146SAPE   H2Y16070   3.934   3.199  10.128  0.0136  2.3099  1.5180
  146SAPE   C2316071   3.564   3.215  10.453 -0.2939  0.0335  0.8176
  146SAPE   H3R16072   3.583   3.318  10.416  0.8956 -0.2833  0.4849
  146SAPE   H3S16073   3.459   3.198  10.486 -0.7163 -0.3831 -0.6687
  146SAPE   C2416074   3.580   3.113  10.334 -1.0776 -0.3911 -0.2402
  146SAPE   H4R16075   3.686   3.122  10.304 -0.2950  0.2006  2.3728
  146SAPE   H4S16076   3.516   3.150  10.251 -1.9840  0.9641  1.0014
  146SAPE   C2516077   3.544   2.972  10.372 -0.9118 -0.2207  0.1623
  146SAPE   H5R16078   3.570   2.941  10.474 -3.5510  0.4609  1.1258
  146SAPE   C2616079   3.478   2.888  10.286 -0.4413  0.2962 -0.4683
  146SAPE   H6R16080   3.445   2.789  10.323 -1.4536  0.8620  0.1917
  146SAPE   C2716081   3.431   2.920  10.144  0.1759 -0.5264 -0.0383
  146SAPE   H7R16082   3.365   3.008  10.147  0.7541 -0.0493 -0.7573
  146SAPE   H7S16083   3.353   2.847  10.113 -0.4763  0.7349 -1.4825
  146SAPE   C2816084   3.545   2.928  10.045  0.1688 -0.0519  0.3089
  146SAPE   H8R16085   3.642   2.961  10.084  0.3903 -0.8057  0.3961
  146SAPE   C2916086   3.531   2.882   9.916 -0.3401 -0.8024 -0.1937
  146SAPE   H9R16087   3.615   2.894   9.846 -0.7429  1.1795 -0.3942
  146SAPE  C21016088   3.401   2.829   9.860 -0.0861 -0.6222  0.0307
  146SAPE  H10R16089   3.316   2.888   9.901  0.3959 -0.1872  0.4230
  146SAPE  H10S16090   3.387   2.726   9.898 -2.4784  0.2132  1.6305
  146SAPE  C21116091   3.400   2.833   9.711 -0.5181 -0.4086 -0.1637
  146SAPE  H11R16092   3.440   2.930   9.677  0.4402 -0.5238  0.5977
  146SAPE  C21216093   3.365   2.739   9.621  0.2721 -0.7606  0.3611
  146SAPE  H12R16094   3.376   2.761   9.513  3.2477 -0.1018  0.7282
  146SAPE  C21316095   3.305   2.610   9.660 -0.4070 -0.1473  0.4908
  146SAPE  H13R16096   3.201   2.609   9.620 -0.1695 -0.3198 -0.1239
  146SAPE  H13S16097   3.287   2.606   9.770 -1.3292  1.2316  0.4208
  146SAPE  C21416098   3.384   2.492   9.606 -0.5376  0.0464 -0.5253
  146SAPE  H14R16099   3.449   2.438   9.678 -0.3628  0.6223 -0.2484
  146SAPE  C21516100   3.379   2.438   9.478 -0.3830  0.3665 -0.1596
  146SAPE  H15R16101   3.433   2.344   9.461  1.0214  0.6076  2.4681
  146SAPE  C21616102   3.299   2.490   9.363  0.3213  0.1392 -0.1168
  146SAPE  H16R16103   3.257   2.584   9.404  2.4352  1.2811 -0.4034
  146SAPE  H16S16104   3.220   2.418   9.334  1.6668 -1.2796 -0.3716
  146SAPE  C21716105   3.370   2.529   9.232  0.0049  0.2020  0.3755
  146SAPE  H17R16106   3.418   2.436   9.195 -1.4745 -0.7887  0.8295
  146SAPE  H17S16107   3.449   2.602   9.260 -2.0689  3.1861 -0.9710
  146SAPE  C21816108   3.276   2.594   9.131  0.3075 -0.8410 -0.4034
  146SAPE  H18R16109   3.247   2.691   9.176  0.5186 -0.8094 -0.3326
  146SAPE  H18S16110   3.184   2.534   9.117 -0.2689 -0.0485 -0.0676
  146SAPE  C21916111   3.330   2.615   8.992 -0.2221  0.0472  0.1270
  146SAPE  H19R16112   3.336   2.517   8.940 -2.5659  0.3434 -0.8410
  146SAPE  H19S16113   3.428   2.663   9.011  0.2282  0.3463 -2.4681
  146SAPE  C22016114   3.251   2.714   8.893 -0.5766  1.3011 -0.7627
  146SAPE  H20R16115   3.144   2.686   8.885 -0.7186  0.6999  2.1606
  146SAPE  H20S16116   3.301   2.713   8.794  0.2501  0.4166 -0.3527
  146SAPE  H20T16117   3.267   2.818   8.930  1.2230  0.5488  0.7531
  146SAPE   C3316118   4.128   3.175  10.036  0.6255  0.3416 -0.4494
  146SAPE   H3X16119   4.234   3.158  10.061  0.8679  1.6746 -0.4551
  146SAPE   H3Y16120   4.115   3.272   9.983 -0.8839  0.4147  0.0059
  146SAPE   C3416121   4.082   3.066   9.946 -0.0967  0.2724 -0.5469
  146SAPE   H4X16122   3.976   3.080   9.917 -0.4855 -1.8287 -0.2694
  146SAPE   H4Y16123   4.082   2.971  10.004 -0.8118 -0.7236 -2.1057
  146SAPE   C3516124   4.176   3.050   9.827 -0.0973 -0.1771 -0.2078
  146SAPE   H5X16125   4.259   2.980   9.849  1.6070  1.2145 -1.8786
  146SAPE   H5Y16126   4.221   3.149   9.804 -0.3816  0.1293  0.5140
  146SAPE   C3616127   4.111   2.987   9.699 -0.0037  0.1242 -1.0397
  146SAPE   H6X16128   4.025   2.930   9.741  1.9199 -0.4061  2.6544
  146SAPE   H6Y16129   4.182   2.919   9.647 -0.6313  1.5353 -3.9291
  146SAPE   C3716130   4.077   3.090   9.597 -0.2646  0.5524 -0.1214
  146SAPE   H7X16131   4.012   3.171   9.637  0.1088  0.8848 -0.1784
  146SAPE   H7Y16132   4.023   3.034   9.518 -2.2549  1.2817  0.6441
  146SAPE   C3816133   4.196   3.158   9.529  0.1051  0.4503  0.0961
  146SAPE   H8X16134   4.274   3.088   9.491  1.4038  1.5858  0.5599
  146SAPE   H8Y16135   4.249   3.218   9.607 -2.6059  0.2127  2.2723
  146SAPE   C3916136   4.160   3.251   9.403 -0.5816 -0.3212  0.1538
  146SAPE   H9X16137   4.140   3.356   9.430  1.3734  0.0747  0.2360
  146SAPE   H9Y16138   4.068   3.212   9.355 -1.2454  0.2138  0.9882
  146SAPE  C31016139   4.270   3.252   9.300 -0.8529  0.3681  0.3051
  146SAPE  H10X16140   4.282   3.147   9.264 -0.8404  0.7330 -0.7973
  146SAPE  H10Y16141   4.373   3.280   9.327 -1.0292  3.4395 -1.7471
  146SAPE  C31116142   4.233   3.335   9.180  0.4602  0.3443  0.0027
  146SAPE  H11X16143   4.176   3.427   9.202 -1.1853 -1.1173  2.2392
  146SAPE  H11Y16144   4.167   3.270   9.119 -0.3112 -0.5737  1.7371
  146SAPE  C31216145   4.350   3.375   9.090  0.2879 -0.7518  0.5322
  146SAPE  H12X16146   4.410   3.284   9.066  0.4879 -0.2957 -0.7453
  146SAPE  H12Y16147   4.413   3.438   9.156 -1.4537  0.6028  0.9788
  146SAPE  C31316148   4.318   3.461   8.966 -0.3239  0.5310 -0.2820
  146SAPE  H13X16149   4.251   3.542   9.002 -0.1339  0.2306  0.7745
  146SAPE  H13Y16150   4.252   3.402   8.899  0.0051  0.6242 -0.6944
  146SAPE  C31416151   4.433   3.540   8.903 -0.1256  0.6170 -0.4304
  146SAPE  H14X16152   4.478   3.471   8.828 -1.7304 -0.0131 -0.8803
  146SAPE  H14Y16153   4.493   3.567   8.992 -0.2004  3.4714 -1.1665
  146SAPE  C31516154   4.390   3.675   8.834  0.3028 -0.8918  0.0277
  146SAPE  H15X16155   4.482   3.736   8.830  0.7792 -1.5909  0.1345
  146SAPE  H15Y16156   4.331   3.725   8.914  1.0793 -0.6174  0.4436
  146SAPE  C31616157   4.303   3.672   8.705  0.5588 -0.3838 -0.8138
  146SAPE  H16X16158   4.248   3.769   8.704  0.6345 -0.3124  0.3208
  146SAPE  H16Y16159   4.227   3.592   8.720  0.4613 -0.0199  0.7903
  146SAPE  C31716160   4.365   3.653   8.573 -0.7022 -0.0138 -0.8375
  146SAPE  H17X16161   4.424   3.559   8.587  1.4885  1.7210  3.1858
  146SAPE  H17Y16162   4.446   3.727   8.559 -1.4567  0.6836 -1.6125
  146SAPE  C31816163   4.264   3.652   8.461 -0.5605 -0.7135  0.8363
  146SAPE  H18X16164   4.314   3.654   8.362  0.0665  0.6572  1.1476
  146SAPE  H18Y16165   4.208   3.748   8.456  2.1569  0.9515 -0.5136
  146SAPE  H18Z16166   4.200   3.562   8.470 -0.6472 -0.4853  3.0754
  147SAPE     N16167   5.789   4.648  10.969 -0.0614 -0.8143  0.3464
  147SAPE   HN116168   5.744   4.713  10.901  3.1699  1.2778  0.0161
  147SAPE   HN216169   5.782   4.673  11.069  3.2405 -1.8177  0.9477
  147SAPE   HN316170   5.889   4.659  10.941 -0.1437 -0.1428  0.2983
  147SAPE   C1216171   5.754   4.502  10.942 -0.0110  0.8150 -0.0142
  147SAPE  H12A16172   5.779   4.442  11.032  1.7550  1.9257  0.2749
  147SAPE  H12B16173   5.822   4.470  10.861 -0.1703 -3.4359  1.2814
  147SAPE   C1116174   5.603   4.475  10.908 -0.3571  0.2757 -0.5076
  147SAPE  H11A16175   5.599   4.364  10.904  0.6527  0.2401 -0.7160
  147SAPE  H11B16176   5.578   4.521  10.810 -1.3341 -0.6380 -0.7038
  147SAPE     P16177   5.365   4.491  11.017  0.3683 -0.2269 -0.1816
  147SAPE   O1316178   5.339   4.346  10.976 -0.7464 -0.1768  0.0888
  147SAPE   O1416179   5.305   4.536  11.146 -0.7969  0.2584 -0.0257
  147SAPE   O1216180   5.523   4.513  11.019  0.3538  0.9352 -0.0116
  147SAPE   O1116181   5.316   4.597  10.913 -0.2367 -0.1091 -0.2940
  147SAPE    C116182   5.188   4.608  10.863  0.2195 -0.1950  0.0756
  147SAPE    HA16183   5.112   4.567  10.934  1.2831 -0.5957  1.0120
  147SAPE    HB16184   5.174   4.717  10.845  0.1941 -0.6048 -2.8245
  147SAPE    C216185   5.169   4.543  10.722  0.1514  0.3733  0.6516
  147SAPE    HS16186   5.210   4.443  10.746 -1.8439 -0.0443  2.6897
  147SAPE   O2116187   5.239   4.628  10.629 -0.2518  0.3142 -0.6351
  147SAPE   C2116188   5.354   4.583  10.594 -0.2669  0.0769 -0.2725
  147SAPE   O2216189   5.411   4.484  10.636  0.3576 -0.0316 -1.0734
  147SAPE   C2216190   5.420   4.673  10.483 -0.5470  0.6086 -0.0678
  147SAPE   H2R16191   5.501   4.732  10.530  1.3331 -0.8430 -1.3195
  147SAPE   H2S16192   5.469   4.597  10.418  0.6767  0.0074  1.4936
  147SAPE    C316193   5.022   4.530  10.678 -0.5322 -0.3535  0.5115
  147SAPE    HX16194   4.986   4.630  10.646  0.2213 -0.5527 -1.0653
  147SAPE    HY16195   4.967   4.493  10.767 -1.6727 -0.6727 -0.3059
  147SAPE   O3116196   5.002   4.436  10.567  0.2927 -0.3571  0.3378
  147SAPE   C3116197   4.996   4.306  10.603  0.6902 -0.7425 -0.0566
  147SAPE   O3216198   5.007   4.269  10.716  0.4080  0.3954 -0.2702
  147SAPE   C3216199   4.965   4.222  10.482 -0.6359  0.4072  0.0240
  147SAPE   H2X16200   4.862   4.249  10.448 -0.7522 -0.4579 -0.3375
  147SAPE   H2Y16201   4.969   4.118  10.521  2.0024 -0.0729 -1.2884
  147SAPE   C2316202   5.328   4.764  10.406  1.3976 -0.4027  0.7221
  147SAPE   H3R16203   5.386   4.846  10.358 -0.1633  0.0893 -0.4024
  147SAPE   H3S16204   5.267   4.824  10.476  1.8661  0.3586  0.4850
  147SAPE   C2416205   5.220   4.692  10.320 -0.3333 -0.3458  0.1352
  147SAPE   H4R16206   5.164   4.782  10.287 -0.5694 -0.4937  0.1355
  147SAPE   H4S16207   5.157   4.622  10.379 -0.0342 -1.8406 -1.2494
  147SAPE   C2516208   5.288   4.635  10.199 -0.0311  0.8489  0.1477
  147SAPE   H5R16209   5.287   4.525  10.192  0.0573  0.9552 -2.3718
  147SAPE   C2616210   5.317   4.690  10.086  0.1451 -0.1276 -0.0609
  147SAPE   H6R16211   5.348   4.628  10.000 -3.1593 -0.6259 -1.0309
  147SAPE   C2716212   5.290   4.835  10.049 -0.5538 -0.8301 -0.0463
  147SAPE   H7R16213   5.263   4.888  10.143  1.9801 -1.4706  1.1297
  147SAPE   H7S16214   5.200   4.831   9.984  1.3666 -0.7240 -2.9529
  147SAPE   C2816215   5.400   4.905   9.981 -0.2180  0.2017  0.4491
  147SAPE   H8R16216   5.456   4.967  10.053 -1.6862  2.2886 -0.0967
  147SAPE   C2916217   5.441   4.894   9.849  0.0764 -0.2129  0.3016
  147SAPE   H9R16218   5.523   4.959   9.815  1.8119 -1.8510  1.1743
  147SAPE  C21016219   5.368   4.803   9.749  0.4355 -0.4501  0.1295
  147SAPE  H10R16220   5.346   4.858   9.655  0.1500  2.1755  1.6375
  147SAPE  H10S16221   5.277   4.758   9.794 -1.5336  2.2765 -0.8487
  147SAPE  C21116222   5.453   4.684   9.708  0.3234  0.2458 -0.6692
  147SAPE  H11R16223   5.480   4.619   9.792 -1.8648 -0.4193 -0.4289
  147SAPE  C21216224   5.490   4.642   9.584 -0.8516 -0.4808 -0.0594
  147SAPE  H12R16225   5.545   4.547   9.593  0.2394  0.2378  1.2405
  147SAPE  C21316226   5.439   4.704   9.456  0.3441  0.4318 -0.3231
  147SAPE  H13R16227   5.342   4.752   9.477  0.6681 -0.0201  2.6329
  147SAPE  H13S16228   5.405   4.616   9.396  1.1533 -0.3691  0.3607
  147SAPE  C21416229   5.534   4.786   9.371  0.0046 -0.9163 -0.1160
  147SAPE  H14R16230   5.615   4.839   9.423 -0.6629  0.3357 -0.3162
  147SAPE  C21516231   5.532   4.810   9.235  0.8008  0.7692  0.0072
  147SAPE  H15R16232   5.610   4.871   9.187  0.2237  0.0291 -1.9894
  147SAPE  C21616233   5.423   4.759   9.132  0.0053  0.1755  0.2636
  147SAPE  H16R16234   5.360   4.845   9.102  2.3515  0.7530 -3.5664
  147SAPE  H16S16235   5.358   4.680   9.177  1.7147 -1.2703  0.2941
  147SAPE  C21716236   5.489   4.691   9.011  0.2447  0.0453  0.3306
  147SAPE  H17R16237   5.579   4.630   9.031  0.9697  0.7716 -0.5828
  147SAPE  H17S16238   5.515   4.773   8.941  1.0372  0.4512  1.0896
  147SAPE  C21816239   5.376   4.624   8.918  0.2448 -0.2889  0.0001
  147SAPE  H18R16240   5.305   4.709   8.901  1.3232  1.1561  2.1924
  147SAPE  H18S16241   5.336   4.535   8.970  0.5479 -0.1947  0.4035
  147SAPE  C21916242   5.425   4.593   8.782 -0.4342  0.3452  0.6518
  147SAPE  H19R16243   5.514   4.526   8.785  0.8517  1.3551 -4.5955
  147SAPE  H19S16244   5.458   4.688   8.735 -0.2140 -1.0761 -2.2575
  147SAPE  C22016245   5.324   4.529   8.683 -0.1596  0.2274  1.0685
  147SAPE  H20R16246   5.303   4.424   8.713  0.2979 -0.1671  0.0495
  147SAPE  H20S16247   5.374   4.518   8.585 -0.3171  0.7175  0.9303
  147SAPE  H20T16248   5.231   4.590   8.672  1.1873  1.9506 -1.7439
  147SAPE   C3316249   5.060   4.233  10.357  0.2791  0.2520 -0.1604
  147SAPE   H3X16250   5.161   4.192  10.382 -1.0242 -1.8363  2.1225
  147SAPE   H3Y16251   5.075   4.340  10.329  0.5062  0.3311  0.2515
  147SAPE   C3416252   4.997   4.164  10.235 -0.0115 -0.0319 -0.6123
  147SAPE   H4X16253   4.903   4.221  10.217 -0.8999 -1.7852 -1.8313
  147SAPE   H4Y16254   4.988   4.054  10.247  0.5065  0.0746  1.0271
  147SAPE   C3516255   5.087   4.168  10.103  0.7846 -0.1442 -0.5382
  147SAPE   H5X16256   5.188   4.138  10.139  0.5798  0.8958  1.0028
  147SAPE   H5Y16257   5.094   4.277  10.081  1.0479 -0.0193  0.1396
  147SAPE   C3616258   5.028   4.077   9.992  0.4382  0.4805  0.0491
  147SAPE   H6X16259   4.990   3.980  10.031  0.9921 -0.9082 -2.6284
  147SAPE   H6Y16260   5.100   4.062   9.909  0.5043 -0.3111  0.2456
  147SAPE   C3716261   4.903   4.141   9.925 -0.4474  0.1141 -1.0293
  147SAPE   H7X16262   4.936   4.231   9.868 -4.2993  2.1072 -0.4799
  147SAPE   H7Y16263   4.832   4.182  10.000  1.4973  1.5483  0.1029
  147SAPE   C3816264   4.836   4.043   9.815 -0.1768  0.1603 -0.1238
  147SAPE   H8X16265   4.730   4.042   9.846 -0.6792 -1.1756 -1.7686
  147SAPE   H8Y16266   4.879   3.941   9.826  0.9691  0.4430 -1.5824
  147SAPE   C3916267   4.878   4.083   9.673  0.2445 -0.3556  0.1601
  147SAPE   H9X16268   4.988   4.068   9.671  0.1295 -1.1780 -1.1735
  147SAPE   H9Y16269   4.856   4.191   9.655  2.7653 -0.1094 -1.9336
  147SAPE  C31016270   4.818   3.992   9.566  0.2193  0.0892  0.5842
  147SAPE  H10X16271   4.710   4.016   9.569  0.1040  0.3464 -2.5206
  147SAPE  H10Y16272   4.840   3.886   9.593  2.0080  0.1769 -0.3682
  147SAPE  C31116273   4.859   4.016   9.418 -0.0929 -0.1627  0.0483
  147SAPE  H11X16274   4.965   3.982   9.417 -0.3670 -1.0950  1.0314
  147SAPE  H11Y16275   4.873   4.124   9.393 -0.9478 -0.1889 -0.5671
  147SAPE  C31216276   4.770   3.952   9.320  0.0340  0.2588 -0.5508
  147SAPE  H12X16277   4.665   3.955   9.357  0.2898  1.1451  0.1499
  147SAPE  H12Y16278   4.803   3.849   9.297  0.6719  0.6673 -1.5559
  147SAPE  C31316279   4.772   4.023   9.186 -0.6083 -0.1763  0.2687
  147SAPE  H13X16280   4.875   4.062   9.179 -0.0896 -1.5183  0.1529
  147SAPE  H13Y16281   4.680   4.086   9.184  0.2541  1.1709  1.2835
  147SAPE  C31416282   4.754   3.928   9.070  0.0660  0.5858 -0.4239
  147SAPE  H14X16283   4.667   3.866   9.101  0.9478 -0.1835  0.5997
  147SAPE  H14Y16284   4.843   3.861   9.067  0.5979  1.2967 -0.7046
  147SAPE  C31516285   4.735   3.992   8.935  0.3601 -0.0430  0.3855
  147SAPE  H15X16286   4.652   4.065   8.931  1.0984  0.7586 -0.8160
  147SAPE  H15Y16287   4.713   3.907   8.867  0.4539  0.9034 -0.8667
  147SAPE  C31616288   4.859   4.066   8.882 -0.0498 -0.5581 -0.2340
  147SAPE  H16X16289   4.934   3.991   8.852 -0.9370 -1.4220 -0.3483
  147SAPE  H16Y16290   4.898   4.133   8.962  0.4341 -0.0375 -0.8983
  147SAPE  C31716291   4.824   4.165   8.764 -0.0981 -0.4152 -0.5813
  147SAPE  H17X16292   4.926   4.198   8.732 -1.9303  3.8192 -2.8092
  147SAPE  H17Y16293   4.776   4.258   8.801 -3.9066 -2.3576 -0.1457
  147SAPE  C31816294   4.746   4.107   8.647  0.3636 -0.1758 -0.0902
  147SAPE  H18X16295   4.646   4.081   8.687  0.9656  0.3694  1.9026
  147SAPE  H18Y16296   4.783   4.009   8.609 -1.0595 -0.4771 -0.7710
  147SAPE  H18Z16297   4.741   4.181   8.564  0.3909 -0.7824 -0.6391
  148SAPE     N16298   0.251   0.042  11.010 -0.1560 -0.0277  0.6537
  148SAPE   HN116299   0.263   0.067  11.110 -3.0633 -0.2378  1.1394
  148SAPE   HN216300   0.162   0.086  10.979 -0.7356 -1.7721 -0.3046
  148SAPE   HN316301   0.231  -0.059  10.999 -0.3816  0.0629  0.2065
  148SAPE   C1216302   0.367   0.073  10.921 -0.6571  0.7073  0.6014
  148SAPE  H12A16303   0.454   0.020  10.966  0.7928  1.7275 -0.8963
  148SAPE  H12B16304   0.393   0.180  10.937 -1.6065  0.8069  1.5713
  148SAPE   C1116305   0.337   0.032  10.774 -0.5424  0.3573 -0.1817
  148SAPE  H11A16306   0.427   0.055  10.712  0.6622  0.1557  1.4319
  148SAPE  H11B16307   0.262   0.106  10.739  0.3943  1.8335  0.8005
  148SAPE     P16308   0.375  -0.228  10.731 -0.2617  0.0169  0.3716
  148SAPE   O1316309   0.483  -0.227  10.830 -0.9433  0.3507 -0.2140
  148SAPE   O1416310   0.293  -0.351  10.732 -0.2871 -0.0877 -0.1374
  148SAPE   O1216311   0.280  -0.100  10.750  0.2410 -0.5797  0.2345
  148SAPE   O1116312   0.423  -0.188  10.587 -0.1651  0.1224  0.0760
  148SAPE    C116313   0.365  -0.258  10.476  0.0285  0.1620 -0.0759
  148SAPE    HA16314   0.370  -0.369  10.486  1.5379  0.1405 -0.7918
  148SAPE    HB16315   0.256  -0.238  10.477 -0.0709  0.1679  3.5026
  148SAPE    C216316   0.428  -0.209  10.343 -0.4612  0.0050 -0.2306
  148SAPE    HS16317   0.538  -0.224  10.345 -0.0926  2.3874  0.9849
  148SAPE   O2116318   0.404  -0.065  10.321  0.0793 -0.3050  0.1851
  148SAPE   C2116319   0.497   0.017  10.378  0.2953  0.0687 -0.3527
  148SAPE   O2216320   0.593  -0.025  10.438 -0.2571 -0.5653 -0.2354
  148SAPE   C2216321   0.457   0.160  10.335  0.6552  0.6716  0.3589
  148SAPE   H2R16322   0.381   0.157  10.254  0.1646 -0.4574  0.8283
  148SAPE   H2S16323   0.410   0.204  10.425  2.3868  1.3931  0.9583
  148SAPE    C316324   0.368  -0.299  10.221  0.9645 -0.6144 -0.1161
  148SAPE    HX16325   0.258  -0.310  10.237  1.0377 -2.7929 -0.8979
  148SAPE    HY16326   0.410  -0.399  10.243 -0.6876 -1.1421  0.8167
  148SAPE   O3116327   0.405  -0.236  10.101  0.0997  0.2703  0.4367
  148SAPE   C3116328   0.317  -0.158  10.060 -0.2531 -0.0476 -0.0291
  148SAPE   O3216329   0.203  -0.134  10.108 -0.3332 -0.1898  0.0932
  148SAPE   C3216330   0.369  -0.096   9.930  0.0262  0.2418  0.0184
  148SAPE   H2X16331   0.439  -0.163   9.876  1.4043  1.6313  0.0062
  148SAPE   H2Y16332   0.448  -0.022   9.954  1.5557 -1.0768 -0.7500
  148SAPE   C2316333   0.574   0.245  10.292  0.2639 -0.0841 -0.3591
  148SAPE   H3R16334   0.664   0.225  10.355 -0.2905  1.4406  0.9899
  148SAPE   H3S16335   0.541   0.349  10.310 -0.0425 -0.0405 -1.1529
  148SAPE   C2416336   0.605   0.240  10.140  0.4325 -0.1238 -0.0682
  148SAPE   H4R16337   0.617   0.131  10.123  1.3540 -0.2269  1.1306
  148SAPE   H4S16338   0.699   0.292  10.113 -0.1575  0.9543 -0.1390
  148SAPE   C2516339   0.511   0.305  10.040 -0.0464 -0.1848  0.2587
  148SAPE   H5R16340   0.408   0.319  10.078 -0.3480 -1.0964 -0.1852
  148SAPE   C2616341   0.525   0.349   9.914 -0.1746 -0.5293  0.2793
  148SAPE   H6R16342   0.432   0.372   9.861  1.0568 -1.4096 -2.4761
  148SAPE   C2716343   0.662   0.343   9.839  0.0798 -0.0192 -0.2063
  148SAPE   H7R16344   0.746   0.327   9.911  0.1299 -2.0897 -0.6572
  148SAPE   H7S16345   0.682   0.438   9.786 -0.7037 -0.5788 -1.5381
  148SAPE   C2816346   0.659   0.234   9.739 -0.6752 -0.6524 -0.6383
  148SAPE   H8R16347   0.669   0.137   9.790 -2.3380 -0.4735  0.1156
  148SAPE   C2916348   0.634   0.234   9.614  0.3637  0.2691  0.5423
  148SAPE   H9R16349   0.667   0.146   9.558  0.4985  1.8260 -2.0213
  148SAPE  C21016350   0.604   0.351   9.520  0.0132  0.3817  0.4692
  148SAPE  H10R16351   0.553   0.441   9.562 -0.0249  0.8707 -0.6032
  148SAPE  H10S16352   0.527   0.304   9.455  0.0337 -1.0256  1.4357
  148SAPE  C21116353   0.726   0.386   9.446  0.0275 -0.7005 -0.4673
  148SAPE  H11R16354   0.778   0.465   9.503 -1.2087 -0.7319  0.7662
  148SAPE  C21216355   0.762   0.339   9.330  0.5486 -0.5186  0.5843
  148SAPE  H12R16356   0.863   0.360   9.292  0.4697 -1.0051  0.0888
  148SAPE  C21316357   0.685   0.232   9.250  0.3340 -1.2393  0.5514
  148SAPE  H13R16358   0.647   0.269   9.152  3.8690  0.4684 -0.3656
  148SAPE  H13S16359   0.594   0.202   9.306 -0.7126 -1.0865 -0.9865
  148SAPE  C21416360   0.771   0.109   9.226  0.4277 -0.0205 -1.0310
  148SAPE  H14R16361   0.809   0.073   9.323 -1.9175  1.2047  0.4312
  148SAPE  C21516362   0.790   0.035   9.111  0.5666 -0.3491 -0.1865
  148SAPE  H15R16363   0.863  -0.046   9.103  1.6951  0.4381  1.6239
  148SAPE  C21616364   0.721   0.056   8.980 -0.5053  0.7629 -0.0585
  148SAPE  H16R16365   0.635   0.126   8.988 -0.3942  1.0950 -1.5509
  148SAPE  H16S16366   0.678  -0.040   8.945  0.1481  0.1885  0.6791
  148SAPE  C21716367   0.810   0.099   8.860  0.2353 -0.5948  0.4009
  148SAPE  H17R16368   0.751   0.145   8.778 -0.2435  1.5318  1.8708
  148SAPE  H17S16369   0.860   0.009   8.818  0.0933 -0.7288  0.5174
  148SAPE  C21816370   0.929   0.201   8.900  0.6159  0.5173 -0.3798
  148SAPE  H18R16371   1.005   0.147   8.961  0.7896 -0.7255 -1.6340
  148SAPE  H18S16372   0.885   0.275   8.969  1.9508 -0.2356  1.3590
  148SAPE  C21916373   0.980   0.273   8.778  0.3395  0.4465  0.0369
  148SAPE  H19R16374   0.898   0.336   8.739 -0.5751 -0.6927  0.0501
  148SAPE  H19S16375   0.986   0.187   8.707 -1.4348 -0.8599  1.3722
  148SAPE  C22016376   1.105   0.351   8.795  0.1001 -0.1329 -0.2982
  148SAPE  H20R16377   1.119   0.432   8.719  0.4654 -0.3576 -0.4757
  148SAPE  H20S16378   1.205   0.302   8.793  3.2579  5.4025 -0.0540
  148SAPE  H20T16379   1.099   0.387   8.900  0.4276 -0.9377  0.0084
  148SAPE   C3316380   0.256  -0.037   9.839  0.1659 -0.3935  0.9010
  148SAPE   H3X16381   0.193   0.033   9.898  1.6343 -0.3597  2.5167
  148SAPE   H3Y16382   0.188  -0.121   9.813  0.9923 -1.4352  1.9685
  148SAPE   C3416383   0.310   0.022   9.708  0.1318 -0.4550  0.1490
  148SAPE   H4X16384   0.410   0.066   9.727 -0.3171  0.2129  1.0566
  148SAPE   H4Y16385   0.246   0.110   9.682 -0.7817 -1.2401 -0.3373
  148SAPE   C3516386   0.317  -0.077   9.594 -0.5226 -0.5789  0.4565
  148SAPE   H5X16387   0.224  -0.136   9.578  0.5413 -1.7668 -1.9029
  148SAPE   H5Y16388   0.396  -0.154   9.607  1.4478  1.3236  0.2556
  148SAPE   C3616389   0.349  -0.007   9.460 -0.0808  0.0014 -0.1685
  148SAPE   H6X16390   0.443   0.052   9.468  0.3070 -0.5173 -0.8402
  148SAPE   H6Y16391   0.273   0.073   9.448  0.0561 -0.0017 -1.1311
  148SAPE   C3716392   0.369  -0.101   9.344 -0.1188 -0.1704 -0.2344
  148SAPE   H7X16393   0.281  -0.169   9.341 -1.1184  1.0150  1.0728
  148SAPE   H7Y16394   0.463  -0.159   9.344  0.5790  0.8984 -1.1530
  148SAPE   C3816395   0.376  -0.021   9.207 -0.0863 -0.0633 -0.7456
  148SAPE   H8X16396   0.458   0.052   9.189  0.2813  0.0009  1.0615
  148SAPE   H8Y16397   0.281   0.036   9.196 -0.2713  0.7204  3.2919
  148SAPE   C3916398   0.369  -0.117   9.094 -0.1669 -0.1825  0.5408
  148SAPE   H9X16399   0.278  -0.181   9.095 -1.4787  1.6139  0.1271
  148SAPE   H9Y16400   0.462  -0.177   9.103  0.5345  1.0530  1.9727
  148SAPE  C31016401   0.356  -0.055   8.950  0.3590 -0.9593 -0.2499
  148SAPE  H10X16402   0.439   0.017   8.935 -0.8752  1.1646  2.3073
  148SAPE  H10Y16403   0.264   0.006   8.949  0.4402 -0.7927  1.0385
  148SAPE  C31116404   0.354  -0.156   8.837 -0.1620 -0.4940  0.0543
  148SAPE  H11X16405   0.257  -0.208   8.825  0.9705 -3.2914  2.0316
  148SAPE  H11Y16406   0.426  -0.236   8.862 -0.4570 -0.3766  1.3621
  148SAPE  C31216407   0.389  -0.089   8.706 -0.1684 -0.4828  0.7375
  148SAPE  H12X16408   0.493  -0.050   8.703 -0.3293 -0.0626 -1.5535
  148SAPE  H12Y16409   0.320  -0.004   8.690 -1.8745 -2.0787 -1.0052
  148SAPE  C31316410   0.374  -0.194   8.594  0.3248  0.0482 -0.2061
  148SAPE  H13X16411   0.267  -0.221   8.586 -0.0630  1.4232 -0.0219
  148SAPE  H13Y16412   0.426  -0.285   8.630 -2.2363 -1.1874  0.5813
  148SAPE  C31416413   0.410  -0.134   8.457  0.8045 -0.5883 -0.0281
  148SAPE  H14X16414   0.357  -0.038   8.439  0.5032 -0.7286  0.1120
  148SAPE  H14Y16415   0.384  -0.209   8.380  1.3574 -1.0813  0.2600
  148SAPE  C31516416   0.555  -0.100   8.442  0.6568 -0.0238 -0.2762
  148SAPE  H15X16417   0.609  -0.189   8.481 -0.9662 -1.1106 -0.4128
  148SAPE  H15Y16418   0.575  -0.014   8.509 -0.7975 -0.1868  0.4151
  148SAPE  C31616419   0.597  -0.054   8.310  0.3708  0.4285  0.0720
  148SAPE  H16X16420   0.532   0.033   8.284 -0.9073 -0.3670  0.5510
  148SAPE  H16Y16421   0.575  -0.129   8.232 -0.1261 -0.6424  1.2132
  148SAPE  C31716422   0.744  -0.023   8.297 -0.0279  0.1261  0.0699
  148SAPE  H17X16423   0.813  -0.109   8.311  1.8103  1.1957 -1.8805
  148SAPE  H17Y16424   0.769   0.045   8.381  0.6247 -2.2516  1.8983
  148SAPE  C31816425   0.783   0.046   8.167  0.1292 -0.8408  0.4263
  148SAPE  H18X16426   0.739  -0.002   8.077  1.0987 -1.4056  0.2342
  148SAPE  H18Y16427   0.893   0.064   8.161 -0.4031  2.7430 -1.0233
  148SAPE  H18Z16428   0.751   0.152   8.165  1.9321 -0.2630 -0.1825
  149SAPE     N16429   3.227   2.417  11.259 -1.0949 -0.8147  0.2426
  149SAPE   HN116430   3.248   2.501  11.316 -0.2214 -0.7049 -0.2331
  149SAPE   HN216431   3.133   2.373  11.265 -0.0098 -3.2601  0.8675
  149SAPE   HN316432   3.298   2.342  11.272 -0.9257 -0.5453  0.8924
  149SAPE   C1216433   3.229   2.468  11.120  0.1168  0.3634 -0.2500
  149SAPE  H12A16434   3.323   2.525  11.109  0.9519 -1.2216 -2.0304
  149SAPE  H12B16435   3.146   2.539  11.103 -1.6267 -1.3926  0.5468
  149SAPE   C1116436   3.226   2.344  11.032  0.0624 -0.4827  0.1828
  149SAPE  H11A16437   3.226   2.376  10.926  0.8046 -1.2382 -0.0641
  149SAPE  H11B16438   3.132   2.287  11.052 -0.0316  0.7895  4.1892
  149SAPE     P16439   3.351   2.119  11.008  0.1021 -0.2040 -0.0225
  149SAPE   O1316440   3.490   2.075  11.020 -0.1739  0.2791 -0.4858
  149SAPE   O1416441   3.247   2.040  11.073  0.4280 -0.4942  0.1316
  149SAPE   O1216442   3.348   2.266  11.066 -0.2836 -0.4535  0.6117
  149SAPE   O1116443   3.312   2.142  10.852 -0.1751  0.2295 -0.3439
  149SAPE    C116444   3.388   2.232  10.773  0.3384  0.3745  0.8046
  149SAPE    HA16445   3.324   2.312  10.731  0.8218  0.0768 -0.5495
  149SAPE    HB16446   3.459   2.292  10.834 -3.7576  3.2873  3.1956
  149SAPE    C216447   3.454   2.164  10.649 -0.5702  0.0044  0.2517
  149SAPE    HS16448   3.529   2.228  10.598 -0.0863  0.8032  1.8729
  149SAPE   O2116449   3.348   2.131  10.553 -0.2154  0.1067  0.0964
  149SAPE   C2116450   3.292   2.233  10.491 -0.1559  0.4934  0.2063
  149SAPE   O2216451   3.332   2.349  10.489  0.2586 -0.5267  0.8151
  149SAPE   C2216452   3.178   2.173  10.403  0.7267  0.6190  0.5592
  149SAPE   H2R16453   3.217   2.166  10.299  0.1039  1.6907  0.2369
  149SAPE   H2S16454   3.152   2.075  10.449  2.2398 -0.4469 -0.7552
  149SAPE    C316455   3.524   2.032  10.697 -0.6385  0.4768  0.2701
  149SAPE    HX16456   3.466   1.940  10.717  0.6667 -0.4260  0.0786
  149SAPE    HY16457   3.574   2.059  10.793 -0.1246  1.3922 -0.2385
  149SAPE   O3116458   3.615   1.985  10.598 -0.4402  0.0278 -0.5071
  149SAPE   C3116459   3.727   2.040  10.594 -0.2033  0.0621  0.9578
  149SAPE   O3216460   3.778   2.118  10.673 -0.0620  0.0296  0.0595
  149SAPE   C3216461   3.783   2.010  10.449 -0.4613  0.2014 -1.1405
  149SAPE   H2X16462   3.781   1.900  10.434  2.9369 -0.9222  3.9771
  149SAPE   H2Y16463   3.889   2.043  10.445 -0.0958 -0.2692  1.8565
  149SAPE   C2316464   3.059   2.270  10.396 -0.1243 -0.0101 -0.1958
  149SAPE   H3R16465   3.092   2.361  10.341  0.4399 -0.5630 -0.7951
  149SAPE   H3S16466   3.026   2.300  10.497 -1.4462  0.5404 -0.7708
  149SAPE   C2416467   2.928   2.223  10.324  0.0744  0.2862  0.8007
  149SAPE   H4R16468   2.954   2.200  10.219 -0.7491 -1.5439  0.9676
  149SAPE   H4S16469   2.854   2.306  10.322 -1.5497 -1.0952  1.3908
  149SAPE   C2516470   2.867   2.103  10.393  0.6823 -0.4415  0.1160
  149SAPE   H5R16471   2.879   2.104  10.502  2.0334 -0.2106 -0.0198
  149SAPE   C2616472   2.822   1.984  10.341  0.1770 -0.7296 -0.1623
  149SAPE   H6R16473   2.785   1.903  10.405  0.4498 -1.7814 -1.3063
  149SAPE   C2716474   2.801   1.954  10.200 -0.2754  0.4217 -0.0987
  149SAPE   H7R16475   2.767   2.045  10.145  2.4520  0.6035 -1.6463
  149SAPE   H7S16476   2.716   1.883  10.198 -3.6118  4.0460 -1.0962
  149SAPE   C2816477   2.921   1.897  10.130  0.3298 -0.5189 -0.1022
  149SAPE   H8R16478   3.020   1.906  10.176  0.4651  1.7312 -0.6974
  149SAPE   C2916479   2.908   1.850  10.007 -0.4313  0.8974 -0.1057
  149SAPE   H9R16480   2.993   1.803   9.954 -0.8489  0.6829 -0.5933
  149SAPE  C21016481   2.781   1.839   9.928 -0.6146 -0.0502  0.3268
  149SAPE  H10R16482   2.778   1.887   9.828 -3.9274  1.5952  1.0895
  149SAPE  H10S16483   2.694   1.879   9.984 -1.4495 -0.5982 -0.5534
  149SAPE  C21116484   2.755   1.699   9.894  0.0949  0.7175  0.5396
  149SAPE  H11R16485   2.703   1.647   9.975  2.5400  1.9589  3.0453
  149SAPE  C21216486   2.768   1.629   9.777 -0.4274  0.2565  0.2454
  149SAPE  H12R16487   2.720   1.530   9.772 -1.1374  0.6295 -0.9068
  149SAPE  C21316488   2.818   1.678   9.641  0.0059 -0.0812 -0.2120
  149SAPE  H13R16489   2.904   1.622   9.598  1.5338  2.0043 -0.0446
  149SAPE  H13S16490   2.850   1.782   9.661 -2.7649  0.4872  1.8185
  149SAPE  C21416491   2.701   1.687   9.540 -0.9043 -0.0455 -0.6070
  149SAPE  H14R16492   2.598   1.671   9.576 -1.2201  3.5013  0.4963
  149SAPE  C21516493   2.717   1.735   9.416 -0.7945  0.1847 -0.1997
  149SAPE  H15R16494   2.628   1.740   9.351  0.1187 -1.0764 -1.6086
  149SAPE  C21616495   2.837   1.779   9.345  0.4267  0.3179  0.0260
  149SAPE  H16R16496   2.930   1.740   9.390 -0.7402 -0.3477  1.9945
  149SAPE  H16S16497   2.839   1.890   9.351 -0.0684  0.2622  1.5619
  149SAPE  C21716498   2.828   1.750   9.196  0.4692  0.6536  0.5399
  149SAPE  H17R16499   2.920   1.796   9.155  1.6096 -0.5820  1.5895
  149SAPE  H17S16500   2.750   1.814   9.151  0.7828 -0.1760 -1.2995
  149SAPE  C21816501   2.823   1.608   9.149 -0.1862  0.6102  0.0403
  149SAPE  H18R16502   2.727   1.565   9.184 -0.2137 -0.7176 -1.5557
  149SAPE  H18S16503   2.906   1.551   9.195  0.0481  0.5890 -0.4034
  149SAPE  C21916504   2.819   1.581   9.003  0.1992 -0.3015  0.2867
  149SAPE  H19R16505   2.848   1.476   8.978 -1.5900 -0.8770  0.4863
  149SAPE  H19S16506   2.891   1.645   8.949 -0.8225 -0.3645 -1.1991
  149SAPE  C22016507   2.680   1.610   8.946 -0.0183  0.2922 -0.5421
  149SAPE  H20R16508   2.602   1.550   8.997 -3.2934  3.6738 -1.1259
  149SAPE  H20S16509   2.677   1.591   8.837 -1.9353  2.4083 -0.9466
  149SAPE  H20T16510   2.650   1.716   8.960 -0.4671 -0.0928  1.7399
  149SAPE   C3316511   3.715   2.085  10.337  0.5607 -0.9425  0.7154
  149SAPE   H3X16512   3.741   2.192  10.350 -1.0192 -0.6718  1.7909
  149SAPE   H3Y16513   3.605   2.088  10.346  0.5268  2.3318  0.3915
  149SAPE   C3416514   3.768   2.036  10.201  0.3586 -0.3874 -0.1725
  149SAPE   H4X16515   3.769   1.925  10.200 -0.3427 -0.3923 -0.4246
  149SAPE   H4Y16516   3.877   2.058  10.207  0.7591 -2.4118  1.1939
  149SAPE   C3516517   3.695   2.096  10.080  0.2273  0.4614 -0.2926
  149SAPE   H5X16518   3.702   2.206  10.074 -0.3718  0.4370 -1.8391
  149SAPE   H5Y16519   3.588   2.067  10.073  0.5568 -0.8510 -0.1177
  149SAPE   C3616520   3.745   2.039   9.944  0.0950 -0.3205  0.2917
  149SAPE   H6X16521   3.759   1.929   9.949 -0.8429 -0.3935  2.0268
  149SAPE   H6Y16522   3.848   2.075   9.922  0.0755 -0.9340 -0.9029
  149SAPE   C3716523   3.646   2.071   9.829  0.0380 -0.2193 -0.6305
  149SAPE   H7X16524   3.634   2.182   9.835 -0.7817 -0.1689 -2.5158
  149SAPE   H7Y16525   3.542   2.046   9.857  0.0382 -0.0720 -0.4908
  149SAPE   C3816526   3.700   2.031   9.695  0.2018 -0.1499  0.3599
  149SAPE   H8X16527   3.702   1.920   9.686 -1.6101 -0.2499  0.8146
  149SAPE   H8Y16528   3.802   2.070   9.676  0.0919  1.1251  2.1004
  149SAPE   C3916529   3.601   2.065   9.582 -0.5276  1.0747  0.2265
  149SAPE   H9X16530   3.587   2.175   9.586  0.5569  1.3056 -1.2063
  149SAPE   H9Y16531   3.507   2.014   9.612  0.9409 -1.1389  1.3811
  149SAPE  C31016532   3.650   2.006   9.448  0.2953 -0.0175  0.1816
  149SAPE  H10X16533   3.653   1.895   9.448 -0.5215 -0.0448  0.5348
  149SAPE  H10Y16534   3.751   2.053   9.437 -0.1088  0.8040 -0.1400
  149SAPE  C31116535   3.563   2.055   9.334  0.4230 -0.2670 -0.9322
  149SAPE  H11X16536   3.476   2.119   9.362  2.3630  1.8346  0.7074
  149SAPE  H11Y16537   3.534   1.958   9.289 -0.2943 -2.2542  3.3450
  149SAPE  C31216538   3.648   2.145   9.247 -0.5622 -0.4814  0.0192
  149SAPE  H12X16539   3.747   2.098   9.230 -0.4977  0.0349 -1.0903
  149SAPE  H12Y16540   3.669   2.241   9.297  2.9610 -0.9338 -0.3476
  149SAPE  C31316541   3.585   2.175   9.114  0.1929  0.0929 -0.0934
  149SAPE  H13X16542   3.655   2.246   9.065 -0.8609  1.2065 -0.0556
  149SAPE  H13Y16543   3.489   2.230   9.128  0.0922 -0.6971  3.4100
  149SAPE  C31416544   3.574   2.059   9.023  0.1742  0.3245 -0.5149
  149SAPE  H14X16545   3.504   1.986   9.068  0.2883 -0.9593 -2.2901
  149SAPE  H14Y16546   3.675   2.015   9.014 -0.3499 -0.7188 -1.5358
  149SAPE  C31516547   3.532   2.117   8.883  0.3494  0.2071  0.2357
  149SAPE  H15X16548   3.609   2.196   8.876  0.6873  0.1349  2.4371
  149SAPE  H15Y16549   3.435   2.167   8.906  0.7460  0.9797  0.2329
  149SAPE  C31616550   3.528   2.015   8.773 -0.0478 -0.2308 -0.2520
  149SAPE  H16X16551   3.424   1.981   8.755  0.4301 -0.9979 -1.7776
  149SAPE  H16Y16552   3.587   1.927   8.805 -3.2849 -1.7800  1.9540
  149SAPE  C31716553   3.565   2.083   8.637  0.5051  0.4489 -0.2288
  149SAPE  H17X16554   3.497   2.168   8.616 -0.2609  0.1055  0.7635
  149SAPE  H17Y16555   3.532   2.008   8.562 -1.0859  0.7459  0.1376
  149SAPE  C31816556   3.705   2.124   8.625 -0.7681  0.1424 -0.1345
  149SAPE  H18X16557   3.715   2.187   8.534 -0.3959  0.7194  0.3031
  149SAPE  H18Y16558   3.765   2.033   8.604  0.2749  0.8959 -0.4776
  149SAPE  H18Z16559   3.751   2.183   8.707 -0.6643  2.1916 -1.5822
  150SAPE     N16560   4.182   6.694  10.631  0.1392  0.2058  0.2626
  150SAPE   HN116561   4.099   6.641  10.599 -0.1602  0.0907  1.2092
  150SAPE   HN216562   4.240   6.753  10.567  1.3051  0.7188  1.7355
  150SAPE   HN316563   4.250   6.632  10.680 -0.3034  0.2269  0.9088
  150SAPE   C1216564   4.121   6.782  10.739  0.0365  0.3099 -0.6627
  150SAPE  H12A16565   4.043   6.851  10.702  1.1374  2.0704  0.2020
  150SAPE  H12B16566   4.205   6.838  10.785  0.8195 -1.1631 -0.2201
  150SAPE   C1116567   4.055   6.697  10.853 -0.4095 -0.3135  0.4029
  150SAPE  H11A16568   4.016   6.770  10.928  0.4864  1.5522 -0.8595
  150SAPE  H11B16569   4.139   6.635  10.893  0.3402 -0.9268 -1.9767
  150SAPE     P16570   3.839   6.563  10.886  0.0724 -0.8097 -0.0143
  150SAPE   O1316571   3.763   6.456  10.820 -0.4176 -0.0481  1.0467
  150SAPE   O1416572   3.897   6.535  11.017 -0.1552 -0.3628  0.0754
  150SAPE   O1216573   3.957   6.614  10.791  0.1608 -0.6229  0.6840
  150SAPE   O1116574   3.751   6.689  10.912 -0.0154  0.3351 -0.2183
  150SAPE    C116575   3.756   6.806  10.826 -0.3246 -0.3516  0.2222
  150SAPE    HA16576   3.805   6.885  10.888  0.6077 -1.3620  0.8080
  150SAPE    HB16577   3.817   6.799  10.734 -0.8948 -0.9203 -0.1105
  150SAPE    C216578   3.617   6.854  10.774  0.1307 -0.1047 -0.7833
  150SAPE    HS16579   3.550   6.896  10.852 -0.8679 -0.6272 -1.3440
  150SAPE   O2116580   3.562   6.749  10.694  0.8540 -0.2408 -0.0588
  150SAPE   C2116581   3.485   6.668  10.771  0.4980  0.1017 -0.1879
  150SAPE   O2216582   3.452   6.690  10.888  0.1749 -0.1144  0.7589
  150SAPE   C2216583   3.452   6.536  10.693  0.2851 -0.0003 -0.4377
  150SAPE   H2R16584   3.478   6.557  10.587  1.7416 -0.9743 -0.3067
  150SAPE   H2S16585   3.537   6.467  10.713  0.3149  0.3647  0.8003
  150SAPE    C316586   3.634   6.985  10.682  0.4748  0.1431 -0.3809
  150SAPE    HX16587   3.671   7.049  10.764 -0.9297  0.6206 -0.0955
  150SAPE    HY16588   3.530   7.015  10.656  0.0126  0.5907  1.8236
  150SAPE   O3116589   3.718   6.971  10.569  0.2589  0.1873 -0.7629
  150SAPE   C3116590   3.741   7.084  10.503  0.1181 -0.4907  0.1220
  150SAPE   O3216591   3.695   7.195  10.536  0.0457  0.0544 -0.3566
  150SAPE   C3216592   3.852   7.061  10.405  0.0138 -0.6900  0.3649
  150SAPE   H2X16593   3.818   6.975  10.345  0.0770 -1.3270  1.2193
  150SAPE   H2Y16594   3.934   7.030  10.474  0.3043  0.3870  0.5305
  150SAPE   C2316595   3.309   6.472  10.710 -0.4980 -0.5531  0.3713
  150SAPE   H3R16596   3.274   6.481  10.815  0.6267  0.8127  0.6592
  150SAPE   H3S16597   3.310   6.371  10.664  0.9288 -0.9633  1.2375
  150SAPE   C2416598   3.207   6.544  10.620  0.2956  0.3010 -0.0961
  150SAPE   H4R16599   3.119   6.478  10.606 -0.2526  1.0885 -0.3515
  150SAPE   H4S16600   3.257   6.551  10.521  0.9268 -1.0412  0.1016
  150SAPE   C2516601   3.178   6.682  10.672 -0.2094  0.1112 -0.2970
  150SAPE   H5R16602   3.099   6.682  10.749 -0.6787  1.9090 -0.7201
  150SAPE   C2616603   3.223   6.802  10.633  0.0890  0.7433  0.5871
  150SAPE   H6R16604   3.191   6.883  10.700  0.4734  1.8585 -0.5384
  150SAPE   C2716605   3.322   6.828  10.521  0.1235 -0.4737 -0.4951
  150SAPE   H7R16606   3.387   6.746  10.484 -0.1998 -1.6110  1.3320
  150SAPE   H7S16607   3.388   6.916  10.539  0.2145 -0.1004 -2.4527
  150SAPE   C2816608   3.240   6.879  10.403  0.6576  0.2899 -0.6794
  150SAPE   H8R16609   3.190   6.972  10.434 -2.0742 -1.5733  0.9050
  150SAPE   C2916610   3.220   6.825  10.285 -0.7393 -0.0659  0.0109
  150SAPE   H9R16611   3.161   6.883  10.213  0.5090  0.2937 -0.7419
  150SAPE  C21016612   3.287   6.702  10.236 -0.0318 -0.1448  0.1720
  150SAPE  H10R16613   3.327   6.645  10.323 -1.5039 -1.4289  0.0463
  150SAPE  H10S16614   3.382   6.732  10.186  1.0237 -2.7289  0.4565
  150SAPE  C21116615   3.213   6.607  10.150  0.8478 -0.0609 -0.3834
  150SAPE  H11R16616   3.141   6.543  10.202  1.6205 -0.5417  0.1084
  150SAPE  C21216617   3.229   6.589  10.016  0.3582 -0.3301  0.7298
  150SAPE  H12R16618   3.165   6.511   9.973 -0.8997 -0.4463  2.6986
  150SAPE  C21316619   3.322   6.667   9.922 -1.0727 -0.7107  0.8079
  150SAPE  H13R16620   3.360   6.597   9.845 -4.0218 -1.5846  0.0115
  150SAPE  H13S16621   3.403   6.724   9.972 -1.1436 -0.4790  0.6599
  150SAPE  C21416622   3.240   6.774   9.853  0.2166 -0.6841 -0.5462
  150SAPE  H14R16623   3.207   6.854   9.920  2.7729  0.1457 -0.1590
  150SAPE  C21516624   3.208   6.764   9.730 -0.0654 -0.0669  0.3176
  150SAPE  H15R16625   3.135   6.839   9.696 -0.3362 -0.2460  0.5027
  150SAPE  C21616626   3.253   6.652   9.635  0.6726 -0.3243  0.7440
  150SAPE  H16R16627   3.249   6.556   9.690 -1.6579 -1.1354 -0.7003
  150SAPE  H16S16628   3.360   6.668   9.610  0.8443 -1.7709  0.4655
  150SAPE  C21716629   3.159   6.645   9.509 -0.7554 -0.3691 -0.1788
  150SAPE  H17R16630   3.064   6.592   9.531 -0.2444 -1.8048 -1.2270
  150SAPE  H17S16631   3.225   6.578   9.449  4.0944  0.2979  3.7825
  150SAPE  C21816632   3.139   6.779   9.427  0.1413  0.5632 -0.2506
  150SAPE  H18R16633   3.236   6.826   9.398 -0.7373  0.9016 -2.9406
  150SAPE  H18S16634   3.071   6.846   9.483 -0.5649 -1.7005  1.7507
  150SAPE  C21916635   3.071   6.749   9.287 -0.6273 -0.2188 -1.0256
  150SAPE  H19R16636   2.965   6.721   9.305  0.0773 -1.9450  0.7690
  150SAPE  H19S16637   3.112   6.660   9.236 -1.2041  0.1724 -2.2151
  150SAPE  C22016638   3.071   6.870   9.190  0.6654 -0.1105 -0.0842
  150SAPE  H20R16639   3.014   6.846   9.098 -0.1146  0.1801  0.3158
  150SAPE  H20S16640   3.174   6.906   9.165  0.7672 -1.3396 -1.5854
  150SAPE  H20T16641   3.014   6.951   9.242 -2.1769 -0.2339 -2.7246
  150SAPE   C3316642   3.893   7.178  10.311  0.0553  0.2789 -0.0160
  150SAPE   H3X16643   3.999   7.166  10.278 -0.2993 -1.5717 -0.6024
  150SAPE   H3Y16644   3.893   7.265  10.380  0.7532 -1.0081  1.6809
  150SAPE   C3416645   3.791   7.203  10.194 -0.7448 -0.2338  0.9806
  150SAPE   H4X16646   3.706   7.251  10.247  0.6166  1.7841  1.4351
  150SAPE   H4Y16647   3.762   7.102  10.157  0.7458 -0.8092  1.2891
  150SAPE   C3516648   3.842   7.292  10.088 -0.2580 -0.2424  0.6492
  150SAPE   H5X16649   3.762   7.302  10.011  1.2068 -1.8988 -1.2311
  150SAPE   H5Y16650   3.935   7.256  10.039 -0.7853  0.3876 -0.8842
  150SAPE   C3616651   3.859   7.425  10.156  0.3238  0.7655 -0.1815
  150SAPE   H6X16652   3.943   7.428  10.229 -1.0828  2.2050  1.4838
  150SAPE   H6Y16653   3.767   7.453  10.211 -0.8885  1.0788 -2.2918
  150SAPE   C3716654   3.887   7.551  10.067 -0.5095 -0.1783 -0.4606
  150SAPE   H7X16655   3.984   7.545  10.013  0.9267 -1.0032  2.0348
  150SAPE   H7Y16656   3.874   7.644  10.126  3.5578  1.1631 -1.3507
  150SAPE   C3816657   3.791   7.565   9.948 -0.3746  0.9621  0.1916
  150SAPE   H8X16658   3.757   7.667   9.921 -2.5633  0.4720  0.9204
  150SAPE   H8Y16659   3.700   7.508   9.977 -0.1882  0.5616 -0.0038
  150SAPE   C3916660   3.844   7.501   9.818  0.8344  0.1497  0.1243
  150SAPE   H9X16661   3.848   7.396   9.854 -1.6058  1.4319  5.0641
  150SAPE   H9Y16662   3.944   7.548   9.805  0.2916  1.3789  0.2849
  150SAPE  C31016663   3.749   7.531   9.701 -0.1856  0.2520  0.1356
  150SAPE  H10X16664   3.749   7.640   9.677  0.2774 -0.3617 -3.0995
  150SAPE  H10Y16665   3.647   7.514   9.742 -0.0984 -0.2215  0.1573
  150SAPE  C31116666   3.776   7.453   9.573 -0.5168  1.1408 -0.6387
  150SAPE  H11X16667   3.783   7.346   9.601  0.0146  2.0060  3.0293
  150SAPE  H11Y16668   3.872   7.481   9.523  0.3783 -1.9232 -0.8489
  150SAPE  C31216669   3.665   7.462   9.467 -0.3596 -0.6745  0.2683
  150SAPE  H12X16670   3.618   7.563   9.459  2.4322  0.7969  1.0264
  150SAPE  H12Y16671   3.591   7.388   9.503  0.8663 -1.4123  1.3844
  150SAPE  C31316672   3.705   7.403   9.328  0.0522  0.3192 -0.4557
  150SAPE  H13X16673   3.611   7.409   9.270  0.3290 -0.3925 -0.9832
  150SAPE  H13Y16674   3.733   7.296   9.326 -2.4608 -0.4706 -4.9717
  150SAPE  C31416675   3.819   7.487   9.261 -0.3902 -0.6508  0.4475
  150SAPE  H14X16676   3.918   7.453   9.298 -1.2297 -2.5385  1.0817
  150SAPE  H14Y16677   3.806   7.593   9.291  0.4133 -1.1889  2.9554
  150SAPE  C31516678   3.817   7.472   9.108 -0.4343 -0.3495 -0.0305
  150SAPE  H15X16679   3.835   7.368   9.073  0.5461 -0.4422  0.7068
  150SAPE  H15Y16680   3.902   7.535   9.075 -1.2184 -0.4118 -2.3258
  150SAPE  C31616681   3.694   7.521   9.031  0.0739 -0.4237 -0.1868
  150SAPE  H16X16682   3.668   7.618   9.077 -1.4594 -1.5161  1.3961
  150SAPE  H16Y16683   3.610   7.452   9.055  0.8069 -1.2906 -0.0527
  150SAPE  C31716684   3.713   7.535   8.882  0.5184 -0.5201 -0.4158
  150SAPE  H17X16685   3.628   7.593   8.839 -1.8207 -2.7913  0.8392
  150SAPE  H17Y16686   3.702   7.440   8.826 -0.4885 -0.6207 -0.0761
  150SAPE  C31816687   3.842   7.598   8.830 -0.8121 -0.0342 -0.8226
  150SAPE  H18X16688   3.846   7.708   8.848 -2.1710 -0.0156 -0.5195
  150SAPE  H18Y16689   3.839   7.583   8.720 -0.9004 -0.7316 -0.7282
  150SAPE  H18Z16690   3.934   7.549   8.870 -1.4440  0.5616  1.5405
  151SAPE     N16691   1.478   4.457  10.846  0.1110  0.3741  0.2664
  151SAPE   HN116692   1.483   4.561  10.838 -0.9788  0.4817  0.7716
  151SAPE   HN216693   1.393   4.429  10.899 -0.4394  1.2988 -0.0975
  151SAPE   HN316694   1.564   4.426  10.896  0.9250  1.1378 -0.5979
  151SAPE   C1216695   1.463   4.400  10.712 -0.5315  0.3020  0.0482
  151SAPE  H12A16696   1.534   4.446  10.640 -0.3567 -0.1795 -0.0917
  151SAPE  H12B16697   1.361   4.419  10.672 -0.7461 -2.9786 -1.3275
  151SAPE   C1116698   1.479   4.250  10.707 -0.1529  0.7017 -0.0141
  151SAPE  H11A16699   1.464   4.204  10.606  3.3434  0.3766 -0.5077
  151SAPE  H11B16700   1.398   4.211  10.771 -0.0087 -0.3818 -0.4538
  151SAPE     P16701   1.739   4.270  10.707 -0.4708  0.3427 -0.0136
  151SAPE   O1316702   1.764   4.406  10.755  0.4298  0.4915 -0.5005
  151SAPE   O1416703   1.844   4.170  10.736 -0.1313 -0.0450 -0.1012
  151SAPE   O1216704   1.603   4.202  10.757  0.3380 -0.7395  0.8236
  151SAPE   O1116705   1.715   4.275  10.555 -0.0532 -0.3834 -0.2671
  151SAPE    C116706   1.805   4.206  10.465 -0.2513  0.2728  0.9163
  151SAPE    HA16707   1.902   4.259  10.469 -0.0993  0.2158 -1.3023
  151SAPE    HB16708   1.822   4.101  10.495  0.9560  0.0359 -0.5177
  151SAPE    C216709   1.767   4.225  10.318 -0.3596 -0.5631  0.2222
  151SAPE    HS16710   1.779   4.331  10.289 -0.1243 -0.5279  0.4429
  151SAPE   O2116711   1.636   4.182  10.305  0.2567 -0.2331  0.7274
  151SAPE   C2116712   1.572   4.234  10.198  0.0820  0.7478  0.4947
  151SAPE   O2216713   1.617   4.320  10.126  0.2545 -0.1204 -0.5552
  151SAPE   C2216714   1.441   4.154  10.183  0.0030 -0.0474  0.0830
  151SAPE   H2R16715   1.478   4.050  10.193  3.2013  0.4163 -4.1685
  151SAPE   H2S16716   1.375   4.170  10.271  1.0917  0.3307  0.8577
  151SAPE    C316717   1.870   4.147  10.235  0.0726 -0.1477  1.4624
  151SAPE    HX16718   1.831   4.043  10.223 -0.9335  0.4543 -0.8963
  151SAPE    HY16719   1.969   4.133  10.282 -0.0906  0.7254  2.0931
  151SAPE   O3116720   1.878   4.226  10.112  0.0649  0.2329 -0.2868
  151SAPE   C3116721   1.849   4.163   9.995  0.2769  0.8833  0.7211
  151SAPE   O3216722   1.819   4.046   9.987 -0.2779 -0.2625  0.1082
  151SAPE   C3216723   1.860   4.252   9.869 -0.3060  0.6210 -0.1540
  151SAPE   H2X16724   1.900   4.195   9.783  0.1536 -1.2592  1.2519
  151SAPE   H2Y16725   1.929   4.334   9.900 -1.0920  1.1402  0.2873
  151SAPE   C2316726   1.366   4.165  10.054 -0.2296 -0.2822  0.7184
  151SAPE   H3R16727   1.293   4.081  10.063  0.1805 -0.9133 -1.3267
  151SAPE   H3S16728   1.406   4.151   9.951 -1.8894  2.5870 -0.4466
  151SAPE   C2416729   1.267   4.280  10.054  0.2106 -0.2247  0.4674
  151SAPE   H4R16730   1.219   4.275  10.154 -1.6992  0.1913 -0.3779
  151SAPE   H4S16731   1.180   4.261   9.987 -0.6624  0.5600  1.3478
  151SAPE   C2516732   1.324   4.410  10.005 -0.3459  0.1433  0.0722
  151SAPE   H5R16733   1.398   4.447  10.078 -0.8522 -0.4800  0.9237
  151SAPE   C2616734   1.302   4.474   9.893  0.2227 -0.4035 -0.5133
  151SAPE   H6R16735   1.355   4.570   9.885  0.1814 -0.5372 -3.0829
  151SAPE   C2716736   1.218   4.449   9.780  0.2234  0.4492 -0.0478
  151SAPE   H7R16737   1.170   4.537   9.732 -0.4371  1.2966  2.0311
  151SAPE   H7S16738   1.142   4.376   9.814  2.6009 -2.2931 -0.1947
  151SAPE   C2816739   1.302   4.376   9.675 -0.5879  0.4033  0.4513
  151SAPE   H8R16740   1.376   4.303   9.710  0.3815  0.5201 -1.2957
  151SAPE   C2916741   1.313   4.403   9.538  0.3809 -1.1512 -0.6593
  151SAPE   H9R16742   1.368   4.327   9.481  1.9443 -1.3561  1.0262
  151SAPE  C21016743   1.239   4.504   9.459 -0.3586 -0.3821  0.5756
  151SAPE  H10R16744   1.244   4.598   9.518  1.2300  0.1134 -0.3013
  151SAPE  H10S16745   1.134   4.478   9.433 -0.3030  0.7135 -0.8669
  151SAPE  C21116746   1.320   4.537   9.338  0.0146  0.6193  0.2197
  151SAPE  H11R16747   1.381   4.628   9.348  1.5038 -0.5618  2.9177
  151SAPE  C21216748   1.335   4.458   9.227  0.5519  0.0674 -0.4378
  151SAPE  H12R16749   1.391   4.503   9.144  0.0607  2.4842  0.4550
  151SAPE  C21316750   1.277   4.322   9.203 -0.1252 -0.4509 -0.0824
  151SAPE  H13R16751   1.227   4.314   9.104  0.1086 -2.2764 -0.0921
  151SAPE  H13S16752   1.198   4.281   9.269 -0.1478  0.9368  0.7769
  151SAPE  C21416753   1.392   4.221   9.202  0.3333  0.4177 -0.1415
  151SAPE  H14R16754   1.465   4.234   9.284 -0.7578  2.0693  0.6257
  151SAPE  C21516755   1.409   4.112   9.123  0.0114  0.0931  0.1384
  151SAPE  H15R16756   1.502   4.055   9.132  1.6570  2.4270 -0.8988
  151SAPE  C21616757   1.317   4.076   9.006  0.0111 -0.2832  1.1329
  151SAPE  H16R16758   1.212   4.107   9.022 -0.2804  1.5589 -3.0687
  151SAPE  H16S16759   1.306   3.965   9.000  1.0987 -0.3639  0.3338
  151SAPE  C21716760   1.360   4.135   8.870 -0.3660 -0.0694 -0.6218
  151SAPE  H17R16761   1.395   4.240   8.883 -2.0854  0.1516  4.2631
  151SAPE  H17S16762   1.280   4.143   8.793  2.6104  1.9198 -3.7996
  151SAPE  C21816763   1.481   4.059   8.811  0.7254 -0.2759 -0.0845
  151SAPE  H18R16764   1.458   3.951   8.811 -1.7127  0.1387  2.0156
  151SAPE  H18S16765   1.562   4.072   8.887  1.8159 -1.3696 -1.0253
  151SAPE  C21916766   1.524   4.079   8.673  0.1173 -0.3799  0.0611
  151SAPE  H19R16767   1.542   4.186   8.653  0.2489 -0.3948  0.0989
  151SAPE  H19S16768   1.442   4.050   8.604  0.5235  0.8587 -0.9826
  151SAPE  C22016769   1.651   4.006   8.623  0.8215 -0.5130 -0.3741
  151SAPE  H20R16770   1.676   4.069   8.535 -1.9432 -0.8305 -1.4663
  151SAPE  H20S16771   1.631   3.900   8.596  1.6075 -0.8637  0.3471
  151SAPE  H20T16772   1.741   4.010   8.689  0.0388  1.3722  0.6680
  151SAPE   C3316773   1.735   4.330   9.828 -0.0582 -0.4214  0.5213
  151SAPE   H3X16774   1.689   4.386   9.912  0.8968 -1.9936  2.1682
  151SAPE   H3Y16775   1.647   4.263   9.817 -0.9329  0.3715  2.2564
  151SAPE   C3416776   1.770   4.408   9.702 -0.2937  0.6257 -0.9254
  151SAPE   H4X16777   1.790   4.331   9.624  0.2996  0.4963 -0.6476
  151SAPE   H4Y16778   1.867   4.456   9.727  0.1399 -0.5899 -0.1817
  151SAPE   C3516779   1.675   4.505   9.635 -1.1041 -0.4038 -0.5323
  151SAPE   H5X16780   1.668   4.590   9.705  1.5119  0.6321 -1.4159
  151SAPE   H5Y16781   1.581   4.445   9.627 -1.9349  0.9386 -1.2541
  151SAPE   C3616782   1.723   4.560   9.497  0.4792 -0.3302 -0.6920
  151SAPE   H6X16783   1.822   4.606   9.518  0.4350  0.6475 -2.4560
  151SAPE   H6Y16784   1.644   4.630   9.464 -1.7813 -2.1143  0.6996
  151SAPE   C3716785   1.746   4.455   9.392  0.3109  0.1445  0.6013
  151SAPE   H7X16786   1.665   4.379   9.403  0.7164 -0.0462  2.6289
  151SAPE   H7Y16787   1.841   4.399   9.403  1.6199  0.9082 -4.3392
  151SAPE   C3816788   1.733   4.521   9.253 -0.7413  0.0014 -0.1098
  151SAPE   H8X16789   1.626   4.543   9.233 -0.7666 -1.1386 -1.3790
  151SAPE   H8Y16790   1.767   4.442   9.182  1.3593 -0.2494  1.1028
  151SAPE   C3916791   1.815   4.644   9.214 -0.5326  0.3363 -0.0660
  151SAPE   H9X16792   1.905   4.635   9.278 -1.8213  0.9282  1.9581
  151SAPE   H9Y16793   1.767   4.739   9.247 -0.1586  0.8154 -0.8951
  151SAPE  C31016794   1.845   4.669   9.060  0.0259  0.1155 -0.6128
  151SAPE  H10X16795   1.893   4.769   9.053 -0.9098  0.7116  0.9036
  151SAPE  H10Y16796   1.752   4.665   9.001 -0.5493 -1.2996  0.3416
  151SAPE  C31116797   1.937   4.565   8.981 -0.0863 -0.9790  0.1991
  151SAPE  H11X16798   1.913   4.469   9.031 -0.8675 -0.7754  0.2423
  151SAPE  H11Y16799   2.044   4.587   9.000 -0.2446  1.4654 -1.2751
  151SAPE  C31216800   1.911   4.554   8.826 -1.0075 -0.8075  0.1721
  151SAPE  H12X16801   1.804   4.525   8.812 -0.9579 -0.7423 -0.3581
  151SAPE  H12Y16802   1.976   4.481   8.774  2.5362  3.1128 -1.4159
  151SAPE  C31316803   1.930   4.681   8.737  1.1552 -0.4425  0.1124
  151SAPE  H13X16804   1.862   4.763   8.769  0.9306 -0.3815 -0.5228
  151SAPE  H13Y16805   1.897   4.655   8.634  0.6006 -0.1851  0.2222
  151SAPE  C31416806   2.077   4.723   8.718 -0.4504 -1.1043 -0.1002
  151SAPE  H14X16807   2.130   4.636   8.674  1.7549 -1.5858  3.1414
  151SAPE  H14Y16808   2.121   4.747   8.817  0.4269  1.6526 -1.0572
  151SAPE  C31516809   2.093   4.848   8.631 -0.4302  0.5259  0.3535
  151SAPE  H15X16810   2.067   4.832   8.524  0.2272  3.2216 -0.2905
  151SAPE  H15Y16811   2.200   4.878   8.636  0.1237 -0.6927 -2.4034
  151SAPE  C31616812   2.031   4.972   8.691  0.1125 -0.0348 -0.6687
  151SAPE  H16X16813   2.059   4.992   8.797 -0.6867 -2.6260  0.1059
  151SAPE  H16Y16814   1.922   4.952   8.685  0.5820 -2.6874 -1.5323
  151SAPE  C31716815   2.055   5.110   8.619 -0.0853  0.0701  0.2984
  151SAPE  H17X16816   2.164   5.117   8.604 -0.1698 -0.6178 -0.8273
  151SAPE  H17Y16817   2.022   5.194   8.684 -0.3384  2.6266 -2.8808
  151SAPE  C31816818   1.998   5.118   8.484  0.2904  0.4420  0.1304
  151SAPE  H18X16819   2.056   5.196   8.430  0.8298  1.1819  1.7139
  151SAPE  H18Y16820   1.888   5.129   8.478  0.3854  1.0710 -0.6230
  151SAPE  H18Z16821   2.019   5.020   8.435 -1.0472  0.6406 -0.9073
  152SAPE     N16822   0.872   4.718  10.808  0.2606  0.1030 -0.0234
  152SAPE   HN116823   0.878   4.772  10.720 -0.6241 -2.1170 -1.5214
  152SAPE   HN216824   0.868   4.618  10.780 -1.1906  0.2589 -0.4100
  152SAPE   HN316825   0.781   4.746  10.849 -0.6570 -0.7582 -1.3842
  152SAPE   C1216826   0.982   4.736  10.907 -0.1197  0.1461 -0.0235
  152SAPE  H12A16827   0.971   4.666  10.993  0.5085 -0.2213 -0.2399
  152SAPE  H12B16828   0.976   4.840  10.946 -1.5751 -0.6129  1.9495
  152SAPE   C1116829   1.123   4.702  10.855 -0.0559  0.0244  0.7906
  152SAPE  H11A16830   1.130   4.592  10.844 -1.7289 -0.0005 -0.4963
  152SAPE  H11B16831   1.198   4.718  10.934  0.8787  0.1302 -0.0974
  152SAPE     P16832   1.281   4.751  10.645  0.3621  0.0964  0.0209
  152SAPE   O1316833   1.318   4.877  10.574  0.3523  0.1119  0.1589
  152SAPE   O1416834   1.393   4.691  10.722 -0.1268 -0.0984 -0.2392
  152SAPE   O1216835   1.155   4.780  10.743 -0.9548 -0.0683  0.2884
  152SAPE   O1116836   1.230   4.650  10.537 -0.0652  0.2907  0.5855
  152SAPE    C116837   1.095   4.653  10.490  0.5400 -0.1640 -0.4364
  152SAPE    HA16838   1.040   4.569  10.538 -0.9393  2.2381  2.4490
  152SAPE    HB16839   1.033   4.734  10.532 -1.0436 -0.1320 -2.6764
  152SAPE    C216840   1.077   4.662  10.337  0.0667  0.3417 -0.4476
  152SAPE    HS16841   1.137   4.576  10.300  0.7665  0.1868  0.9456
  152SAPE   O2116842   1.130   4.785  10.288  0.4679 -0.9816 -0.0495
  152SAPE   C2116843   1.254   4.788  10.259  0.0927  0.5442 -0.5441
  152SAPE   O2216844   1.331   4.695  10.265 -0.7557  0.3418 -0.1676
  152SAPE   C2216845   1.300   4.928  10.230 -0.6120  0.1373 -0.1985
  152SAPE   H2R16846   1.208   4.991  10.227 -1.0976 -0.5266  0.3294
  152SAPE   H2S16847   1.355   4.965  10.319 -0.5426 -0.6880  0.1029
  152SAPE    C316848   0.931   4.649  10.297  0.6468  0.3207  0.9758
  152SAPE    HX16849   0.883   4.749  10.305 -0.3532  0.0888 -1.2958
  152SAPE    HY16850   0.870   4.574  10.353 -0.6726  0.4800 -0.1926
  152SAPE   O3116851   0.915   4.621  10.153  0.1841 -0.1209 -0.3591
  152SAPE   C3116852   0.920   4.490  10.117  0.3849  0.5816  0.0279
  152SAPE   O3216853   0.956   4.402  10.194 -0.3291 -0.1732 -0.7379
  152SAPE   C3216854   0.888   4.476   9.970 -0.3840  0.0130 -0.0602
  152SAPE   H2X16855   0.980   4.501   9.914 -0.0690 -0.3747  0.2813
  152SAPE   H2Y16856   0.822   4.560   9.939  0.2076  0.4000 -0.2880
  152SAPE   C2316857   1.377   4.932  10.096  0.8596 -0.3601 -0.3193
  152SAPE   H3R16858   1.322   4.876  10.016  4.7535 -0.2294 -3.4146
  152SAPE   H3S16859   1.471   4.875  10.112 -0.7653 -3.0472  0.3299
  152SAPE   C2416860   1.413   5.075  10.051  0.3673 -0.2021 -0.3577
  152SAPE   H4R16861   1.496   5.067   9.977  3.0070  1.5927  2.1815
  152SAPE   H4S16862   1.470   5.123  10.134  1.2300  0.4732 -1.3074
  152SAPE   C2516863   1.299   5.157   9.997  0.1643  0.2462 -0.7040
  152SAPE   H5R16864   1.221   5.183  10.070  0.1138  0.7681 -0.9335
  152SAPE   C2616865   1.288   5.182   9.865 -0.1379  0.4460  0.1935
  152SAPE   H6R16866   1.210   5.246   9.822 -0.7763 -0.3202  0.1927
  152SAPE   C2716867   1.376   5.128   9.757 -0.1994 -0.5072 -0.1475
  152SAPE   H7R16868   1.477   5.155   9.794 -1.6605  1.6935  2.5598
  152SAPE   H7S16869   1.358   5.177   9.659  0.7120 -0.1240 -0.1317
  152SAPE   C2816870   1.374   4.978   9.740  0.0296 -0.0016 -0.0839
  152SAPE   H8R16871   1.372   4.928   9.837 -0.9710  0.3698  0.1090
  152SAPE   C2916872   1.369   4.895   9.634  0.3864  0.2431 -0.0067
  152SAPE   H9R16873   1.366   4.786   9.650  0.7752  0.1147 -0.7418
  152SAPE  C21016874   1.368   4.932   9.489 -0.2428 -0.3250  0.1657
  152SAPE  H10R16875   1.330   5.035   9.477  0.2001 -0.2883 -1.1303
  152SAPE  H10S16876   1.293   4.867   9.437  0.7182 -0.8543 -0.5994
  152SAPE  C21116877   1.500   4.907   9.417  0.5330  0.5401 -0.2955
  152SAPE  H11R16878   1.556   4.833   9.476 -1.0311 -0.6954 -0.3109
  152SAPE  C21216879   1.553   4.964   9.310 -0.3960 -0.2717 -0.2960
  152SAPE  H12R16880   1.660   4.939   9.299 -0.4561 -0.1321 -1.2546
  152SAPE  C21316881   1.492   5.087   9.228 -0.7141 -0.0129 -0.0749
  152SAPE  H13R16882   1.409   5.138   9.281  1.4689  2.2756  1.2841
  152SAPE  H13S16883   1.450   5.060   9.128  0.8278  0.0417 -0.7587
  152SAPE  C21416884   1.595   5.199   9.211  0.0416  0.0075  0.0547
  152SAPE  H14R16885   1.581   5.277   9.287 -0.7540 -0.3297  0.2693
  152SAPE  C21516886   1.688   5.219   9.115  0.3630 -0.5418 -0.2948
  152SAPE  H15R16887   1.756   5.304   9.132  3.3073 -2.6039 -0.9426
  152SAPE  C21616888   1.710   5.125   8.998  0.3558 -0.0440  0.4217
  152SAPE  H16R16889   1.728   5.020   9.031 -0.4297 -0.4392 -0.3783
  152SAPE  H16S16890   1.798   5.172   8.949  1.5175 -1.1696  1.3328
  152SAPE  C21716891   1.601   5.122   8.882 -1.0038  0.9818 -0.1784
  152SAPE  H17R16892   1.505   5.078   8.914  0.0132 -0.6458  0.7838
  152SAPE  H17S16893   1.641   5.056   8.801  1.8548  2.3881 -0.0531
  152SAPE  C21816894   1.575   5.263   8.827  0.1323  0.4432 -0.0608
  152SAPE  H18R16895   1.671   5.312   8.799 -1.0874  1.6252 -2.3761
  152SAPE  H18S16896   1.518   5.326   8.898  1.8888  3.3980 -1.0937
  152SAPE  C21916897   1.495   5.256   8.688 -0.7378  1.0303 -0.1580
  152SAPE  H19R16898   1.551   5.190   8.618  0.0887  0.6257  0.8592
  152SAPE  H19S16899   1.505   5.357   8.643  1.4289  0.4862 -0.9930
  152SAPE  C22016900   1.352   5.209   8.714  0.6666  0.0657 -0.1016
  152SAPE  H20R16901   1.320   5.283   8.791  1.5602  1.8124 -1.3329
  152SAPE  H20S16902   1.342   5.105   8.751  0.5179 -0.3863 -1.3450
  152SAPE  H20T16903   1.278   5.214   8.631 -0.7996 -2.8260  0.8705
  152SAPE   C3316904   0.835   4.341   9.933  0.7017  0.0777 -0.0970
  152SAPE   H3X16905   0.751   4.329  10.005  0.9477  1.1034  0.3720
  152SAPE   H3Y16906   0.909   4.260   9.952  0.6848  0.0552 -0.1277
  152SAPE   C3416907   0.776   4.313   9.791 -0.8672  0.1119  0.3876
  152SAPE   H4X16908   0.699   4.392   9.780 -1.2068 -0.2610  0.0284
  152SAPE   H4Y16909   0.736   4.209   9.790 -0.2604 -0.1511  1.4642
  152SAPE   C3516910   0.890   4.309   9.679 -0.3144  0.0020  0.2809
  152SAPE   H5X16911   0.964   4.232   9.710  0.7316 -0.1690 -2.4029
  152SAPE   H5Y16912   0.947   4.403   9.672  0.0769 -0.3315 -1.7737
  152SAPE   C3616913   0.839   4.255   9.543  0.1526  0.5976 -0.1265
  152SAPE   H6X16914   0.754   4.324   9.524 -0.5772 -0.8303 -2.4135
  152SAPE   H6Y16915   0.802   4.152   9.561 -0.2468  1.0074  1.6284
  152SAPE   C3716916   0.938   4.277   9.424  0.0129  0.7874 -0.4777
  152SAPE   H7X16917   1.037   4.233   9.448  0.7353  1.3749 -2.1984
  152SAPE   H7Y16918   0.951   4.385   9.397  0.7811  0.7314 -0.3593
  152SAPE   C3816919   0.884   4.196   9.297  0.4772  0.0457 -0.8402
  152SAPE   H8X16920   0.788   4.245   9.271  0.0250 -0.1387  0.4068
  152SAPE   H8Y16921   0.859   4.096   9.337 -0.4865  0.6236  0.0282
  152SAPE   C3916922   0.978   4.182   9.178 -0.3859  0.5930  0.1214
  152SAPE   H9X16923   1.058   4.119   9.222  0.5945  0.1301 -2.1870
  152SAPE   H9Y16924   1.014   4.281   9.143 -2.7495  1.4577 -0.0276
  152SAPE  C31016925   0.912   4.104   9.064  0.0767  0.7391 -0.0348
  152SAPE  H10X16926   0.853   4.019   9.105 -0.7134  1.1848 -0.2323
  152SAPE  H10Y16927   0.991   4.058   9.001 -0.0772  0.0053  0.2868
  152SAPE  C31116928   0.805   4.181   8.981 -0.3695 -0.4110 -0.4820
  152SAPE  H11X16929   0.852   4.265   8.925  0.6326 -1.5502 -1.3971
  152SAPE  H11Y16930   0.723   4.219   9.045  1.1741 -1.6736  2.4012
  152SAPE  C31216931   0.744   4.075   8.884 -0.1454  0.4460  0.2833
  152SAPE  H12X16932   0.673   4.013   8.943  1.4447 -0.2503  1.5420
  152SAPE  H12Y16933   0.817   4.006   8.837 -1.5682 -1.5110  0.8067
  152SAPE  C31316934   0.646   4.127   8.773  0.0261  0.1630  0.0995
  152SAPE  H13X16935   0.617   4.042   8.707 -0.6856 -0.4820  1.2038
  152SAPE  H13Y16936   0.685   4.207   8.707 -1.5252 -1.2409 -2.7176
  152SAPE  C31416937   0.512   4.185   8.830  0.0163 -0.7809 -0.0602
  152SAPE  H14X16938   0.545   4.268   8.897 -2.0007  0.1122 -0.0884
  152SAPE  H14Y16939   0.452   4.114   8.890  0.8473 -0.1106  1.6099
  152SAPE  C31516940   0.412   4.250   8.724 -0.0920 -0.5572 -0.3231
  152SAPE  H15X16941   0.373   4.183   8.644 -1.1447 -1.0345  0.5578
  152SAPE  H15Y16942   0.449   4.348   8.688  0.8601 -1.0703 -0.7941
  152SAPE  C31616943   0.288   4.288   8.810 -0.7536  0.5140  0.2856
  152SAPE  H16X16944   0.319   4.324   8.911 -1.8969 -1.2110  1.3080
  152SAPE  H16Y16945   0.229   4.195   8.826  1.8237 -1.2286  0.3640
  152SAPE  C31716946   0.196   4.406   8.758  0.2045  0.1837  0.1932
  152SAPE  H17X16947   0.150   4.390   8.658  0.0044  2.1015 -0.0500
  152SAPE  H17Y16948   0.261   4.496   8.753  0.7026 -0.2222 -2.7772
  152SAPE  C31816949   0.086   4.433   8.862 -0.4408 -0.4208  0.6427
  152SAPE  H18X16950   0.026   4.341   8.872  0.9523 -1.2487  1.8080
  152SAPE  H18Y16951   0.029   4.525   8.838 -2.0101 -1.2479  1.0573
  152SAPE  H18Z16952   0.141   4.452   8.957  1.8485  0.5099 -0.7862
  153SAPE     N16953   2.082   5.338  10.589 -0.1882 -0.4531  0.4668
  153SAPE   HN116954   1.978   5.339  10.595 -0.1515  1.3007  1.3403
  153SAPE   HN216955   2.118   5.316  10.683  0.0831 -1.2383  0.1855
  153SAPE   HN316956   2.120   5.433  10.568  0.4247 -0.6408  0.7234
  153SAPE   C1216957   2.141   5.249  10.478  0.0162 -0.2179 -0.0848
  153SAPE  H12A16958   2.100   5.298  10.387  0.5067  0.1136 -0.1276
  153SAPE  H12B16959   2.100   5.146  10.491  0.9885 -0.6525 -0.3569
  153SAPE   C1116960   2.300   5.258  10.474  0.1915  0.2772 -0.7042
  153SAPE  H11A16961   2.336   5.358  10.442  2.4053  0.2339  1.4081
  153SAPE  H11B16962   2.329   5.183  10.397  2.3293  1.8397 -1.4963
  153SAPE     P16963   2.472   5.300  10.667  0.0551  0.1586 -0.0733
  153SAPE   O1316964   2.432   5.439  10.693 -0.5878 -0.5396  0.4323
  153SAPE   O1416965   2.535   5.227  10.779  0.1603  0.1805  0.2230
  153SAPE   O1216966   2.352   5.217  10.602 -0.6238 -0.6473  0.7572
  153SAPE   O1116967   2.575   5.309  10.542  0.3714  0.5181 -0.6474
  153SAPE    C116968   2.664   5.199  10.514  0.3301 -0.0615  0.0544
  153SAPE    HA16969   2.732   5.177  10.600 -2.2326  1.2512  2.5646
  153SAPE    HB16970   2.607   5.106  10.492  1.1939 -0.4825 -0.4869
  153SAPE    C216971   2.743   5.232  10.385 -0.1201 -0.6767  0.5133
  153SAPE    HS16972   2.752   5.343  10.381  1.4196 -0.8290 -0.9692
  153SAPE   O2116973   2.669   5.183  10.277  0.5228 -0.3457  0.1427
  153SAPE   C2116974   2.581   5.275  10.221  0.5449  0.3200  0.7868
  153SAPE   O2216975   2.562   5.390  10.261 -0.0986  0.6346  0.3317
  153SAPE   C2216976   2.537   5.224  10.085  0.4861  0.2647 -0.3870
  153SAPE   H2R16977   2.480   5.133  10.114 -0.4073  0.6340 -0.9335
  153SAPE   H2S16978   2.452   5.283  10.044 -2.0419 -3.1866 -0.5601
  153SAPE    C316979   2.888   5.177  10.385  0.5861 -0.1612  0.5109
  153SAPE    HX16980   2.897   5.073  10.424 -0.5675 -0.7728 -0.7623
  153SAPE    HY16981   2.944   5.235  10.461  0.7581  0.5786 -0.1697
  153SAPE   O3116982   2.961   5.201  10.264 -0.0544  0.2374 -0.1892
  153SAPE   C3116983   2.948   5.101  10.178 -0.5253  0.1030 -0.6075
  153SAPE   O3216984   2.909   4.990  10.208  0.5886 -0.3525  0.4676
  153SAPE   C3216985   3.016   5.140  10.040 -0.4295  0.0462  0.3928
  153SAPE   H2X16986   3.126   5.141  10.059 -0.6385 -0.4296  1.7588
  153SAPE   H2Y16987   2.983   5.244  10.017 -3.2490 -0.5342  1.4122
  153SAPE   C2316988   2.651   5.205   9.984  0.2402  0.0081 -0.2438
  153SAPE   H3R16989   2.716   5.123  10.023  1.0657  0.2381 -1.1161
  153SAPE   H3S16990   2.710   5.296   9.963 -0.3775  0.1085 -1.5929
  153SAPE   C2416991   2.611   5.167   9.843  0.2569 -0.3182  0.2389
  153SAPE   H4R16992   2.550   5.074   9.848  3.0036 -2.3638 -1.5653
  153SAPE   H4S16993   2.696   5.149   9.774  0.6668 -1.3547  0.9852
  153SAPE   C2516994   2.527   5.277   9.786 -0.1268 -0.1846 -0.0196
  153SAPE   H5R16995   2.418   5.273   9.798 -0.3597  0.9025 -1.4524
  153SAPE   C2616996   2.580   5.365   9.699  0.1433 -0.1356  0.4355
  153SAPE   H6R16997   2.520   5.447   9.658 -0.8648 -0.5842  0.9898
  153SAPE   C2716998   2.729   5.370   9.658  0.0147 -0.2220 -0.2385
  153SAPE   H7R16999   2.794   5.362   9.748  0.6166  1.8388 -0.4348
  153SAPE   H7S17000   2.758   5.475   9.635 -0.5790 -0.3639 -1.7354
  153SAPE   C2817001   2.770   5.284   9.546  0.0382 -0.1171  0.3575
  153SAPE   H8R17002   2.788   5.182   9.581  3.2204  0.7746  1.7469
  153SAPE   C2917003   2.786   5.323   9.415  0.0720  0.0361 -0.4454
  153SAPE   H9R17004   2.828   5.253   9.341 -0.8810  1.2313 -2.2135
  153SAPE  C21017005   2.768   5.456   9.348  0.1757 -0.3936  0.2732
  153SAPE  H10R17006   2.864   5.482   9.298 -1.3662  0.4875 -2.3956
  153SAPE  H10S17007   2.746   5.535   9.423  0.2125  0.3063 -0.4427
  153SAPE  C21117008   2.653   5.461   9.247  0.5661 -0.1469  0.1053
  153SAPE  H11R17009   2.552   5.446   9.287 -0.5877 -0.3727 -2.6483
  153SAPE  C21217010   2.667   5.483   9.113  0.2573 -1.2493  0.6672
  153SAPE  H12R17011   2.581   5.492   9.046  0.3342  1.8823  0.8478
  153SAPE  C21317012   2.801   5.508   9.046 -0.8289 -0.0204 -0.0357
  153SAPE  H13R17013   2.858   5.414   9.063 -1.6229 -0.4959  0.0487
  153SAPE  H13S17014   2.851   5.594   9.095 -0.3891 -0.1066 -0.3276
  153SAPE  C21417015   2.788   5.555   8.903  0.0278  0.3643 -0.4107
  153SAPE  H14R17016   2.694   5.605   8.877 -0.2942  0.1894  0.3929
  153SAPE  C21517017   2.872   5.514   8.802 -0.0851 -0.2379  0.1170
  153SAPE  H15R17018   2.849   5.529   8.696  0.4365 -0.5571 -0.0441
  153SAPE  C21617019   2.988   5.420   8.809  0.1160 -0.1862 -0.2477
  153SAPE  H16R17020   2.973   5.359   8.718 -2.0852  0.5097 -0.3967
  153SAPE  H16S17021   2.979   5.353   8.898  1.6523  1.6366  1.3929
  153SAPE  C21717022   3.132   5.482   8.819 -0.3500 -0.1355 -0.4110
  153SAPE  H17R17023   3.205   5.401   8.797 -0.8686 -0.3006 -1.5817
  153SAPE  H17S17024   3.165   5.509   8.921  1.5287 -2.5752 -0.2751
  153SAPE  C21817025   3.158   5.595   8.721  0.4512  0.0932  0.2035
  153SAPE  H18R17026   3.099   5.682   8.756 -1.4856 -1.0055 -0.1911
  153SAPE  H18S17027   3.117   5.557   8.625 -1.0676  0.7459  0.5662
  153SAPE  C21917028   3.308   5.624   8.713  0.8297  0.0183 -0.2258
  153SAPE  H19R17029   3.364   5.531   8.688  0.6758 -0.0623 -0.2772
  153SAPE  H19S17030   3.342   5.649   8.816  1.4991 -0.8357 -0.2332
  153SAPE  C22017031   3.328   5.732   8.611 -0.0581  0.2505 -0.1437
  153SAPE  H20R17032   3.301   5.708   8.506 -2.5157  1.1168  0.2433
  153SAPE  H20S17033   3.436   5.759   8.609  0.3708 -1.2538  0.7772
  153SAPE  H20T17034   3.277   5.823   8.649 -0.8275 -0.2186 -0.0383
  153SAPE   C3317035   2.979   5.047   9.915  0.5291  0.0152 -0.4197
  153SAPE   H3X17036   2.872   5.017   9.921  0.4526  0.4957  1.2079
  153SAPE   H3Y17037   3.035   4.954   9.940  0.8279  0.2195 -0.3156
  153SAPE   C3417038   3.017   5.100   9.774  0.7370 -0.3575 -0.0675
  153SAPE   H4X17039   2.959   5.186   9.734  0.6960 -0.7163 -0.7980
  153SAPE   H4Y17040   2.997   5.018   9.701  1.0104  0.4307 -1.0423
  153SAPE   C3517041   3.168   5.132   9.769 -0.3324 -0.4045  0.3336
  153SAPE   H5X17042   3.230   5.059   9.824 -0.3151 -0.2338  0.5414
  153SAPE   H5Y17043   3.190   5.225   9.826 -1.3122  0.9471 -1.3666
  153SAPE   C3617044   3.222   5.165   9.624 -0.7876 -0.0437 -0.6456
  153SAPE   H6X17045   3.332   5.176   9.635 -0.8210  0.2911 -0.6383
  153SAPE   H6Y17046   3.182   5.264   9.596 -0.8282 -0.2439 -1.3219
  153SAPE   C3717047   3.187   5.061   9.515 -0.4048 -0.0300 -0.3444
  153SAPE   H7X17048   3.078   5.070   9.493  0.0032  1.8849 -1.8349
  153SAPE   H7Y17049   3.199   4.961   9.563  0.5677 -0.6892 -1.8689
  153SAPE   C3817050   3.267   5.085   9.391 -0.3354 -0.0207 -0.0881
  153SAPE   H8X17051   3.364   5.126   9.426  0.0201 -2.7744  2.6222
  153SAPE   H8Y17052   3.205   5.155   9.332  0.3775  0.3903 -0.3558
  153SAPE   C3917053   3.283   4.956   9.316  0.3659  0.5056 -0.2679
  153SAPE   H9X17054   3.183   4.907   9.321  0.3222  0.5617 -0.5966
  153SAPE   H9Y17055   3.346   4.889   9.380  0.6322  1.8720  0.9453
  153SAPE  C31017056   3.338   4.961   9.178 -0.5658 -0.4161 -0.4163
  153SAPE  H10X17057   3.338   4.861   9.130 -0.7759 -0.5608 -0.1151
  153SAPE  H10Y17058   3.443   4.997   9.171 -0.7814  0.1675 -0.7926
  153SAPE  C31117059   3.253   5.061   9.085  0.2280 -0.3518  0.2432
  153SAPE  H11X17060   3.243   5.167   9.117  0.5062 -0.7650  1.7909
  153SAPE  H11Y17061   3.153   5.013   9.079  0.4614 -0.6290 -2.9510
  153SAPE  C31217062   3.299   5.060   8.939  0.5933  0.2554  0.8686
  153SAPE  H12X17063   3.216   5.099   8.876 -0.3670 -1.6519  0.8830
  153SAPE  H12Y17064   3.329   4.956   8.915 -0.1779  0.6365 -2.2755
  153SAPE  C31317065   3.418   5.148   8.902  0.0932  0.4107 -0.3929
  153SAPE  H13X17066   3.489   5.134   8.986  0.2306  0.8171 -0.4418
  153SAPE  H13Y17067   3.382   5.253   8.893  1.2671  0.8100 -0.5795
  153SAPE  C31417068   3.499   5.116   8.775  0.2292  0.8717  0.2782
  153SAPE  H14X17069   3.433   5.119   8.685  0.2228  1.0943  0.2878
  153SAPE  H14Y17070   3.543   5.014   8.771  0.1780  0.8683 -2.1215
  153SAPE  C31517071   3.605   5.216   8.758 -0.2902  0.0918 -0.5097
  153SAPE  H15X17072   3.643   5.248   8.857 -3.0207 -1.1502  1.0527
  153SAPE  H15Y17073   3.574   5.308   8.703  3.8741  3.9568  2.8195
  153SAPE  C31617074   3.724   5.162   8.682 -0.1570 -0.3385  0.1460
  153SAPE  H16X17075   3.696   5.128   8.580 -0.2661  1.2175 -0.3601
  153SAPE  H16Y17076   3.775   5.080   8.737 -0.4016 -0.2261  0.5408
  153SAPE  C31717077   3.829   5.274   8.684  1.0377 -0.5735 -0.4931
  153SAPE  H17X17078   3.838   5.316   8.787  0.8014  0.8340 -1.0219
  153SAPE  H17Y17079   3.786   5.353   8.619 -0.4331 -0.8546  0.1006
  153SAPE  C31817080   3.958   5.210   8.635 -0.0215  0.0300 -0.2957
  153SAPE  H18X17081   4.038   5.286   8.619  0.2836 -0.3419 -0.5568
  153SAPE  H18Y17082   3.954   5.148   8.543  2.9677 -1.1853  0.2398
  153SAPE  H18Z17083   3.998   5.138   8.711 -0.6874  0.5738  0.5922
  154SAPE     N17084   3.616   6.060  10.864  0.2581 -0.1478  0.5196
  154SAPE   HN117085   3.528   6.059  10.920 -0.2587 -1.3321 -0.2755
  154SAPE   HN217086   3.671   6.118  10.931 -1.2228 -1.8047  3.3530
  154SAPE   HN317087   3.602   6.108  10.772  1.6959 -1.4928 -0.4611
  154SAPE   C1217088   3.673   5.922  10.832 -0.1606  0.6499 -0.6165
  154SAPE  H12A17089   3.585   5.874  10.785  0.8430 -0.1022 -1.7655
  154SAPE  H12B17090   3.690   5.880  10.934 -2.2249  0.2833 -0.3801
  154SAPE   C1117091   3.798   5.919  10.754  0.7580 -0.4424  0.0664
  154SAPE  H11A17092   3.774   5.977  10.663 -1.2143 -1.1718  0.0590
  154SAPE  H11B17093   3.827   5.816  10.722 -0.5223 -1.7887  2.8350
  154SAPE     P17094   4.011   6.072  10.796  0.1966  0.0995  0.2801
  154SAPE   O1317095   4.031   6.151  10.918 -0.5634 -0.7107 -0.0116
  154SAPE   O1417096   4.130   5.998  10.768  0.5255 -0.6308  0.3672
  154SAPE   O1217097   3.894   5.970  10.840  0.0216  0.0463 -0.2778
  154SAPE   O1117098   3.968   6.162  10.682  0.6556  0.3688  0.4307
  154SAPE    C117099   4.080   6.236  10.621 -0.2178  0.0559  0.3163
  154SAPE    HA17100   4.085   6.331  10.680 -0.1877  1.1653 -1.4078
  154SAPE    HB17101   4.185   6.202  10.625 -0.7998 -2.2528 -1.7945
  154SAPE    C217102   4.058   6.258  10.466 -0.5454 -0.7684  0.2432
  154SAPE    HS17103   4.142   6.323  10.432 -1.3726 -0.9508 -2.3412
  154SAPE   O2117104   3.931   6.328  10.443  0.3415  0.7276 -0.2888
  154SAPE   C2117105   3.933   6.457  10.465  0.5058 -0.2291  0.6698
  154SAPE   O2217106   4.029   6.529  10.470  0.1239  0.3123  0.3507
  154SAPE   C2217107   3.795   6.511  10.489  0.3297 -0.5040 -0.4834
  154SAPE   H2R17108   3.721   6.443  10.443 -0.1757  1.1065 -2.1383
  154SAPE   H2S17109   3.775   6.511  10.599  0.5330 -0.0941 -0.4441
  154SAPE    C317110   4.062   6.126  10.386 -0.2124  0.1874 -0.4672
  154SAPE    HX17111   3.957   6.093  10.391 -0.0753 -0.3055 -0.8379
  154SAPE    HY17112   4.135   6.067  10.445 -0.7256  0.6928  0.7280
  154SAPE   O3117113   4.101   6.149  10.244  0.0136  0.1476  0.0549
  154SAPE   C3117114   4.010   6.167  10.150  0.8910 -0.4384 -0.6199
  154SAPE   O3217115   3.887   6.182  10.164 -0.3913  0.9867 -0.3261
  154SAPE   C3217116   4.089   6.178  10.017  0.2422  0.3931  0.5149
  154SAPE   H2X17117   4.142   6.081  10.012  0.6533  0.6001  0.8164
  154SAPE   H2Y17118   4.170   6.254  10.024  1.6915 -0.5941 -3.2694
  154SAPE   C2317119   3.774   6.653  10.437 -0.2249 -0.3494 -0.9666
  154SAPE   H3R17120   3.867   6.714  10.435 -1.1435  1.2409  1.3569
  154SAPE   H3S17121   3.718   6.686  10.527  2.5244 -3.7801  2.3464
  154SAPE   C2417122   3.691   6.660  10.310  0.4106 -0.3836 -0.0671
  154SAPE   H4R17123   3.666   6.767  10.289  0.3043 -0.3732  0.1067
  154SAPE   H4S17124   3.592   6.625  10.346  0.6345 -0.0315  0.9105
  154SAPE   C2517125   3.738   6.586  10.188 -0.2537  0.5744 -0.6188
  154SAPE   H5R17126   3.725   6.477  10.196 -0.4079  0.6202 -0.2242
  154SAPE   C2617127   3.796   6.632  10.076  0.3935 -0.1915 -0.3317
  154SAPE   H6R17128   3.830   6.566   9.994  0.5584 -0.3737 -0.1157
  154SAPE   C2717129   3.814   6.777  10.041 -0.2644  0.4394 -1.0360
  154SAPE   H7R17130   3.721   6.827  10.076  0.3928 -0.4858  2.3197
  154SAPE   H7S17131   3.818   6.793   9.931 -1.5778  1.3669 -0.9762
  154SAPE   C2817132   3.922   6.839  10.122  0.3973 -0.5504 -0.3058
  154SAPE   H8R17133   3.910   6.823  10.230 -1.1054 -1.7178 -0.6133
  154SAPE   C2917134   4.023   6.910  10.066  0.1367  0.7705  0.3443
  154SAPE   H9R17135   4.091   6.944  10.145  0.4218 -0.5326  0.6916
  154SAPE  C21017136   4.055   6.939   9.926 -0.1813 -0.1559  0.9207
  154SAPE  H10R17137   4.052   6.850   9.860  1.7704  0.0163  0.5336
  154SAPE  H10S17138   4.160   6.972   9.911  0.3209 -1.8493  0.5970
  154SAPE  C21117139   3.956   7.032   9.864  0.0238 -0.3788 -0.3895
  154SAPE  H11R17140   3.851   7.016   9.891 -0.4144  1.9984 -0.5130
  154SAPE  C21217141   3.987   7.129   9.773 -0.4634 -0.7976 -0.2987
  154SAPE  H12R17142   3.905   7.191   9.732  0.6255  1.5145  0.7929
  154SAPE  C21317143   4.126   7.169   9.720  0.6902 -0.1836  0.2572
  154SAPE  H13R17144   4.120   7.187   9.610 -1.1686 -1.7549  0.0401
  154SAPE  H13S17145   4.191   7.079   9.722  0.9820  0.0289  2.4790
  154SAPE  C21417146   4.173   7.288   9.798  0.2658 -0.8294 -0.0938
  154SAPE  H14R17147   4.175   7.272   9.907  2.7751 -1.7472 -0.2025
  154SAPE  C21517148   4.209   7.410   9.747  0.7782  0.1939  0.3879
  154SAPE  H15R17149   4.247   7.490   9.812 -0.0115  0.5241  0.4490
  154SAPE  C21617150   4.213   7.445   9.601 -0.0220 -0.4798  0.3385
  154SAPE  H16R17151   4.115   7.420   9.554 -0.7941  0.9385  1.1271
  154SAPE  H16S17152   4.288   7.385   9.544  0.2719  0.1351  0.0606
  154SAPE  C21717153   4.232   7.590   9.566  0.3164 -0.8483  0.0550
  154SAPE  H17R17154   4.151   7.647   9.616  1.1751  3.1706 -2.6314
  154SAPE  H17S17155   4.209   7.613   9.459  0.2659 -1.1329  0.0049
  154SAPE  C21817156   4.368   7.648   9.602 -0.0276 -0.5968  0.3068
  154SAPE  H18R17157   4.444   7.586   9.549  0.8615  0.8135 -0.1420
  154SAPE  H18S17158   4.378   7.646   9.712 -1.6119  0.2624  0.4818
  154SAPE  C21917159   4.387   7.792   9.554  0.0192  0.0144  0.4777
  154SAPE  H19R17160   4.324   7.865   9.608  2.8940  1.8947  1.5115
  154SAPE  H19S17161   4.368   7.784   9.444  0.3005  0.3417  0.4009
  154SAPE  C22017162   4.530   7.842   9.576  0.6036 -0.3223 -0.6804
  154SAPE  H20R17163   4.547   7.941   9.528  0.8302  0.7490  1.4748
  154SAPE  H20S17164   4.600   7.775   9.521  0.8320  0.5261 -1.4461
  154SAPE  H20T17165   4.548   7.859   9.684  1.8760  0.6042 -1.0124
  154SAPE   C3317166   4.010   6.181   9.888  0.8860 -0.4358 -0.1991
  154SAPE   H3X17167   3.954   6.277   9.895  1.4645 -0.2204  1.8370
  154SAPE   H3Y17168   3.930   6.103   9.889 -1.0477  1.4322 -0.5718
  154SAPE   C3417169   4.094   6.170   9.765  0.8022 -0.0860  0.5261
  154SAPE   H4X17170   4.112   6.063   9.741  0.1969 -0.3229  1.1053
  154SAPE   H4Y17171   4.196   6.205   9.793  1.8191 -1.1438 -1.6426
  154SAPE   C3517172   4.036   6.251   9.642  0.0542  0.3133  0.1205
  154SAPE   H5X17173   3.995   6.347   9.681 -1.6690 -0.5758  0.5786
  154SAPE   H5Y17174   3.948   6.198   9.600 -1.2894  1.0042  1.9340
  154SAPE   C3617175   4.147   6.289   9.538  0.3027 -0.0209  0.5215
  154SAPE   H6X17176   4.140   6.216   9.455  2.5526  1.5573 -1.1991
  154SAPE   H6Y17177   4.243   6.264   9.588  1.9324 -0.5034 -2.5930
  154SAPE   C3717178   4.146   6.433   9.491 -0.4096  0.1413  0.3745
  154SAPE   H7X17179   4.187   6.498   9.571 -0.4753  1.2405 -0.4542
  154SAPE   H7Y17180   4.038   6.455   9.481  0.0589  2.2254 -0.7273
  154SAPE   C3817181   4.241   6.454   9.378 -0.1690  0.9945  0.6088
  154SAPE   H8X17182   4.213   6.376   9.304 -1.5134  1.5737  0.4828
  154SAPE   H8Y17183   4.348   6.438   9.404  0.0928 -2.8964 -1.9301
  154SAPE   C3917184   4.221   6.588   9.303  0.8889  0.3726 -0.1549
  154SAPE   H9X17185   4.242   6.667   9.378  0.9966  0.2790 -0.0872
  154SAPE   H9Y17186   4.116   6.603   9.269  1.3505  1.0204 -1.3777
  154SAPE  C31017187   4.305   6.597   9.180  0.7989 -0.3961 -0.6622
  154SAPE  H10X17188   4.275   6.514   9.113 -1.0996  1.2224 -1.9127
  154SAPE  H10Y17189   4.413   6.602   9.207  0.6502  0.1466 -0.1364
  154SAPE  C31117190   4.265   6.727   9.101 -0.1075  0.7535  0.2642
  154SAPE  H11X17191   4.272   6.817   9.164  2.3108 -0.4928  1.9146
  154SAPE  H11Y17192   4.155   6.723   9.083 -0.5842  1.2605  2.8040
  154SAPE  C31217193   4.340   6.740   8.970  0.0095  0.3923  0.5720
  154SAPE  H12X17194   4.335   6.640   8.922  1.1891  1.0860 -1.0724
  154SAPE  H12Y17195   4.450   6.756   8.978  0.1153 -0.0242 -0.0195
  154SAPE  C31317196   4.287   6.839   8.866  0.5780 -0.1496 -0.2001
  154SAPE  H13X17197   4.338   6.841   8.767 -1.6315 -0.0391 -1.4000
  154SAPE  H13Y17198   4.308   6.945   8.894  1.7175 -0.7327  1.3068
  154SAPE  C31417199   4.142   6.837   8.827  0.0708 -0.5311  0.4581
  154SAPE  H14X17200   4.125   6.914   8.748 -1.0159 -1.5661 -0.3568
  154SAPE  H14Y17201   4.087   6.876   8.915  1.3931 -1.0290  1.5471
  154SAPE  C31517202   4.102   6.701   8.774  0.1115 -0.1125  0.5206
  154SAPE  H15X17203   4.111   6.623   8.853  1.0002 -0.7450 -0.1910
  154SAPE  H15Y17204   4.175   6.670   8.696  1.5478  0.6009  1.5340
  154SAPE  C31617205   3.959   6.706   8.717  0.3539 -0.4054  0.1409
  154SAPE  H16X17206   3.950   6.733   8.609  0.6305  0.6966  0.3787
  154SAPE  H16Y17207   3.905   6.782   8.776  2.0192 -0.7281  2.1783
  154SAPE  C31717208   3.907   6.559   8.725 -0.3131 -0.9978  0.0648
  154SAPE  H17X17209   3.924   6.529   8.831 -0.6925 -1.3039  0.0452
  154SAPE  H17Y17210   3.978   6.492   8.672 -0.6052  0.5139 -2.3369
  154SAPE  C31817211   3.759   6.528   8.695  0.6492  0.5146  0.1577
  154SAPE  H18X17212   3.737   6.514   8.587 -1.7944  0.1973  0.6366
  154SAPE  H18Y17213   3.687   6.608   8.723  0.0025  0.1737 -0.5135
  154SAPE  H18Z17214   3.724   6.434   8.742  0.3576  1.0934  1.1380
  155SAPE     N17215   5.845   6.697  10.880  0.7336  0.5530 -0.6635
  155SAPE   HN117216   5.887   6.754  10.956  0.6374 -0.6411  0.3121
  155SAPE   HN217217   5.833   6.600  10.915  3.1759  0.1982 -0.6097
  155SAPE   HN317218   5.920   6.690  10.808 -0.2991  2.8273 -2.0791
  155SAPE   C1217219   5.714   6.746  10.823 -0.0182  0.4780  0.3311
  155SAPE  H12A17220   5.645   6.780  10.902 -1.1419 -0.5804 -0.1614
  155SAPE  H12B17221   5.665   6.662  10.769  3.3594 -0.0603 -2.2974
  155SAPE   C1117222   5.729   6.870  10.738 -0.6051  0.1787 -0.0528
  155SAPE  H11A17223   5.638   6.881  10.676  2.0434 -0.8744 -4.6115
  155SAPE  H11B17224   5.811   6.843  10.668 -0.4319 -2.5107  1.0663
  155SAPE     P17225   5.660   7.100  10.849 -0.4101 -0.3179 -0.5573
  155SAPE   O1317226   5.568   7.041  10.948 -0.1243 -0.3843  0.1932
  155SAPE   O1417227   5.733   7.221  10.896  0.6160 -0.1240 -0.1220
  155SAPE   O1217228   5.763   6.988  10.816 -0.0482  0.0395  0.3985
  155SAPE   O1117229   5.582   7.134  10.714 -0.1992 -0.1541 -0.4701
  155SAPE    C117230   5.659   7.194  10.613  0.8571  0.0606  0.7711
  155SAPE    HA17231   5.669   7.302  10.636  1.0419 -0.1026  1.5108
  155SAPE    HB17232   5.760   7.146  10.605  1.1261  0.6535  0.5515
  155SAPE    C217233   5.592   7.187  10.473 -0.6631  0.3062 -0.2919
  155SAPE    HS17234   5.494   7.235  10.493  0.0446  1.5994  0.1707
  155SAPE   O2117235   5.573   7.050  10.424  0.3754  0.1214 -0.0854
  155SAPE   C2117236   5.462   7.024  10.357 -0.1831 -0.0790 -0.4219
  155SAPE   O2217237   5.371   7.106  10.349 -0.0196  0.2786 -0.4554
  155SAPE   C2217238   5.455   6.879  10.323 -0.5215  0.0783  1.2030
  155SAPE   H2R17239   5.551   6.845  10.278 -1.1391  0.0604 -0.1202
  155SAPE   H2S17240   5.440   6.823  10.418 -2.2853 -0.3570  0.6996
  155SAPE    C317241   5.695   7.243  10.372  0.7430  0.7783 -0.3641
  155SAPE    HX17242   5.770   7.162  10.374 -1.1408 -1.0339  0.2528
  155SAPE    HY17243   5.735   7.337  10.416 -1.4099  1.5411  0.1223
  155SAPE   O3117244   5.630   7.272  10.254  0.1359 -0.3841  0.2244
  155SAPE   C3117245   5.661   7.391  10.192 -0.1165 -0.3589  0.5337
  155SAPE   O3217246   5.745   7.470  10.236 -0.0680 -0.2886  0.2838
  155SAPE   C3217247   5.575   7.412  10.070 -0.2570  0.2411 -0.3136
  155SAPE   H2X17248   5.616   7.496  10.010 -0.0559  0.6390  0.3603
  155SAPE   H2Y17249   5.481   7.454  10.111 -1.1673 -0.4618 -1.6376
  155SAPE   C2317250   5.340   6.840  10.235  0.0650 -0.4560  0.5165
  155SAPE   H3R17251   5.241   6.848  10.286 -0.6032 -0.5276 -0.7310
  155SAPE   H3S17252   5.348   6.735  10.198 -0.1143  0.4317 -2.2250
  155SAPE   C2417253   5.321   6.919  10.104 -0.1586 -0.3737  0.2415
  155SAPE   H4R17254   5.332   7.025  10.137  1.2085 -0.3981 -0.0715
  155SAPE   H4S17255   5.222   6.896  10.059  0.0461 -0.7274 -0.0259
  155SAPE   C2517256   5.420   6.889   9.997 -0.1102  0.2771  0.3872
  155SAPE   H5R17257   5.518   6.937  10.012  0.8239 -1.9771  2.0618
  155SAPE   C2617258   5.403   6.805   9.891  0.2090 -0.1003 -0.5168
  155SAPE   H6R17259   5.482   6.795   9.815  1.0062  0.4335  0.2297
  155SAPE   C2717260   5.280   6.716   9.876  0.2730  0.5538  0.9278
  155SAPE   H7R17261   5.222   6.706   9.970 -0.8008 -1.3508  0.1312
  155SAPE   H7S17262   5.314   6.611   9.858 -1.4788  0.2508 -0.9730
  155SAPE   C2817263   5.194   6.762   9.757  0.0852  0.2475  0.1662
  155SAPE   H8R17264   5.107   6.821   9.788 -1.0054 -1.2384  0.0695
  155SAPE   C2917265   5.204   6.719   9.629  0.3841  0.1321 -0.0714
  155SAPE   H9R17266   5.143   6.770   9.554  0.0184  0.6495  0.5674
  155SAPE  C21017267   5.304   6.620   9.581 -0.3156  0.0614 -0.0046
  155SAPE  H10R17268   5.246   6.526   9.566 -0.1980 -0.1101  0.5783
  155SAPE  H10S17269   5.382   6.592   9.655 -0.3253 -1.0608 -0.4006
  155SAPE  C21117270   5.379   6.657   9.451 -1.0241 -0.6249  0.2810
  155SAPE  H11R17271   5.480   6.697   9.464 -0.8525  0.3957 -3.1002
  155SAPE  C21217272   5.346   6.655   9.319 -0.0890  0.0474 -0.9051
  155SAPE  H12R17273   5.420   6.689   9.245 -0.2577  1.4097 -0.4774
  155SAPE  C21317274   5.214   6.613   9.262  0.5256 -0.0524  0.6265
  155SAPE  H13R17275   5.136   6.601   9.339  0.8034  0.9783  1.0851
  155SAPE  H13S17276   5.226   6.513   9.215  3.1616 -0.0200  1.0696
  155SAPE  C21417277   5.157   6.710   9.157  0.6763 -0.2169 -0.2975
  155SAPE  H14R17278   5.199   6.812   9.155 -2.9452  1.4154 -0.5948
  155SAPE  C21517279   5.059   6.682   9.068  0.0433 -0.9956 -0.7370
  155SAPE  H15R17280   5.025   6.762   9.000  0.0265  1.3765  1.8932
  155SAPE  C21617281   4.984   6.558   9.057 -0.1010 -0.4536 -0.3287
  155SAPE  H16R17282   4.876   6.574   9.079 -0.0494 -0.1503 -0.2881
  155SAPE  H16S17283   5.015   6.504   9.149  1.4908  1.3469  0.2609
  155SAPE  C21717284   5.000   6.467   8.934  0.3846  0.1705 -0.0839
  155SAPE  H17R17285   4.968   6.362   8.953  0.2648  0.7950  4.1071
  155SAPE  H17S17286   5.107   6.453   8.908  0.2259 -0.0062 -0.6534
  155SAPE  C21817287   4.923   6.540   8.814  0.7176  0.1587 -1.1772
  155SAPE  H18R17288   4.969   6.637   8.788  2.5546 -0.2586  0.2589
  155SAPE  H18S17289   4.818   6.569   8.837  0.6127  1.5388 -3.1536
  155SAPE  C21917290   4.918   6.455   8.686 -0.4753  0.3494 -0.3995
  155SAPE  H19R17291   4.895   6.526   8.603  0.8242  1.5062  0.1823
  155SAPE  H19S17292   4.843   6.375   8.698 -0.3281  0.4042  0.9683
  155SAPE  C22017293   5.048   6.389   8.636 -0.3704 -0.8402 -0.8747
  155SAPE  H20R17294   5.129   6.464   8.621  1.9281 -3.0699 -0.3638
  155SAPE  H20S17295   5.027   6.330   8.545 -0.9163 -2.5037  0.2738
  155SAPE  H20T17296   5.099   6.313   8.699  0.1755 -0.5012 -0.9050
  155SAPE   C3317297   5.558   7.282   9.977  0.3844  0.1472 -0.4479
  155SAPE   H3X17298   5.477   7.299   9.903 -0.8176  0.3893  0.8674
  155SAPE   H3Y17299   5.546   7.191  10.041  1.7980  0.8881  0.9430
  155SAPE   C3417300   5.682   7.270   9.892  0.0690  0.0250  0.2682
  155SAPE   H4X17301   5.764   7.243   9.962 -1.6265 -1.1930  1.8870
  155SAPE   H4Y17302   5.705   7.360   9.831  0.5140 -1.0097 -1.1519
  155SAPE   C3517303   5.676   7.155   9.783  0.5107 -0.1757  0.4301
  155SAPE   H5X17304   5.660   7.059   9.837 -1.9830 -0.6144 -0.9517
  155SAPE   H5Y17305   5.774   7.152   9.731 -0.6084 -0.6008 -1.7727
  155SAPE   C3617306   5.571   7.165   9.669  0.6111  0.3807 -0.4628
  155SAPE   H6X17307   5.587   7.259   9.612 -2.0321  0.8700 -0.5444
  155SAPE   H6Y17308   5.471   7.177   9.716 -0.1372  1.6519 -2.2571
  155SAPE   C3717309   5.563   7.044   9.570  1.2139 -0.1008 -0.2616
  155SAPE   H7X17310   5.469   7.037   9.512  1.1891 -0.0494 -0.2279
  155SAPE   H7Y17311   5.555   6.946   9.622 -2.2148  0.0990 -0.1816
  155SAPE   C3817312   5.666   7.040   9.456 -0.3486 -0.2355 -0.6667
  155SAPE   H8X17313   5.701   6.936   9.439  0.2607 -0.0011 -0.8503
  155SAPE   H8Y17314   5.762   7.093   9.470  0.0621 -0.8010 -1.3044
  155SAPE   C3917315   5.612   7.093   9.322  0.6346 -0.1126 -0.0075
  155SAPE   H9X17316   5.694   7.123   9.253 -0.5678 -0.5632 -1.6899
  155SAPE   H9Y17317   5.563   7.189   9.349  2.2172  0.7092  0.0616
  155SAPE  C31017318   5.532   6.992   9.244 -0.3748 -0.6625 -0.0473
  155SAPE  H10X17319   5.433   6.964   9.285 -1.3046 -1.1412 -2.4621
  155SAPE  H10Y17320   5.592   6.899   9.236  0.8034  0.0953 -0.2782
  155SAPE  C31117321   5.519   7.035   9.096 -0.2577 -0.1595  0.0703
  155SAPE  H11X17322   5.612   7.036   9.036 -2.4128  1.7632 -3.6059
  155SAPE  H11Y17323   5.479   7.139   9.094  0.8980  0.3064  0.4209
  155SAPE  C31217324   5.421   6.945   9.012  0.3471  0.4108 -0.1646
  155SAPE  H12X17325   5.321   6.962   9.056  0.6252 -3.3148  2.3627
  155SAPE  H12Y17326   5.445   6.837   9.027  0.1350  0.4931  0.8255
  155SAPE  C31317327   5.435   6.967   8.860  0.2788  0.0427  1.3298
  155SAPE  H13X17328   5.528   6.921   8.820  0.9966  1.3964  1.3914
  155SAPE  H13Y17329   5.472   7.070   8.844  0.6807 -0.1931  0.7317
  155SAPE  C31417330   5.310   6.913   8.792  0.2425 -0.2394  0.3614
  155SAPE  H14X17331   5.290   6.804   8.802 -0.1846 -0.4512 -2.2560
  155SAPE  H14Y17332   5.327   6.932   8.684 -4.2194 -0.4829 -0.5846
  155SAPE  C31517333   5.176   6.991   8.814 -0.4939 -0.6354  0.1160
  155SAPE  H15X17334   5.136   6.953   8.911 -0.4143 -1.0713 -0.0213
  155SAPE  H15Y17335   5.094   6.962   8.745 -1.2742 -0.3093  0.8700
  155SAPE  C31617336   5.195   7.146   8.822 -0.0557 -0.0679 -0.1655
  155SAPE  H16X17337   5.256   7.182   8.737 -0.5872  2.4541  0.4430
  155SAPE  H16Y17338   5.251   7.176   8.913  0.0284 -1.6305  0.3282
  155SAPE  C31717339   5.065   7.231   8.818  0.0830 -1.1495 -0.8272
  155SAPE  H17X17340   5.075   7.334   8.858 -1.5010 -1.5905  0.8610
  155SAPE  H17Y17341   4.996   7.176   8.885 -1.3070  0.7585 -0.6349
  155SAPE  C31817342   5.001   7.234   8.682  0.0010  0.0003 -0.5323
  155SAPE  H18X17343   5.078   7.250   8.603  1.5554  1.7236  1.2214
  155SAPE  H18Y17344   4.930   7.318   8.665 -0.9996 -1.0068 -1.5770
  155SAPE  H18Z17345   4.953   7.135   8.670 -1.6708  0.4702  1.7267
  156SAPE     N17346   0.591   3.534  10.765 -0.3978 -0.1888 -0.5344
  156SAPE   HN117347   0.592   3.431  10.774 -1.3797 -0.2410 -0.9183
  156SAPE   HN217348   0.686   3.577  10.769  0.0820 -1.2635 -0.2571
  156SAPE   HN317349   0.537   3.560  10.850 -1.7890  0.7632 -1.6518
  156SAPE   C1217350   0.524   3.583  10.643  0.2771 -0.6872  0.1470
  156SAPE  H12A17351   0.419   3.549  10.637 -0.7477  2.2175  0.3220
  156SAPE  H12B17352   0.588   3.545  10.560  0.7839 -0.0911  0.2570
  156SAPE   C1117353   0.535   3.738  10.646  0.2512 -0.0796  0.2095
  156SAPE  H11A17354   0.468   3.791  10.717  0.0358 -1.2217  0.8968
  156SAPE  H11B17355   0.493   3.765  10.546  1.0497  0.2593 -0.0401
  156SAPE     P17356   0.769   3.806  10.546  0.2175 -0.1883  0.2473
  156SAPE   O1317357   0.740   3.936  10.480 -0.0736  0.4899 -0.0890
  156SAPE   O1417358   0.908   3.788  10.590  0.0565 -0.3598  0.1223
  156SAPE   O1217359   0.670   3.785  10.670 -0.0246 -0.3276  0.2496
  156SAPE   O1117360   0.744   3.692  10.445 -0.0103  0.6594  0.2731
  156SAPE    C117361   0.669   3.700  10.322  0.7996 -0.1574 -0.3595
  156SAPE    HA17362   0.578   3.637  10.332 -1.0053  1.8305 -2.8298
  156SAPE    HB17363   0.626   3.799  10.296  1.3672  0.1941  0.0249
  156SAPE    C217364   0.757   3.660  10.203  0.2227 -0.4104  0.6353
  156SAPE    HS17365   0.691   3.687  10.118 -0.1724  0.7248  1.2819
  156SAPE   O2117366   0.797   3.522  10.207  0.0762 -0.1239 -0.1119
  156SAPE   C2117367   0.716   3.442  10.143 -0.3789 -0.3767  0.1207
  156SAPE   O2217368   0.609   3.482  10.092 -0.2981 -0.5323 -0.1355
  156SAPE   C2217369   0.773   3.293  10.140 -0.5842  0.0300  0.3695
  156SAPE   H2R17370   0.823   3.269  10.044  1.3144 -0.7117  1.5104
  156SAPE   H2S17371   0.850   3.281  10.219 -0.3999  1.6427  0.4706
  156SAPE    C317372   0.878   3.755  10.183  0.3965 -0.2288 -0.0055
  156SAPE    HX17373   0.952   3.705  10.249  1.6415  1.5612  0.0276
  156SAPE    HY17374   0.862   3.856  10.224 -1.9236 -0.6990  0.3765
  156SAPE   O3117375   0.910   3.763  10.038  0.0526 -0.6452 -0.2994
  156SAPE   C3117376   1.047   3.761  10.019  0.9579 -0.1020 -0.1923
  156SAPE   O3217377   1.124   3.748  10.107 -0.5247 -0.1460 -0.3864
  156SAPE   C3217378   1.078   3.780   9.877 -0.5704 -0.0192 -0.3071
  156SAPE   H2X17379   0.989   3.753   9.818 -0.3012 -3.5495  0.6595
  156SAPE   H2Y17380   1.164   3.714   9.854  0.0643  0.2500  1.1444
  156SAPE   C2317381   0.656   3.196  10.188 -0.1260 -0.2593  0.1250
  156SAPE   H3R17382   0.608   3.229  10.283  0.6597  3.4647 -0.5993
  156SAPE   H3S17383   0.702   3.098  10.211  1.8000  0.1421 -1.7593
  156SAPE   C2417384   0.552   3.166  10.076 -0.3786 -0.4032 -0.4965
  156SAPE   H4R17385   0.586   3.085  10.006  0.3527  0.1560 -0.8012
  156SAPE   H4S17386   0.552   3.255  10.009  0.9192 -0.4028 -0.5213
  156SAPE   C2517387   0.416   3.148  10.133  0.3618 -0.3222 -0.0582
  156SAPE   H5R17388   0.394   3.211  10.220 -3.4692 -1.9758  0.3960
  156SAPE   C2617389   0.326   3.054  10.093 -0.1439  0.2343 -1.0533
  156SAPE   H6R17390   0.230   3.060  10.147  0.1240 -2.1124 -0.2072
  156SAPE   C2717391   0.351   2.964   9.976  0.3750  0.0885  0.3778
  156SAPE   H7R17392   0.384   2.868  10.021 -1.9398 -0.8533  0.2046
  156SAPE   H7S17393   0.433   2.994   9.908  0.9110 -1.9338  0.0801
  156SAPE   C2817394   0.220   2.937   9.905  0.0464 -0.6765  0.9675
  156SAPE   H8R17395   0.144   2.884   9.963 -0.5000  0.1193  0.9939
  156SAPE   C2917396   0.192   2.971   9.776 -0.4671 -0.1666  0.5250
  156SAPE   H9R17397   0.095   2.940   9.736  0.3035 -1.5503 -0.3510
  156SAPE  C21017398   0.279   3.039   9.666  0.3352  0.4992 -0.6967
  156SAPE  H10R17399   0.313   2.973   9.584  3.0749 -0.5688  1.1575
  156SAPE  H10S17400   0.377   3.069   9.709  1.2271 -3.5513  0.5110
  156SAPE  C21117401   0.186   3.150   9.615 -0.0076  0.6219 -0.3915
  156SAPE  H11R17402   0.179   3.233   9.687 -1.6399 -0.7652  1.1706
  156SAPE  C21217403   0.112   3.151   9.504  0.8937  0.3031  0.9721
  156SAPE  H12R17404   0.055   3.243   9.480  0.4189 -0.9614 -3.6168
  156SAPE  C21317405   0.101   3.052   9.389  0.4589  0.0783  0.2878
  156SAPE  H13R17406   0.195   2.994   9.375  0.6095  0.2076  0.7578
  156SAPE  H13S17407   0.084   3.111   9.297 -0.6347  0.2345  0.5768
  156SAPE  C21417408  -0.011   2.947   9.388  0.3912 -0.3221 -0.0948
  156SAPE  H14R17409  -0.073   2.942   9.479  1.9356 -0.4671  0.9796
  156SAPE  C21517410  -0.032   2.863   9.284  0.4872 -0.7019 -0.3408
  156SAPE  H15R17411  -0.125   2.806   9.301  1.5904 -2.3723  0.3383
  156SAPE  C21617412   0.047   2.847   9.157 -0.1561 -0.5073 -0.1982
  156SAPE  H16R17413   0.137   2.912   9.154 -0.0028 -0.7175 -0.1496
  156SAPE  H16S17414  -0.017   2.873   9.070 -1.1952  0.9629  0.9423
  156SAPE  C21717415   0.100   2.701   9.138 -0.2799 -1.5968 -0.0908
  156SAPE  H17R17416   0.182   2.686   9.211  0.0167  1.8217  0.4482
  156SAPE  H17S17417   0.144   2.677   9.039  0.8774  2.5965 -0.8146
  156SAPE  C21817418  -0.010   2.592   9.171 -0.9863  0.2059  0.2369
  156SAPE  H18R17419  -0.034   2.607   9.278 -1.0939  2.0843 -0.0220
  156SAPE  H18S17420   0.033   2.491   9.151  1.5605  1.2265  0.1344
  156SAPE  C21917421  -0.125   2.606   9.075 -0.0982 -0.2698  0.0003
  156SAPE  H19R17422  -0.180   2.702   9.084 -0.7857 -0.5965 -0.6306
  156SAPE  H19S17423  -0.195   2.524   9.103 -0.4224  0.4468  1.3963
  156SAPE  C22017424  -0.091   2.584   8.927 -0.1174 -0.4540  0.4710
  156SAPE  H20R17425  -0.022   2.500   8.906 -1.2610 -1.1103 -0.7878
  156SAPE  H20S17426  -0.052   2.676   8.877 -0.5730 -1.4231 -1.7888
  156SAPE  H20T17427  -0.188   2.560   8.877 -1.9927 -2.9340  4.7448
  156SAPE   C3317428   1.112   3.929   9.856 -0.0562  0.1074 -0.0324
  156SAPE   H3X17429   1.213   3.956   9.894 -0.2779  1.3752 -0.2814
  156SAPE   H3Y17430   1.045   3.987   9.923 -1.8393 -0.6865 -1.0625
  156SAPE   C3417431   1.083   3.981   9.720  0.7979 -0.5765 -0.6759
  156SAPE   H4X17432   1.122   4.083   9.705 -0.1133 -0.2153 -0.6679
  156SAPE   H4Y17433   0.974   3.988   9.702  0.7785  0.7197 -0.0835
  156SAPE   C3517434   1.157   3.889   9.619 -0.6075  0.2841  0.3547
  156SAPE   H5X17435   1.107   3.790   9.610  1.0803 -0.5564 -0.4069
  156SAPE   H5Y17436   1.259   3.879   9.662 -0.5932 -1.7123 -0.0329
  156SAPE   C3617437   1.173   3.937   9.477 -0.7135 -0.3944  0.4273
  156SAPE   H6X17438   1.252   4.015   9.473  0.7009 -1.7953 -0.8890
  156SAPE   H6Y17439   1.075   3.982   9.452 -1.6516 -1.5972  1.7572
  156SAPE   C3717440   1.218   3.819   9.376  0.4223  0.8492  0.2292
  156SAPE   H7X17441   1.220   3.865   9.274  2.9120 -0.2770 -0.3090
  156SAPE   H7Y17442   1.144   3.735   9.376  1.9555 -0.5824 -1.1932
  156SAPE   C3817443   1.357   3.769   9.405  0.3768 -0.8690 -0.0969
  156SAPE   H8X17444   1.366   3.734   9.509  0.7157 -2.4740 -0.6448
  156SAPE   H8Y17445   1.418   3.862   9.394 -1.1591 -0.0494 -2.6025
  156SAPE   C3917446   1.423   3.672   9.303 -0.2153  0.2741 -0.8323
  156SAPE   H9X17447   1.367   3.576   9.307  0.0876  0.1255  0.1068
  156SAPE   H9Y17448   1.525   3.656   9.343 -0.7086  0.4683  0.5758
  156SAPE  C31017449   1.429   3.715   9.159  0.8417 -0.3254 -0.4035
  156SAPE  H10X17450   1.489   3.808   9.154  1.6426 -0.5485  2.6177
  156SAPE  H10Y17451   1.324   3.731   9.125  0.8046 -0.2088 -0.2359
  156SAPE  C31117452   1.490   3.617   9.067 -0.0021  0.8498  0.4312
  156SAPE  H11X17453   1.422   3.529   9.061  2.6801 -1.3822  0.4121
  156SAPE  H11Y17454   1.586   3.578   9.108  0.8889  2.8125  0.2852
  156SAPE  C31217455   1.511   3.679   8.922  0.4961  0.2002  0.6026
  156SAPE  H12X17456   1.578   3.768   8.920 -1.0502  1.3891 -1.1687
  156SAPE  H12Y17457   1.411   3.719   8.897  0.2328 -0.6645  0.2338
  156SAPE  C31317458   1.538   3.573   8.817 -0.4568  0.2551  0.4036
  156SAPE  H13X17459   1.455   3.499   8.809 -1.3006  0.9740  1.9459
  156SAPE  H13Y17460   1.621   3.513   8.859  0.2224  0.2676 -0.8715
  156SAPE  C31417461   1.568   3.626   8.683 -0.4457  0.6712 -0.0481
  156SAPE  H14X17462   1.668   3.675   8.679  0.3295 -0.7416  1.1859
  156SAPE  H14Y17463   1.493   3.702   8.650 -0.8708  0.1577 -0.2768
  156SAPE  C31517464   1.572   3.518   8.567  0.7411 -0.0583  0.2597
  156SAPE  H15X17465   1.471   3.475   8.553  1.2987 -1.5553  0.7043
  156SAPE  H15Y17466   1.629   3.429   8.601 -0.7556 -0.9037  0.6507
  156SAPE  C31617467   1.624   3.583   8.439  0.3200 -0.1749  0.2707
  156SAPE  H16X17468   1.675   3.501   8.384 -1.0069 -0.6406 -0.2900
  156SAPE  H16Y17469   1.704   3.655   8.468 -0.5297 -0.2407  3.0304
  156SAPE  C31717470   1.513   3.652   8.359 -0.1835 -0.6165  0.5444
  156SAPE  H17X17471   1.466   3.738   8.411  1.1009  0.5140 -0.0818
  156SAPE  H17Y17472   1.432   3.579   8.338 -0.2057 -0.3075 -0.5108
  156SAPE  C31817473   1.552   3.703   8.218 -0.1048  0.1466 -0.4103
  156SAPE  H18X17474   1.650   3.754   8.232  0.0223 -0.3107  0.4553
  156SAPE  H18Y17475   1.463   3.765   8.194 -2.2581 -2.5453  0.0820
  156SAPE  H18Z17476   1.558   3.618   8.146  1.9025  0.2553 -0.4249
  157SAPE     N17477   0.351   2.642  11.242 -0.0712  0.5506 -0.8298
  157SAPE   HN117478   0.408   2.560  11.214 -1.7610 -1.0422  0.1567
  157SAPE   HN217479   0.309   2.622  11.335  1.3432 -0.5430 -0.3942
  157SAPE   HN317480   0.278   2.645  11.167  1.1337  1.1594 -2.0123
  157SAPE   C1217481   0.411   2.779  11.243 -0.4159 -0.9767 -0.5055
  157SAPE  H12A17482   0.466   2.802  11.337 -1.3011  1.6886 -0.5352
  157SAPE  H12B17483   0.327   2.852  11.249 -2.8272 -3.4949 -1.6633
  157SAPE   C1117484   0.507   2.801  11.124 -0.1937 -0.5859  0.2973
  157SAPE  H11A17485   0.560   2.706  11.099  3.0302  0.8358  1.1665
  157SAPE  H11B17486   0.586   2.870  11.161  0.3028 -1.2217  0.4556
  157SAPE     P17487   0.366   2.757  10.913 -0.0480 -0.2388  0.2200
  157SAPE   O1317488   0.258   2.687  10.989 -0.0395  0.1640  0.2316
  157SAPE   O1417489   0.331   2.843  10.800 -0.6452 -0.0907  0.3936
  157SAPE   O1217490   0.432   2.859  11.019  0.6346  0.4413  0.1167
  157SAPE   O1117491   0.472   2.649  10.866  0.4383  0.2571 -0.7020
  157SAPE    C117492   0.611   2.686  10.848 -0.0218 -0.6006  0.1362
  157SAPE    HA17493   0.656   2.751  10.926 -0.1121 -0.4266  0.0453
  157SAPE    HB17494   0.678   2.598  10.840  2.0082  0.9845 -1.4378
  157SAPE    C217495   0.633   2.766  10.708  0.1488 -0.3128 -0.4629
  157SAPE    HS17496   0.589   2.866  10.728 -0.5754 -0.4249 -1.4341
  157SAPE   O2117497   0.558   2.691  10.601 -0.2129 -0.2771  0.3906
  157SAPE   C2117498   0.517   2.774  10.506  0.1174 -0.8856 -0.1691
  157SAPE   O2217499   0.501   2.894  10.507  0.1162  0.0198 -0.1531
  157SAPE   C2217500   0.456   2.687  10.403 -0.6709 -0.0657  0.0169
  157SAPE   H2R17501   0.514   2.593  10.394 -1.0642 -0.1858 -1.4486
  157SAPE   H2S17502   0.353   2.652  10.428  0.1538 -2.4505  0.2909
  157SAPE    C317503   0.780   2.787  10.677  1.1119 -0.5776 -1.0170
  157SAPE    HX17504   0.817   2.686  10.649  1.7427 -0.3874 -0.8831
  157SAPE    HY17505   0.834   2.817  10.770 -1.6743  0.3432  0.4430
  157SAPE   O3117506   0.792   2.868  10.558 -0.2614 -0.2365 -0.2674
  157SAPE   C3117507   0.917   2.874  10.502 -0.4125  0.0537  0.5040
  157SAPE   O3217508   1.015   2.826  10.553  0.0068 -0.0158  0.4995
  157SAPE   C3217509   0.909   2.948  10.377  0.8970 -0.1431  0.0251
  157SAPE   H2X17510   0.951   3.046  10.408  0.5821  0.0145 -0.0365
  157SAPE   H2Y17511   0.801   2.957  10.354  0.3062  0.7065  2.7397
  157SAPE   C2317512   0.443   2.753  10.266 -0.3868  0.2448  0.6883
  157SAPE   H3R17513   0.390   2.850  10.276  2.8289  2.3850 -1.0749
  157SAPE   H3S17514   0.398   2.680  10.195  1.8542 -0.1122 -0.4613
  157SAPE   C2417515   0.584   2.792  10.199  0.6045 -0.8152 -0.1718
  157SAPE   H4R17516   0.619   2.863  10.278 -1.8801  0.2233  0.0836
  157SAPE   H4S17517   0.566   2.851  10.107  0.0970 -0.0755  0.3954
  157SAPE   C2517518   0.690   2.684  10.186  0.7151 -0.3303 -1.0360
  157SAPE   H5R17519   0.727   2.638  10.279 -1.8282  1.2940  0.9144
  157SAPE   C2617520   0.749   2.648  10.077 -0.2174  0.4853  1.0345
  157SAPE   H6R17521   0.843   2.590  10.076 -0.0690  0.7247  0.6756
  157SAPE   C2717522   0.722   2.708   9.933 -0.6112  0.1147 -0.3821
  157SAPE   H7R17523   0.799   2.668   9.864 -1.4893 -1.1374 -0.6868
  157SAPE   H7S17524   0.739   2.817   9.932  0.8695 -0.0814  0.5964
  157SAPE   C2817525   0.587   2.690   9.875  0.3866  0.0892  0.0999
  157SAPE   H8R17526   0.518   2.656   9.954 -1.2143  1.2708 -0.7246
  157SAPE   C2917527   0.544   2.694   9.749  0.4862 -0.9424 -0.7892
  157SAPE   H9R17528   0.437   2.683   9.724 -0.1184  2.6093 -0.2566
  157SAPE  C21017529   0.624   2.726   9.628 -0.3455  0.0193  0.1536
  157SAPE  H10R17530   0.583   2.666   9.543  2.8298 -0.9414 -0.8247
  157SAPE  H10S17531   0.733   2.704   9.629  0.0689  1.6480 -1.7872
  157SAPE  C21117532   0.602   2.866   9.586 -0.5599 -0.5333 -0.3974
  157SAPE  H11R17533   0.587   2.933   9.672 -0.0895 -1.0748  0.1112
  157SAPE  C21217534   0.598   2.925   9.464  0.4354  0.4573  0.0679
  157SAPE  H12R17535   0.574   3.032   9.459  1.8004  0.7247 -1.1861
  157SAPE  C21317536   0.610   2.856   9.330  0.0035  0.2620  0.3274
  157SAPE  H13R17537   0.624   2.746   9.331 -0.2650  0.2261  0.2725
  157SAPE  H13S17538   0.696   2.898   9.274  0.6347 -0.2684  0.8892
  157SAPE  C21417539   0.487   2.881   9.242  0.0623  0.0082  0.1146
  157SAPE  H14R17540   0.393   2.898   9.297  0.7345  0.9336  1.0048
  157SAPE  C21517541   0.488   2.891   9.112  0.0880 -0.3629 -0.1124
  157SAPE  H15R17542   0.396   2.919   9.058  0.4333  1.6235  0.2662
  157SAPE  C21617543   0.601   2.880   9.015  0.6376 -0.2418 -0.1792
  157SAPE  H16R17544   0.700   2.848   9.054 -1.0437 -1.5811  3.5067
  157SAPE  H16S17545   0.606   2.974   8.956  2.5729  0.5384  1.1448
  157SAPE  C21717546   0.566   2.761   8.915 -0.1961 -0.4844  0.6801
  157SAPE  H17R17547   0.469   2.780   8.865 -0.2281 -0.8403  0.6039
  157SAPE  H17S17548   0.564   2.667   8.973  1.4158 -0.5968  0.6180
  157SAPE  C21817549   0.680   2.756   8.807 -0.0314  0.1478  0.5188
  157SAPE  H18R17550   0.779   2.746   8.856 -0.2480 -0.4265  0.8553
  157SAPE  H18S17551   0.692   2.838   8.734  0.0464 -0.0633  0.2922
  157SAPE  C21917552   0.664   2.627   8.716  0.1114 -0.8303 -0.0217
  157SAPE  H19R17553   0.562   2.634   8.671 -0.8749  0.4336  2.2278
  157SAPE  H19S17554   0.675   2.531   8.769 -0.6380 -0.0016  1.7242
  157SAPE  C22017555   0.774   2.633   8.607  0.3293 -0.0910  0.1704
  157SAPE  H20R17556   0.857   2.691   8.654 -0.1575  0.2847  0.5742
  157SAPE  H20S17557   0.740   2.680   8.512  0.7789  1.7968  0.9019
  157SAPE  H20T17558   0.814   2.529   8.602  1.2863  0.2860 -4.4558
  157SAPE   C3317559   0.988   2.883  10.260 -0.2237  0.8103 -0.0569
  157SAPE   H3X17560   0.952   2.778  10.256  0.6357  0.5375 -1.2315
  157SAPE   H3Y17561   1.097   2.869  10.277 -0.3370 -0.4023 -0.2954
  157SAPE   C3417562   0.958   2.956  10.132  0.3440 -0.1200  0.2089
  157SAPE   H4X17563   0.983   3.063  10.148 -3.0778  0.7560  0.6689
  157SAPE   H4Y17564   0.848   2.963  10.113  0.1664 -0.3019  1.1529
  157SAPE   C3517565   1.029   2.896  10.002 -0.1194 -0.1714  0.0497
  157SAPE   H5X17566   0.991   2.795   9.978  2.1164 -0.9649 -0.4162
  157SAPE   H5Y17567   1.138   2.883  10.020 -0.2992 -1.6889  0.2117
  157SAPE   C3617568   1.008   2.997   9.891  0.3832 -0.3315 -0.4936
  157SAPE   H6X17569   1.075   3.085   9.897 -2.0617  1.6431 -0.1015
  157SAPE   H6Y17570   0.907   3.042   9.879  1.2124  1.4826 -1.0457
  157SAPE   C3717571   1.040   2.934   9.756 -0.3783 -0.3449  0.3291
  157SAPE   H7X17572   1.001   2.830   9.749 -3.0517  0.5326  1.0277
  157SAPE   H7Y17573   1.151   2.929   9.758 -0.2667  0.8876 -1.0869
  157SAPE   C3817574   0.999   3.009   9.627 -0.1826  0.0337 -0.6501
  157SAPE   H8X17575   1.047   3.109   9.629  0.8547 -0.4364 -1.1737
  157SAPE   H8Y17576   0.889   3.024   9.620 -0.0623  1.0802 -0.4389
  157SAPE   C3917577   1.051   2.935   9.504 -0.1477 -0.1292 -0.3158
  157SAPE   H9X17578   1.007   2.833   9.499 -0.2455 -0.1222  0.3792
  157SAPE   H9Y17579   1.160   2.925   9.521  0.2328  1.2753 -1.5965
  157SAPE  C31017580   1.030   3.008   9.371  0.7459 -0.0928  0.3681
  157SAPE  H10X17581   1.129   3.053   9.351  0.8391 -0.6027 -0.3684
  157SAPE  H10Y17582   0.946   3.079   9.390 -0.5931 -1.4791 -0.1431
  157SAPE  C31117583   0.978   2.903   9.265  0.7249 -0.8004 -0.1558
  157SAPE  H11X17584   0.889   2.853   9.307  1.3182 -3.4222 -1.7897
  157SAPE  H11Y17585   1.057   2.826   9.251 -0.4207 -1.9535 -0.4010
  157SAPE  C31217586   0.950   2.976   9.133 -0.1810 -0.1764 -0.4241
  157SAPE  H12X17587   0.957   3.086   9.149 -0.4037 -0.0881 -0.9361
  157SAPE  H12Y17588   0.847   2.953   9.097 -0.1794 -3.2387  1.1647
  157SAPE  C31317589   1.039   2.925   9.013 -0.2231  0.4277  0.0143
  157SAPE  H13X17590   1.028   2.816   8.998  0.6837  0.5910 -2.1823
  157SAPE  H13Y17591   1.144   2.939   9.044 -0.6456 -1.5726  2.7106
  157SAPE  C31417592   1.007   2.985   8.879 -0.0869  0.5589 -0.5150
  157SAPE  H14X17593   0.996   3.092   8.903 -1.1469  0.2505  0.4381
  157SAPE  H14Y17594   0.911   2.940   8.844  1.3328 -0.6450 -3.1628
  157SAPE  C31517595   1.113   2.960   8.764 -0.7449  0.0798 -0.1203
  157SAPE  H15X17596   1.095   3.027   8.677  0.1974 -0.2110 -0.5565
  157SAPE  H15Y17597   1.109   2.858   8.719 -1.5711  0.1299 -0.1687
  157SAPE  C31617598   1.255   3.009   8.819  0.5400  0.5722 -0.2127
  157SAPE  H16X17599   1.295   2.942   8.898  1.2216  3.5746  2.1737
  157SAPE  H16Y17600   1.244   3.106   8.872 -0.9760 -0.2299  1.0001
  157SAPE  C31717601   1.361   3.041   8.708 -0.3484  0.4081 -0.1444
  157SAPE  H17X17602   1.374   2.959   8.634 -1.6827 -0.2975  0.3628
  157SAPE  H17Y17603   1.456   3.035   8.767 -0.6961  0.8717  0.4811
  157SAPE  C31817604   1.349   3.189   8.659  0.4766 -0.2253 -0.6159
  157SAPE  H18X17605   1.247   3.222   8.629  1.2741  2.7832 -0.3575
  157SAPE  H18Y17606   1.425   3.207   8.580  1.8572 -2.2847  0.1476
  157SAPE  H18Z17607   1.380   3.246   8.749 -0.8344 -0.6595  0.1358
  158SAPE     N17608   2.778   5.556  10.928 -0.2904  0.0362  0.5121
  158SAPE   HN117609   2.863   5.599  10.968  0.1037 -1.3535  1.2570
  158SAPE   HN217610   2.772   5.558  10.824  0.5263 -1.0876  0.4154
  158SAPE   HN317611   2.691   5.603  10.957 -2.4922 -2.1986 -1.9134
  158SAPE   C1217612   2.776   5.416  10.966 -0.0464 -0.3742  1.2622
  158SAPE  H12A17613   2.674   5.378  10.985 -0.8470 -0.7349 -2.8840
  158SAPE  H12B17614   2.828   5.416  11.065  0.8188 -0.0695  0.8190
  158SAPE   C1117615   2.867   5.335  10.869 -0.2757  0.1672  0.4279
  158SAPE  H11A17616   2.836   5.345  10.763  1.6874 -1.0204 -0.2903
  158SAPE  H11B17617   2.871   5.229  10.902  0.5237 -0.1161 -0.5337
  158SAPE     P17618   3.126   5.345  10.799 -0.2676  0.0235  0.1578
  158SAPE   O1317619   3.245   5.396  10.877  0.5602  0.2476 -0.2394
  158SAPE   O1417620   3.114   5.196  10.776  0.3883 -0.5790 -0.0239
  158SAPE   O1217621   2.997   5.390  10.881 -0.3598 -0.2446  0.4324
  158SAPE   O1117622   3.093   5.428  10.669 -0.3795  0.2226 -0.1175
  158SAPE    C117623   3.151   5.546  10.612 -0.5984 -0.3124  0.5945
  158SAPE    HA17624   3.073   5.626  10.620 -2.0807 -0.9945 -4.0586
  158SAPE    HB17625   3.242   5.580  10.665 -0.6347  3.5961 -1.4905
  158SAPE    C217626   3.171   5.528  10.455 -0.6591 -0.2297 -0.0936
  158SAPE    HS17627   3.222   5.620  10.421  0.0180  0.7130  3.0966
  158SAPE   O2117628   3.046   5.511  10.382 -0.3173  0.1362 -0.1940
  158SAPE   C2117629   2.978   5.621  10.364  0.2325 -0.9802 -0.2821
  158SAPE   O2217630   3.003   5.731  10.406 -0.8290 -0.2865  0.2759
  158SAPE   C2217631   2.846   5.589  10.298 -0.1414 -0.4981 -0.0965
  158SAPE   H2R17632   2.842   5.481  10.272 -0.4031 -0.0082 -2.2409
  158SAPE   H2S17633   2.763   5.618  10.367  1.2356  0.9788  1.0298
  158SAPE    C317634   3.261   5.404  10.439  0.0645  0.0352 -0.0477
  158SAPE    HX17635   3.196   5.314  10.425 -0.2433  0.4697 -1.6747
  158SAPE    HY17636   3.315   5.384  10.534  0.3763  0.8254 -0.0516
  158SAPE   O3117637   3.360   5.435  10.338  0.7675  0.3383  0.6652
  158SAPE   C3117638   3.346   5.380  10.219 -0.4046 -0.5823  0.5571
  158SAPE   O3217639   3.248   5.319  10.184  0.1602 -0.0154  0.2791
  158SAPE   C3217640   3.486   5.384  10.152  0.3991 -0.5580  0.0826
  158SAPE   H2X17641   3.543   5.298  10.193  1.6437  0.4806  0.5873
  158SAPE   H2Y17642   3.536   5.478  10.181  0.7543 -0.7926  0.2386
  158SAPE   C2317643   2.826   5.671  10.171 -0.5503 -0.2465  0.0302
  158SAPE   H3R17644   2.882   5.767  10.178 -0.0147 -0.6660  2.3434
  158SAPE   H3S17645   2.722   5.709  10.174 -0.5215 -0.1219 -0.3956
  158SAPE   C2417646   2.851   5.600  10.039  0.6177 -0.5883 -0.3462
  158SAPE   H4R17647   2.828   5.688   9.975  0.4426 -0.9957 -0.8497
  158SAPE   H4S17648   2.768   5.530  10.015  1.0417 -0.6598 -1.6876
  158SAPE   C2517649   2.988   5.551  10.006 -0.5184  0.5540  0.9828
  158SAPE   H5R17650   3.021   5.464  10.063  1.1394  1.1724  1.0348
  158SAPE   C2617651   3.071   5.598   9.909 -0.0616  0.0454 -0.2199
  158SAPE   H6R17652   3.167   5.550   9.885  1.2841  0.7339  3.2401
  158SAPE   C2717653   3.038   5.715   9.821 -0.0470 -0.5438 -0.0485
  158SAPE   H7R17654   3.133   5.749   9.775  0.1769 -0.3201  0.5676
  158SAPE   H7S17655   2.996   5.796   9.884 -2.2546 -0.4425 -1.5226
  158SAPE   C2817656   2.936   5.689   9.714 -0.2708  0.5794  0.2270
  158SAPE   H8R17657   2.836   5.692   9.761 -0.1118 -0.7645  0.6690
  158SAPE   C2917658   2.939   5.699   9.576 -0.5146  0.1859  0.0585
  158SAPE   H9R17659   2.850   5.692   9.512  0.6252  2.7229 -1.9589
  158SAPE  C21017660   3.061   5.727   9.503  0.1036  0.1302  0.1806
  158SAPE  H10R17661   3.060   5.676   9.404 -3.2585 -0.7612  0.5586
  158SAPE  H10S17662   3.148   5.685   9.558  0.6552  1.4130  0.3166
  158SAPE  C21117663   3.088   5.871   9.485  0.3567 -0.2040  0.3112
  158SAPE  H11R17664   3.107   5.933   9.574 -1.0018  0.1528  0.3736
  158SAPE  C21217665   3.105   5.936   9.364  0.2387  0.1090  0.1209
  158SAPE  H12R17666   3.119   6.045   9.370  1.4003 -0.0682  0.9454
  158SAPE  C21317667   3.104   5.869   9.229  0.7713 -0.1865 -0.8500
  158SAPE  H13R17668   3.090   5.948   9.152  1.6498  2.3539  1.4299
  158SAPE  H13S17669   3.011   5.808   9.220 -0.2853  1.3120 -0.4577
  158SAPE  C21417670   3.230   5.789   9.212 -0.5489 -0.1178  0.0910
  158SAPE  H14R17671   3.250   5.713   9.289  0.5021  0.0896  0.0333
  158SAPE  C21517672   3.321   5.816   9.111  0.3030 -0.3104 -0.0087
  158SAPE  H15R17673   3.411   5.754   9.099 -0.0091 -0.7655 -0.0251
  158SAPE  C21617674   3.306   5.916   8.997 -0.6761  0.2144 -0.0368
  158SAPE  H16R17675   3.208   5.968   8.999 -0.2254  1.1398 -1.0033
  158SAPE  H16S17676   3.321   5.866   8.898 -0.4977 -0.3729  0.2799
  158SAPE  C21717677   3.409   6.034   9.015  0.2791  0.4619 -0.6658
  158SAPE  H17R17678   3.375   6.084   9.108  1.2730  1.5977 -0.8909
  158SAPE  H17S17679   3.392   6.111   8.936 -0.1862 -1.2606 -2.3110
  158SAPE  C21817680   3.557   6.008   9.015  0.5495 -0.1818 -0.3718
  158SAPE  H18R17681   3.586   5.916   9.070  0.7469 -1.5842 -2.6950
  158SAPE  H18S17682   3.608   6.089   9.073  0.5978 -0.7923  0.4561
  158SAPE  C21917683   3.625   5.987   8.883  0.2614 -0.0227 -0.2610
  158SAPE  H19R17684   3.612   6.075   8.817 -0.5101 -0.6769 -1.0224
  158SAPE  H19S17685   3.577   5.901   8.830 -2.2844  1.7518 -1.0385
  158SAPE  C22017686   3.777   5.957   8.907  0.0256 -0.4243 -0.3789
  158SAPE  H20R17687   3.835   6.043   8.947  2.2050 -2.3058  0.7354
  158SAPE  H20S17688   3.818   5.919   8.812  1.2574 -0.5995  0.2007
  158SAPE  H20T17689   3.787   5.887   8.993  0.9668 -0.2973 -0.3800
  158SAPE   C3317690   3.464   5.379  10.001 -0.8576  0.4334  0.4447
  158SAPE   H3X17691   3.419   5.476   9.970  0.1846  1.5767  2.2999
  158SAPE   H3Y17692   3.393   5.299   9.973  0.9838 -0.3351 -2.5298
  158SAPE   C3417693   3.594   5.343   9.929 -0.2148  0.1153  0.4930
  158SAPE   H4X17694   3.616   5.238   9.958  2.6481  0.9949  1.8093
  158SAPE   H4Y17695   3.687   5.391   9.965 -0.7326  0.6275  1.1771
  158SAPE   C3517696   3.581   5.340   9.781 -0.4975  0.2134  0.1751
  158SAPE   H5X17697   3.507   5.262   9.751 -2.4248  2.5842 -1.5558
  158SAPE   H5Y17698   3.685   5.319   9.748  0.0331  1.5264  0.9515
  158SAPE   C3617699   3.542   5.472   9.710 -0.0026  0.4441  0.0549
  158SAPE   H6X17700   3.594   5.557   9.757 -1.7719  1.1723  0.7917
  158SAPE   H6Y17701   3.434   5.499   9.719 -1.1662 -3.4436 -0.3279
  158SAPE   C3717702   3.572   5.482   9.554 -0.4653  0.4216  0.2714
  158SAPE   H7X17703   3.682   5.490   9.557 -0.5852  2.5528  1.9661
  158SAPE   H7Y17704   3.541   5.584   9.521  1.3014  0.5452 -1.1369
  158SAPE   C3817705   3.514   5.377   9.456 -0.5232  0.2812 -0.9205
  158SAPE   H8X17706   3.406   5.355   9.450 -1.1270  0.5798  4.0353
  158SAPE   H8Y17707   3.568   5.290   9.499  1.1276  0.9224 -1.6057
  158SAPE   C3917708   3.587   5.404   9.321 -0.3799  0.1426 -0.2473
  158SAPE   H9X17709   3.597   5.304   9.274 -0.8280  2.0021 -4.9184
  158SAPE   H9Y17710   3.685   5.452   9.341 -0.1558 -0.2222 -0.4477
  158SAPE  C31017711   3.498   5.484   9.234 -0.3305 -0.0445  0.6472
  158SAPE  H10X17712   3.472   5.580   9.285  1.6184  0.4935  0.7109
  158SAPE  H10Y17713   3.397   5.437   9.234 -1.2281  1.7105  2.1713
  158SAPE  C31117714   3.552   5.513   9.093 -0.1882 -0.3449  0.7192
  158SAPE  H11X17715   3.487   5.580   9.033  0.6857  1.1740  1.4133
  158SAPE  H11Y17716   3.546   5.412   9.048 -1.4615 -0.5631  1.3363
  158SAPE  C31217717   3.692   5.573   9.083  0.1472  0.4442 -0.0379
  158SAPE  H12X17718   3.712   5.656   9.155 -0.4656  0.6650 -0.1209
  158SAPE  H12Y17719   3.688   5.639   8.993  0.0953  0.3881 -0.0768
  158SAPE  C31317720   3.803   5.482   9.057 -0.9803  0.8241 -0.1725
  158SAPE  H13X17721   3.787   5.395   8.990  0.8040  0.2897  0.0371
  158SAPE  H13Y17722   3.831   5.442   9.157  2.9046  1.0931 -0.9977
  158SAPE  C31417723   3.925   5.562   8.996 -0.5713  0.1556  0.6906
  158SAPE  H14X17724   3.953   5.628   9.081  2.4788 -0.2650  0.1341
  158SAPE  H14Y17725   3.900   5.630   8.912  0.0807  0.1486  0.4802
  158SAPE  C31517726   4.050   5.476   8.980  0.0185 -0.4472 -0.3873
  158SAPE  H15X17727   4.121   5.526   8.910  0.7443  0.3700  0.8956
  158SAPE  H15Y17728   4.011   5.387   8.926  0.4633 -1.3110  0.6905
  158SAPE  C31617729   4.116   5.436   9.111 -0.7229  0.5240  0.5221
  158SAPE  H16X17730   4.046   5.378   9.175 -1.7566  0.1878 -0.8704
  158SAPE  H16Y17731   4.143   5.524   9.174 -2.7895  2.0127 -0.5513
  158SAPE  C31717732   4.232   5.334   9.088  0.2669  0.1595 -0.5435
  158SAPE  H17X17733   4.192   5.258   9.018 -1.6406  0.8786 -0.2939
  158SAPE  H17Y17734   4.264   5.271   9.174  1.0116  0.5013 -0.5666
  158SAPE  C31817735   4.355   5.399   9.029 -0.6236 -0.5969 -0.6409
  158SAPE  H18X17736   4.317   5.452   8.939 -0.3220  0.4529 -0.1593
  158SAPE  H18Y17737   4.438   5.333   8.996  1.3425  1.2394  0.3698
  158SAPE  H18Z17738   4.408   5.470   9.096  1.3152 -0.3370 -2.3857
  159SAPE     N17739   0.405   2.936   6.490 -0.0583 -0.0819  0.1832
  159SAPE   HN117740   0.336   2.950   6.414  2.3548  2.7499 -1.7039
  159SAPE   HN217741   0.349   2.941   6.578 -0.5086  2.9813 -0.1771
  159SAPE   HN317742   0.472   3.014   6.502  0.8615 -0.7856 -0.2463
  159SAPE   C1217743   0.469   2.804   6.477 -0.4785  0.3750  0.4156
  159SAPE  H12A17744   0.576   2.823   6.501  0.0555 -1.0198 -0.6921
  159SAPE  H12B17745   0.469   2.781   6.368 -3.0074  0.0179  0.4484
  159SAPE   C1117746   0.397   2.694   6.560 -0.0077 -0.2287 -0.6945
  159SAPE  H11A17747   0.395   2.730   6.665  0.9088 -2.2279  0.0494
  159SAPE  H11B17748   0.455   2.600   6.554  0.6885  0.1887 -0.6530
  159SAPE     P17749   0.194   2.539   6.522  0.0329 -0.2395 -0.0543
  159SAPE   O1317750   0.049   2.535   6.487 -0.6880  0.0794  0.3511
  159SAPE   O1417751   0.274   2.434   6.458 -0.0418  0.6467  0.4527
  159SAPE   O1217752   0.257   2.687   6.515 -0.3753 -0.0062 -0.6307
  159SAPE   O1117753   0.197   2.494   6.673  0.4595  0.2321  0.4225
  159SAPE    C117754   0.145   2.581   6.769 -0.3282  0.7269 -0.3307
  159SAPE    HA17755   0.229   2.634   6.818  0.0505  0.2976 -0.5056
  159SAPE    HB17756   0.082   2.662   6.726 -0.1186  0.5988 -0.8989
  159SAPE    C217757   0.054   2.514   6.879 -0.2868 -0.6645 -0.9022
  159SAPE    HS17758   0.042   2.604   6.942 -1.3997  0.8158 -3.0592
  159SAPE   O2117759   0.129   2.409   6.945  0.4471 -0.2675 -0.1880
  159SAPE   C2117760   0.071   2.370   7.053  0.3410  0.3382 -0.3798
  159SAPE   O2217761   0.015   2.441   7.136  0.1829 -0.2874 -0.0598
  159SAPE   C2217762   0.089   2.212   7.071 -0.3560  0.6081  0.1704
  159SAPE   H2R17763   0.004   2.173   7.012 -0.7629 -1.0930  1.7736
  159SAPE   H2S17764   0.183   2.181   7.022 -1.2179 -2.8749  0.4464
  159SAPE    C317765  -0.087   2.477   6.817 -0.1286  0.0700 -0.9816
  159SAPE    HX17766  -0.060   2.385   6.760  1.2362 -0.2091  0.0787
  159SAPE    HY17767  -0.115   2.554   6.742 -2.8845 -1.4394 -1.6498
  159SAPE   O3117768  -0.189   2.448   6.922  0.0133  0.0804 -0.1124
  159SAPE   C3117769  -0.311   2.493   6.898 -0.0492 -0.5660  0.4735
  159SAPE   O3217770  -0.345   2.547   6.790  0.1494 -0.5809 -0.4353
  159SAPE   C3217771  -0.401   2.468   7.018  0.7617  0.0451  0.0889
  159SAPE   H2X17772  -0.339   2.513   7.099 -0.7069 -0.0619  1.3029
  159SAPE   H2Y17773  -0.413   2.359   7.031  0.1555 -0.1321 -1.6488
  159SAPE   C2317774   0.080   2.160   7.215 -0.1910 -0.5071 -0.7021
  159SAPE   H3R17775  -0.025   2.181   7.244  0.6511  2.1838  0.7051
  159SAPE   H3S17776   0.151   2.200   7.291 -1.0671 -0.2764  0.0045
  159SAPE   C2417777   0.084   2.006   7.207 -0.2599  0.3579 -0.1119
  159SAPE   H4R17778   0.183   1.968   7.172 -0.6628  0.4351 -1.4074
  159SAPE   H4S17779   0.023   1.971   7.121 -1.1433 -0.3755  0.7876
  159SAPE   C2517780   0.032   1.938   7.333  0.5877 -0.0926 -0.8666
  159SAPE   H5R17781  -0.071   1.899   7.329  1.5081 -2.7239 -1.7980
  159SAPE   C2617782   0.088   1.917   7.451 -1.2090  0.2676 -0.1634
  159SAPE   H6R17783   0.041   1.848   7.523 -2.7372  2.2280  0.8204
  159SAPE   C2717784   0.232   1.960   7.482  0.5934  0.3911  0.0143
  159SAPE   H7R17785   0.226   2.032   7.567 -1.4930  0.4815 -0.1454
  159SAPE   H7S17786   0.272   2.026   7.403 -1.3255  2.3538  0.5575
  159SAPE   C2817787   0.334   1.854   7.511  0.4912  0.0605 -0.3468
  159SAPE   H8R17788   0.390   1.823   7.422 -0.8153 -0.4299 -1.0341
  159SAPE   C2917789   0.341   1.788   7.630 -0.2256  0.3287 -0.3521
  159SAPE   H9R17790   0.422   1.715   7.641 -0.5140 -0.1745 -1.3733
  159SAPE  C21017791   0.264   1.815   7.753  0.2682  0.0763  0.1122
  159SAPE  H10R17792   0.178   1.885   7.741  1.7139  1.7416 -0.9944
  159SAPE  H10S17793   0.324   1.874   7.825 -0.1241  1.6024 -0.7676
  159SAPE  C21117794   0.221   1.686   7.816 -0.1398  0.4876 -0.1210
  159SAPE  H11R17795   0.254   1.595   7.763  0.7865 -0.1069  1.3766
  159SAPE  C21217796   0.176   1.667   7.942 -0.2456 -0.6025 -0.8282
  159SAPE  H12R17797   0.139   1.567   7.970  1.9756 -1.4338 -0.6826
  159SAPE  C21317798   0.148   1.782   8.036 -0.0278 -0.5134  0.7933
  159SAPE  H13R17799   0.041   1.812   8.040  0.1895  0.2617  0.8427
  159SAPE  H13S17800   0.208   1.871   8.007 -1.4418  0.0049 -0.7326
  159SAPE  C21417801   0.196   1.721   8.157 -0.6995  0.2507 -0.4022
  159SAPE  H14R17802   0.294   1.674   8.139 -0.6897 -1.0445  2.5947
  159SAPE  C21517803   0.139   1.725   8.278 -1.2473  0.0684  0.3927
  159SAPE  H15R17804   0.186   1.677   8.365 -0.8174  0.7094  0.5251
  159SAPE  C21617805   0.010   1.780   8.320 -1.0391 -0.4494 -0.4561
  159SAPE  H16R17806  -0.057   1.774   8.232 -1.6125  3.4620 -0.4813
  159SAPE  H16S17807   0.009   1.887   8.351 -0.6326 -0.0756 -1.6568
  159SAPE  C21717808  -0.071   1.712   8.435 -0.7856  0.1646  0.7586
  159SAPE  H17R17809  -0.011   1.733   8.526  0.9212  1.1679 -0.5344
  159SAPE  H17S17810  -0.069   1.602   8.421  0.3226  0.1272  1.1035
  159SAPE  C21817811  -0.213   1.765   8.444 -0.1076  1.0863  0.1554
  159SAPE  H18R17812  -0.261   1.745   8.346  1.2275 -0.2057 -0.2825
  159SAPE  H18S17813  -0.212   1.873   8.470  0.4474  1.3143 -0.7595
  159SAPE  C21917814  -0.289   1.696   8.561 -0.1481 -0.6085  0.7259
  159SAPE  H19R17815  -0.234   1.712   8.656 -1.4217 -0.2323  1.4139
  159SAPE  H19S17816  -0.298   1.589   8.531  2.1673 -0.2765 -1.5449
  159SAPE  C22017817  -0.427   1.765   8.571 -0.8536 -0.3215  0.3428
  159SAPE  H20R17818  -0.487   1.718   8.652 -0.9577  0.3689  0.6727
  159SAPE  H20S17819  -0.485   1.754   8.477 -0.2602 -1.3977  0.0916
  159SAPE  H20T17820  -0.409   1.874   8.584 -1.0061  0.0078 -1.7919
  159SAPE   C3317821  -0.541   2.533   7.023 -0.3300 -0.9758  0.4422
  159SAPE   H3X17822  -0.591   2.516   6.925 -0.8948  2.8849 -0.1144
  159SAPE   H3Y17823  -0.538   2.644   7.031  1.6804 -1.0373  1.0738
  159SAPE   C3417824  -0.632   2.486   7.140  0.5219  0.0932  0.1051
  159SAPE   H4X17825  -0.612   2.380   7.166  1.4108  0.7741  2.4887
  159SAPE   H4Y17826  -0.735   2.491   7.099  0.8789 -0.3472 -0.8655
  159SAPE   C3517827  -0.592   2.550   7.276 -0.2316  0.1991 -0.0254
  159SAPE   H5X17828  -0.608   2.660   7.278 -2.4122 -0.0810  0.6038
  159SAPE   H5Y17829  -0.485   2.522   7.276 -0.2740 -0.2820 -2.8249
  159SAPE   C3617830  -0.669   2.489   7.392 -0.5263 -0.6551 -0.2427
  159SAPE   H6X17831  -0.667   2.379   7.373 -2.8379 -0.6943 -0.4588
  159SAPE   H6Y17832  -0.775   2.521   7.397 -0.9168 -1.7543 -1.1716
  159SAPE   C3717833  -0.606   2.515   7.533  0.4738 -0.1222 -0.0335
  159SAPE   H7X17834  -0.611   2.624   7.559  0.9605  0.0386 -0.6009
  159SAPE   H7Y17835  -0.501   2.484   7.519  1.6033  3.1387  0.2966
  159SAPE   C3817836  -0.662   2.431   7.646  0.3515  0.1265  0.0405
  159SAPE   H8X17837  -0.652   2.324   7.619  1.2586  0.8532 -2.8962
  159SAPE   H8Y17838  -0.773   2.439   7.646  0.2464 -0.4453  2.3900
  159SAPE   C3917839  -0.599   2.455   7.783 -0.2186 -0.4676 -0.5013
  159SAPE   H9X17840  -0.624   2.562   7.802 -1.3073 -1.2974  3.6956
  159SAPE   H9Y17841  -0.491   2.430   7.792  0.2580  1.8681  1.3474
  159SAPE  C31017842  -0.692   2.388   7.889  0.3547  0.9500  0.4195
  159SAPE  H10X17843  -0.686   2.280   7.862 -0.5885  1.4490 -1.9692
  159SAPE  H10Y17844  -0.793   2.434   7.882  0.5877  1.2599 -1.4293
  159SAPE  C31117845  -0.628   2.399   8.025 -0.4294 -0.3595 -0.6106
  159SAPE  H11X17846  -0.618   2.510   8.030 -1.6728 -0.2524 -0.3556
  159SAPE  H11Y17847  -0.523   2.364   8.038  0.1341  1.3589 -0.1324
  159SAPE  C31217848  -0.709   2.358   8.144  0.3248  0.0815  0.4520
  159SAPE  H12X17849  -0.713   2.247   8.150 -0.4312 -0.1361 -2.6546
  159SAPE  H12Y17850  -0.817   2.373   8.123  0.3404  1.4726  1.2468
  159SAPE  C31317851  -0.665   2.398   8.285 -0.3417 -0.7647 -0.0244
  159SAPE  H13X17852  -0.719   2.338   8.361 -2.3935  2.4370  1.2932
  159SAPE  H13Y17853  -0.682   2.508   8.296 -0.2922 -0.7809  0.2262
  159SAPE  C31417854  -0.514   2.378   8.301  0.4652 -0.0496  0.0206
  159SAPE  H14X17855  -0.455   2.459   8.253 -0.7931 -0.1919 -1.8481
  159SAPE  H14Y17856  -0.490   2.286   8.244 -1.0124  0.6061 -1.7801
  159SAPE  C31517857  -0.471   2.354   8.445 -0.9331  0.3018  0.1036
  159SAPE  H15X17858  -0.372   2.306   8.442 -2.0995 -2.2062 -1.2555
  159SAPE  H15Y17859  -0.545   2.286   8.493 -0.7346  0.7182  1.0175
  159SAPE  C31617860  -0.469   2.482   8.524  0.2671  0.0277  0.8817
  159SAPE  H16X17861  -0.564   2.536   8.503  0.6820  0.5490  0.2710
  159SAPE  H16Y17862  -0.405   2.563   8.482 -2.9111  2.5508  0.5475
  159SAPE  C31717863  -0.467   2.477   8.676  0.6243  0.0340 -0.0200
  159SAPE  H17X17864  -0.554   2.424   8.721  3.2966 -3.6124  1.4187
  159SAPE  H17Y17865  -0.469   2.585   8.699  1.8939 -0.1211  0.9160
  159SAPE  C31817866  -0.343   2.417   8.736 -0.6168 -0.5032 -0.1553
  159SAPE  H18X17867  -0.350   2.433   8.846 -0.4726 -0.0224 -0.2148
  159SAPE  H18Y17868  -0.262   2.476   8.688 -2.3783  1.1641 -1.1933
  159SAPE  H18Z17869  -0.327   2.309   8.711  1.3048  0.2779 -2.7698
  160SAPE     N17870   0.111   4.732   6.289 -0.1512 -0.5738  0.2578
  160SAPE   HN117871   0.212   4.744   6.271 -0.5704  2.7299 -0.4253
  160SAPE   HN217872   0.083   4.632   6.276 -0.6247 -0.3815 -0.2686
  160SAPE   HN317873   0.061   4.784   6.214  0.6318 -1.8265 -1.2023
  160SAPE   C1217874   0.062   4.783   6.415  0.2549  0.2511 -0.5966
  160SAPE  H12A17875  -0.041   4.748   6.435  1.1224 -1.1753  1.7626
  160SAPE  H12B17876   0.066   4.893   6.401  2.3045  0.5445  1.6028
  160SAPE   C1117877   0.156   4.751   6.532 -0.1739  0.2041  0.0320
  160SAPE  H11A17878   0.105   4.779   6.627  0.6483 -0.9123  0.8310
  160SAPE  H11B17879   0.248   4.813   6.536 -1.2113  1.7589  2.4515
  160SAPE     P17880   0.116   4.495   6.605  0.2822  0.4596 -0.1696
  160SAPE   O1317881  -0.024   4.537   6.626 -0.5311 -0.3318  0.2316
  160SAPE   O1417882   0.126   4.363   6.539  0.2499 -0.0970  0.5249
  160SAPE   O1217883   0.188   4.607   6.522 -0.0545 -0.0048 -0.3167
  160SAPE   O1117884   0.200   4.489   6.744 -0.2491  0.3028  0.3285
  160SAPE    C117885   0.265   4.364   6.781 -0.8415  0.5796 -0.0960
  160SAPE    HA17886   0.300   4.308   6.691  1.0142  1.7281 -0.1438
  160SAPE    HB17887   0.361   4.394   6.828 -0.7831  1.0117 -0.4826
  160SAPE    C217888   0.183   4.273   6.880  0.0261 -0.6961 -0.2941
  160SAPE    HS17889   0.100   4.236   6.816 -0.5239 -1.2507  0.7178
  160SAPE   O2117890   0.137   4.355   6.987 -0.1094  0.2362 -0.4252
  160SAPE   C2117891   0.092   4.290   7.088 -0.0132  0.3097  0.6651
  160SAPE   O2217892   0.045   4.177   7.094 -0.0964  0.1473  0.0207
  160SAPE   C2217893   0.145   4.356   7.216 -0.3517  0.1544  0.5339
  160SAPE   H2R17894   0.218   4.434   7.187 -0.1254 -0.2969 -0.1353
  160SAPE   H2S17895   0.062   4.417   7.259  0.6061  1.2855  0.8127
  160SAPE    C317896   0.271   4.147   6.924  0.8954  0.0675  0.3306
  160SAPE    HX17897   0.316   4.111   6.829  0.4497 -0.8464  0.4530
  160SAPE    HY17898   0.209   4.062   6.960 -1.0492  1.3559  0.1376
  160SAPE   O3117899   0.380   4.169   7.022 -0.1457 -0.4722  0.1225
  160SAPE   C3117900   0.433   4.065   7.087 -0.8710  0.4545  0.2662
  160SAPE   O3217901   0.399   3.950   7.081 -0.1037  1.1933 -0.2907
  160SAPE   C3217902   0.543   4.119   7.178 -0.3205 -0.7489  0.0348
  160SAPE   H2X17903   0.507   4.219   7.211 -1.5016 -0.2059 -2.6364
  160SAPE   H2Y17904   0.628   4.140   7.110  0.6909 -1.8634  0.8965
  160SAPE   C2317905   0.184   4.248   7.320 -0.2824  0.5677 -0.3687
  160SAPE   H3R17906   0.284   4.205   7.297 -0.4528  0.2065 -0.4413
  160SAPE   H3S17907   0.100   4.175   7.323 -0.3374  0.6486  0.2033
  160SAPE   C2417908   0.184   4.323   7.459  0.0751 -0.3814  0.4094
  160SAPE   H4R17909   0.089   4.370   7.493  0.7769  0.4657  1.2795
  160SAPE   H4S17910   0.249   4.413   7.447  2.6346 -2.0205  1.2430
  160SAPE   C2517911   0.234   4.226   7.557  0.0390  0.2445 -0.1654
  160SAPE   H5R17912   0.339   4.202   7.534  0.1810  1.5944 -1.1016
  160SAPE   C2617913   0.185   4.184   7.676  0.6004 -0.0367  0.0686
  160SAPE   H6R17914   0.232   4.101   7.730  0.0742 -1.7811 -2.0345
  160SAPE   C2717915   0.055   4.244   7.732 -0.0272  0.2644  1.0109
  160SAPE   H7R17916  -0.030   4.189   7.687  1.4166 -1.7816  0.6510
  160SAPE   H7S17917   0.068   4.351   7.704  0.3688  0.2071  0.9774
  160SAPE   C2817918   0.041   4.244   7.882 -0.0316 -0.8930  1.1730
  160SAPE   H8R17919   0.103   4.317   7.936  0.0371 -0.6612  0.7800
  160SAPE   C2917920  -0.041   4.158   7.945  0.1045 -0.0127  0.2990
  160SAPE   H9R17921  -0.045   4.158   8.055  1.5572 -1.2503  0.3815
  160SAPE  C21017922  -0.123   4.042   7.883  0.1307 -0.1929  0.1597
  160SAPE  H10R17923  -0.060   3.952   7.894  0.6913 -0.0531 -1.6949
  160SAPE  H10S17924  -0.145   4.061   7.776 -1.0750  1.5239  0.6585
  160SAPE  C21117925  -0.258   4.039   7.955 -0.3223 -0.0172 -0.1699
  160SAPE  H11R17926  -0.333   4.109   7.914 -1.7899 -0.6511  1.3389
  160SAPE  C21217927  -0.291   3.960   8.060 -0.9668 -0.4665  0.5872
  160SAPE  H12R17928  -0.396   3.963   8.090 -1.2694  1.9535 -0.4795
  160SAPE  C21317929  -0.195   3.863   8.131 -0.1940 -0.3309 -0.1146
  160SAPE  H13R17930  -0.088   3.879   8.106 -0.6343  1.6811 -0.8763
  160SAPE  H13S17931  -0.215   3.757   8.104  0.3469 -0.0648 -1.6776
  160SAPE  C21417932  -0.209   3.878   8.278 -0.1960 -0.0315  0.2611
  160SAPE  H14R17933  -0.122   3.930   8.320 -1.0539 -0.5625  2.8528
  160SAPE  C21517934  -0.311   3.839   8.360 -0.7220 -0.7908 -0.0221
  160SAPE  H15R17935  -0.303   3.856   8.469  0.4907 -1.9026  0.0849
  160SAPE  C21617936  -0.436   3.769   8.321 -0.6704 -0.0651  0.4577
  160SAPE  H16R17937  -0.450   3.755   8.212 -0.2580 -1.0972  0.5291
  160SAPE  H16S17938  -0.524   3.825   8.359 -1.6511 -0.8937 -0.5644
  160SAPE  C21717939  -0.445   3.636   8.391  0.1980 -0.7176  0.7092
  160SAPE  H17R17940  -0.432   3.645   8.501 -1.8097 -0.9042  1.0145
  160SAPE  H17S17941  -0.354   3.583   8.357 -0.9182 -0.9530 -2.1602
  160SAPE  C21817942  -0.573   3.550   8.378 -0.1871 -0.8677  0.9358
  160SAPE  H18R17943  -0.573   3.495   8.281 -2.8162  0.9359 -0.2079
  160SAPE  H18S17944  -0.665   3.611   8.365 -0.3497 -0.8138  2.2517
  160SAPE  C21917945  -0.587   3.445   8.492 -0.0966 -0.8661 -0.3832
  160SAPE  H19R17946  -0.612   3.495   8.589 -0.1180  1.6620 -1.6210
  160SAPE  H19S17947  -0.487   3.400   8.506  0.5215  0.3603 -0.7309
  160SAPE  C22017948  -0.702   3.348   8.474 -0.4119 -0.0405  0.9423
  160SAPE  H20R17949  -0.795   3.407   8.458  1.0578  2.0812 -0.3929
  160SAPE  H20S17950  -0.702   3.271   8.554  1.5506 -1.2295 -0.1025
  160SAPE  H20T17951  -0.679   3.292   8.381  1.6797  0.5690  1.0331
  160SAPE   C3317952   0.570   4.037   7.299 -0.0740  0.1401 -0.3029
  160SAPE   H3X17953   0.614   3.940   7.268  0.4855 -0.0232  0.9440
  160SAPE   H3Y17954   0.476   4.008   7.349  0.8172 -2.9397 -0.2133
  160SAPE   C3417955   0.670   4.112   7.390 -0.9407 -0.7613 -0.1060
  160SAPE   H4X17956   0.639   4.218   7.404  1.8744  0.0870  0.3563
  160SAPE   H4Y17957   0.767   4.118   7.337 -0.8329 -2.4965 -0.1442
  160SAPE   C3517958   0.683   4.047   7.529 -0.1444 -0.7726 -0.2209
  160SAPE   H5X17959   0.781   4.068   7.576 -1.2263  2.2150  0.9006
  160SAPE   H5Y17960   0.683   3.936   7.516  0.3704 -0.8148  0.1305
  160SAPE   C3617961   0.581   4.085   7.628 -0.7109 -0.2729 -0.0844
  160SAPE   H6X17962   0.483   4.081   7.575 -0.9161  2.1877 -0.0158
  160SAPE   H6Y17963   0.605   4.190   7.657  0.9099 -1.1847  2.2047
  160SAPE   C3717964   0.589   4.004   7.761 -0.1901 -0.2987  0.8966
  160SAPE   H7X17965   0.696   3.999   7.789  0.4845  0.3864 -1.3766
  160SAPE   H7Y17966   0.563   3.897   7.751  1.1104 -0.4431 -2.0444
  160SAPE   C3817967   0.508   4.065   7.878 -0.0559 -0.2203 -0.3829
  160SAPE   H8X17968   0.402   4.038   7.858 -0.3532 -2.8420  3.5978
  160SAPE   H8Y17969   0.531   4.172   7.896 -2.7670  0.1754  1.2387
  160SAPE   C3917970   0.533   3.998   8.008 -0.8645  0.3306  0.3355
  160SAPE   H9X17971   0.639   3.979   8.035 -1.6260 -0.6764  2.9581
  160SAPE   H9Y17972   0.491   3.895   8.010  2.7346 -1.3429 -1.6376
  160SAPE  C31017973   0.477   4.073   8.137 -0.5695  0.0414 -0.0025
  160SAPE  H10X17974   0.510   4.179   8.142  1.6483 -0.6690  1.7681
  160SAPE  H10Y17975   0.510   4.031   8.234  1.9176  1.0473 -0.3481
  160SAPE  C31117976   0.328   4.076   8.140  0.4295  0.7026 -0.0528
  160SAPE  H11X17977   0.284   3.983   8.099  1.3703  1.3282 -2.6863
  160SAPE  H11Y17978   0.287   4.149   8.067 -0.4527 -0.1220 -0.3967
  160SAPE  C31217979   0.274   4.121   8.281  0.4190  0.0837 -0.2420
  160SAPE  H12X17980   0.340   4.209   8.295 -1.0882  1.3641 -0.9234
  160SAPE  H12Y17981   0.299   4.041   8.355 -0.4467 -0.6046 -0.6688
  160SAPE  C31317982   0.125   4.144   8.266 -0.1085  0.4776 -0.6892
  160SAPE  H13X17983   0.071   4.051   8.238 -1.4928  1.8518 -2.8619
  160SAPE  H13Y17984   0.107   4.216   8.183  1.5248  2.1593  0.3377
  160SAPE  C31417985   0.063   4.192   8.401 -0.2372  0.7545  0.3109
  160SAPE  H14X17986  -0.043   4.220   8.381  0.1629  1.6318 -0.6971
  160SAPE  H14Y17987   0.119   4.282   8.435 -1.4855  1.5648  0.2879
  160SAPE  C31517988   0.059   4.066   8.488 -0.3301  0.1045  0.1025
  160SAPE  H15X17989   0.161   4.053   8.530 -0.4892 -1.7041  0.0199
  160SAPE  H15Y17990   0.051   3.974   8.426 -1.2929 -0.7290  1.4026
  160SAPE  C31617991  -0.042   4.065   8.601 -0.2624  0.0175  0.3749
  160SAPE  H16X17992  -0.136   4.020   8.564  0.0145  0.5922 -1.0873
  160SAPE  H16Y17993  -0.056   4.170   8.635  1.4199  1.1155 -2.0216
  160SAPE  C31717994   0.003   3.979   8.724 -0.0185  0.0466  0.4068
  160SAPE  H17X17995  -0.050   4.012   8.816 -1.9133 -2.4674  0.3301
  160SAPE  H17Y17996   0.106   4.014   8.743 -0.5252  0.2361  3.0792
  160SAPE  C31817997  -0.003   3.829   8.701  0.2733  0.5742  0.8401
  160SAPE  H18X17998  -0.101   3.807   8.654  1.4900  0.5006 -1.8793
  160SAPE  H18Y17999   0.028   3.776   8.793 -0.8038  1.6132  1.8242
  160SAPE  H18Z18000   0.071   3.808   8.620 -1.2172  1.0044 -0.7044
  161SAPE     N18001   1.425   1.453   6.369 -0.3786  0.4434  0.0068
  161SAPE   HN118002   1.476   1.366   6.397 -2.8105 -0.8355  0.7661
  161SAPE   HN218003   1.322   1.435   6.370 -0.2359 -0.5913 -1.2074
  161SAPE   HN318004   1.462   1.477   6.275  0.1006  2.2674  0.6266
  161SAPE   C1218005   1.467   1.570   6.446  0.6786 -0.0763 -0.2253
  161SAPE  H12A18006   1.449   1.662   6.386  0.1046  1.1444  1.7435
  161SAPE  H12B18007   1.576   1.556   6.456  0.5944 -1.7909 -1.2015
  161SAPE   C1118008   1.384   1.592   6.579  0.7699 -0.6751 -0.6936
  161SAPE  H11A18009   1.445   1.656   6.646  0.8234  0.6799 -1.9796
  161SAPE  H11B18010   1.382   1.499   6.639  1.4009 -0.4581 -0.3231
  161SAPE     P18011   1.128   1.524   6.544 -0.1864 -0.0888  0.2369
  161SAPE   O1318012   1.000   1.593   6.511 -0.1348  0.0774  0.4886
  161SAPE   O1418013   1.171   1.409   6.459  0.8997  0.1021 -0.1052
  161SAPE   O1218014   1.250   1.636   6.552  0.3850  0.6807  0.0215
  161SAPE   O1118015   1.129   1.485   6.701  0.5362  0.1541 -0.1796
  161SAPE    C118016   1.019   1.397   6.757  0.2071 -0.6359  0.4898
  161SAPE    HA18017   0.965   1.448   6.840  0.3692  0.0633  0.1770
  161SAPE    HB18018   0.938   1.383   6.682 -1.2317  3.9042  0.9050
  161SAPE    C218019   1.075   1.260   6.815 -0.0410  0.6714  0.4204
  161SAPE    HS18020   0.988   1.205   6.857  0.0374 -0.9234 -1.3690
  161SAPE   O2118021   1.185   1.296   6.903  0.3698 -0.3253  0.0856
  161SAPE   C2118022   1.150   1.341   7.017  0.0825  0.0935 -0.4025
  161SAPE   O2218023   1.046   1.318   7.076 -0.0639 -0.2799  0.1378
  161SAPE   C2218024   1.266   1.413   7.087  1.2436  0.3344  0.0475
  161SAPE   H2R18025   1.333   1.335   7.128  0.7086 -1.5949 -2.5619
  161SAPE   H2S18026   1.313   1.486   7.018 -1.9307  2.2905 -0.2712
  161SAPE    C318027   1.123   1.175   6.695 -0.0393  0.5207 -0.1712
  161SAPE    HX18028   1.199   1.225   6.631  0.4498  0.8908  0.6752
  161SAPE    HY18029   1.042   1.145   6.626 -0.5207  1.7139 -0.1594
  161SAPE   O3118030   1.187   1.059   6.746  0.3748  0.0687 -0.1042
  161SAPE   C3118031   1.111   0.974   6.817 -0.5122 -0.2519 -0.2179
  161SAPE   O3218032   0.992   0.960   6.807  0.0635 -0.5011 -0.0962
  161SAPE   C3218033   1.206   0.884   6.905 -0.3255 -0.3275  0.2267
  161SAPE   H2X18034   1.304   0.896   6.856 -0.9850  0.7559 -0.8856
  161SAPE   H2Y18035   1.169   0.779   6.903 -0.5207 -0.2511 -0.9791
  161SAPE   C2318036   1.220   1.506   7.202  0.1514  1.0383  0.0169
  161SAPE   H3R18037   1.183   1.446   7.288  0.0616  0.1462 -0.6349
  161SAPE   H3S18038   1.144   1.567   7.149 -1.7263 -2.4192 -1.5318
  161SAPE   C2418039   1.322   1.606   7.253 -0.3103 -0.4982 -0.8052
  161SAPE   H4R18040   1.384   1.647   7.171  0.2713 -1.6277 -0.9489
  161SAPE   H4S18041   1.387   1.552   7.326  0.5662  2.7828  1.0651
  161SAPE   C2518042   1.251   1.720   7.330  0.2433  0.4737  0.6980
  161SAPE   H5R18043   1.212   1.804   7.271 -0.3998 -1.0802 -1.2016
  161SAPE   C2618044   1.239   1.719   7.462  0.0410 -0.3690 -0.4788
  161SAPE   H6R18045   1.186   1.798   7.518  0.9211  0.6359 -1.0521
  161SAPE   C2718046   1.280   1.605   7.560 -0.2317 -0.9150  0.1286
  161SAPE   H7R18047   1.391   1.613   7.563 -0.1350 -0.5353 -2.2321
  161SAPE   H7S18048   1.255   1.508   7.513 -3.0840  0.2417 -0.9884
  161SAPE   C2818049   1.219   1.610   7.697 -0.2833  0.3741 -1.5011
  161SAPE   H8R18050   1.114   1.576   7.697 -0.3002  0.4224 -0.8135
  161SAPE   C2918051   1.272   1.621   7.824 -0.0040  0.3603 -1.1405
  161SAPE   H9R18052   1.213   1.626   7.916  0.4190 -1.3942 -0.7430
  161SAPE  C21018053   1.424   1.637   7.848  0.1744 -0.4247  0.3846
  161SAPE  H10R18054   1.436   1.747   7.854 -0.7803 -0.3712  1.8980
  161SAPE  H10S18055   1.487   1.602   7.764 -1.3636 -1.1535 -0.5067
  161SAPE  C21118056   1.485   1.575   7.975  0.0214  0.4667 -0.0518
  161SAPE  H11R18057   1.547   1.485   7.966 -0.4139  0.1629 -0.0943
  161SAPE  C21218058   1.474   1.623   8.104  0.5733  0.6815  0.0446
  161SAPE  H12R18059   1.530   1.559   8.174 -1.8323 -2.5150 -0.7305
  161SAPE  C21318060   1.402   1.740   8.170  0.0885 -0.2510  0.3075
  161SAPE  H13R18061   1.325   1.686   8.228  1.6617 -0.5325  2.2512
  161SAPE  H13S18062   1.348   1.803   8.096  1.1184 -2.6416 -2.6607
  161SAPE  C21418063   1.494   1.818   8.276 -0.5810 -0.5274  0.4086
  161SAPE  H14R18064   1.538   1.909   8.233  0.3870 -0.8117  0.7632
  161SAPE  C21518065   1.527   1.776   8.402  0.3230 -0.0223 -0.2128
  161SAPE  H15R18066   1.595   1.833   8.467  2.9788 -3.4830  0.3150
  161SAPE  C21618067   1.480   1.653   8.472 -0.2787 -0.3661  0.5321
  161SAPE  H16R18068   1.449   1.578   8.396  0.8786 -0.4814  0.1542
  161SAPE  H16S18069   1.388   1.671   8.531  0.9881  0.4220  2.3699
  161SAPE  C21718070   1.579   1.602   8.578 -0.4236 -0.4912 -0.5070
  161SAPE  H17R18071   1.531   1.530   8.648  0.3909  0.1489  0.7400
  161SAPE  H17S18072   1.600   1.691   8.641 -1.0614  0.0004 -0.9734
  161SAPE  C21818073   1.705   1.530   8.521  0.2706  0.3350  0.0541
  161SAPE  H18R18074   1.757   1.605   8.458  0.2485  0.3053  0.0007
  161SAPE  H18S18075   1.680   1.435   8.468 -0.1917 -0.7827  2.1768
  161SAPE  C21918076   1.803   1.498   8.638  0.6338  0.9202  0.1336
  161SAPE  H19R18077   1.888   1.454   8.581 -0.9645 -1.3343 -0.6895
  161SAPE  H19S18078   1.767   1.412   8.698  3.7788 -2.2383 -2.0411
  161SAPE  C22018079   1.858   1.615   8.721  0.7625  0.2629 -0.3306
  161SAPE  H20R18080   1.918   1.567   8.802 -2.7116 -1.1027  1.6854
  161SAPE  H20S18081   1.775   1.667   8.772  0.9375 -0.0175  0.2604
  161SAPE  H20T18082   1.916   1.690   8.663 -0.4646  1.0875 -0.5193
  161SAPE   C3318083   1.211   0.937   7.058 -0.5322 -0.2749 -0.0207
  161SAPE   H3X18084   1.221   1.048   7.051 -0.7404 -0.2235  0.5278
  161SAPE   H3Y18085   1.308   0.916   7.109  0.2725 -1.3523 -1.8955
  161SAPE   C3418086   1.088   0.897   7.133 -0.5338 -0.0743 -0.2844
  161SAPE   H4X18087   1.119   0.802   7.181 -1.7377 -0.0145  0.6763
  161SAPE   H4Y18088   0.997   0.876   7.074 -0.2724 -0.3984 -0.5735
  161SAPE   C3518089   1.043   0.993   7.239 -0.1901 -0.1176 -0.4822
  161SAPE   H5X18090   0.968   0.931   7.293  0.4055  1.0425  1.8276
  161SAPE   H5Y18091   0.992   1.082   7.196  0.5588  0.2987 -0.5195
  161SAPE   C3618092   1.146   1.040   7.338 -0.9532 -0.2390 -0.2771
  161SAPE   H6X18093   1.226   1.098   7.287 -1.6037 -2.5542 -4.4123
  161SAPE   H6Y18094   1.198   0.946   7.369  1.2493  0.7723 -0.6619
  161SAPE   C3718095   1.083   1.107   7.461 -0.0213 -0.2849  0.2847
  161SAPE   H7X18096   1.003   1.033   7.480  1.5050 -2.5165 -1.4458
  161SAPE   H7Y18097   1.034   1.195   7.415  0.1022 -0.3237  0.0779
  161SAPE   C3818098   1.181   1.116   7.575 -0.3369 -0.5326 -0.0178
  161SAPE   H8X18099   1.274   1.167   7.542 -1.5176  0.7610 -1.5092
  161SAPE   H8Y18100   1.217   1.015   7.603  0.7641 -0.8044 -2.1977
  161SAPE   C3918101   1.129   1.199   7.696 -1.0844  0.3766 -0.1270
  161SAPE   H9X18102   1.037   1.154   7.739 -0.3736 -1.3175 -0.2893
  161SAPE   H9Y18103   1.103   1.290   7.639  0.2770 -1.5156 -4.1451
  161SAPE  C31018104   1.238   1.215   7.805  0.0903  0.8977 -0.3542
  161SAPE  H10X18105   1.324   1.262   7.753 -0.6213  0.7038 -1.7574
  161SAPE  H10Y18106   1.264   1.114   7.842  0.4446  0.7849 -0.9038
  161SAPE  C31118107   1.192   1.304   7.921 -0.2755 -0.2209  0.1909
  161SAPE  H11X18108   1.128   1.387   7.882 -0.4913  0.6405  2.2335
  161SAPE  H11Y18109   1.288   1.341   7.963  0.8106 -2.0120 -0.6113
  161SAPE  C31218110   1.117   1.233   8.029  0.6836 -0.3492 -0.0348
  161SAPE  H12X18111   1.175   1.145   8.065 -1.6928 -1.8427  0.3806
  161SAPE  H12Y18112   1.027   1.185   7.986  1.3606  0.0395 -1.9947
  161SAPE  C31318113   1.084   1.323   8.153  0.1675 -0.0098  0.1871
  161SAPE  H13X18114   1.034   1.416   8.119  0.8740  0.7281  1.1417
  161SAPE  H13Y18115   1.184   1.347   8.192  0.3516 -0.6289  0.1112
  161SAPE  C31418116   0.999   1.264   8.272  0.2450 -0.1036  0.0735
  161SAPE  H14X18117   1.034   1.165   8.307 -1.8251 -1.0348 -0.3419
  161SAPE  H14Y18118   0.891   1.251   8.252  0.3879 -1.4063  0.0385
  161SAPE  C31518119   1.009   1.358   8.395 -0.2170  0.0243 -0.4120
  161SAPE  H15X18120   0.917   1.337   8.454 -0.7998 -0.1468 -1.3598
  161SAPE  H15Y18121   0.993   1.465   8.370 -0.7952 -0.1462 -0.7822
  161SAPE  C31618122   1.134   1.356   8.475 -0.5149  0.8971  0.5965
  161SAPE  H16X18123   1.224   1.362   8.409 -1.1480  0.6165 -0.3164
  161SAPE  H16Y18124   1.141   1.260   8.531 -1.2463  0.3952 -0.1511
  161SAPE  C31718125   1.158   1.464   8.580 -0.1334  0.2067 -0.2369
  161SAPE  H17X18126   1.178   1.558   8.525  0.4748  1.4298  1.9622
  161SAPE  H17Y18127   1.250   1.432   8.633 -0.7918  0.0565  0.8414
  161SAPE  C31818128   1.045   1.482   8.678  0.3195  0.3515 -0.3760
  161SAPE  H18X18129   1.070   1.575   8.736 -1.8425 -0.1691  1.5223
  161SAPE  H18Y18130   1.051   1.398   8.750 -0.4803  0.4585 -0.1807
  161SAPE  H18Z18131   0.939   1.470   8.649 -0.0906 -2.2037  1.7734
  162SAPE     N18132   0.904   5.038   6.157 -0.4959  0.4447 -0.3758
  162SAPE   HN118133   0.888   4.968   6.233 -1.9484  1.3755  0.2366
  162SAPE   HN218134   0.816   5.048   6.102 -0.9055 -2.5420 -0.4095
  162SAPE   HN318135   0.983   5.000   6.102 -0.0017 -2.7062  2.1763
  162SAPE   C1218136   0.930   5.168   6.231  0.4285 -0.0599  0.1768
  162SAPE  H12A18137   0.943   5.247   6.154 -0.7935  0.4474  0.4538
  162SAPE  H12B18138   1.021   5.162   6.294 -0.4241 -1.0109  1.3637
  162SAPE   C1118139   0.814   5.204   6.328  0.1543  0.5094 -0.3948
  162SAPE  H11A18140   0.857   5.295   6.376  1.4878 -0.5930  0.5948
  162SAPE  H11B18141   0.801   5.130   6.410  0.7486  1.2184  0.3503
  162SAPE     P18142   0.664   5.374   6.197  0.2499  0.1472  0.0934
  162SAPE   O1318143   0.796   5.441   6.174 -0.9222 -0.3643 -0.1327
  162SAPE   O1418144   0.574   5.342   6.083 -0.0854 -0.0131  0.5994
  162SAPE   O1218145   0.693   5.230   6.262  0.0878 -0.1988  0.1199
  162SAPE   O1118146   0.579   5.454   6.299 -0.0742 -0.1576  0.0283
  162SAPE    C118147   0.469   5.379   6.355  0.3906 -0.3155 -0.3478
  162SAPE    HA18148   0.377   5.417   6.306  1.6993  0.8621 -1.9956
  162SAPE    HB18149   0.468   5.270   6.334 -0.8511 -0.5310  0.6804
  162SAPE    C218150   0.447   5.400   6.513 -0.5101  0.6442 -0.4859
  162SAPE    HS18151   0.355   5.341   6.530  0.5095 -0.6542  0.7859
  162SAPE   O2118152   0.433   5.534   6.552 -0.0738 -0.4384  0.1678
  162SAPE   C2118153   0.325   5.556   6.626  0.0915 -0.5296 -0.0308
  162SAPE   O2218154   0.231   5.482   6.651 -0.3686 -0.1549  1.0364
  162SAPE   C2218155   0.332   5.700   6.669  0.2844  0.0003  0.3293
  162SAPE   H2R18156   0.428   5.742   6.631  0.6470 -1.2479 -0.2060
  162SAPE   H2S18157   0.255   5.749   6.606  1.1619  1.0901  0.0783
  162SAPE    C318158   0.551   5.338   6.608  0.1053 -0.1509 -0.0072
  162SAPE    HX18159   0.648   5.392   6.605  0.7179 -1.2547 -2.0029
  162SAPE    HY18160   0.572   5.239   6.562  0.6958  0.4228 -1.0207
  162SAPE   O3118161   0.506   5.317   6.750  0.1228  0.0119  0.6791
  162SAPE   C3118162   0.609   5.269   6.827  0.8339  0.4588 -0.6291
  162SAPE   O3218163   0.721   5.260   6.791 -0.4605  0.0101 -0.3947
  162SAPE   C3218164   0.542   5.232   6.960  1.1033  0.1674  0.6012
  162SAPE   H2X18165   0.465   5.153   6.944  0.5914  0.4553  1.5371
  162SAPE   H2Y18166   0.484   5.317   7.002  2.5032  0.6881  1.5390
  162SAPE   C2318167   0.321   5.720   6.819  0.2163  0.1588 -0.1009
  162SAPE   H3R18168   0.216   5.694   6.844  0.1157  1.8860  1.5204
  162SAPE   H3S18169   0.339   5.829   6.833  1.2560  0.5182 -3.3454
  162SAPE   C2418170   0.418   5.638   6.903 -0.5311 -0.3814  0.2106
  162SAPE   H4R18171   0.396   5.530   6.890 -0.0347 -0.2766 -1.7477
  162SAPE   H4S18172   0.403   5.666   7.010 -1.4951 -0.8313  0.2035
  162SAPE   C2518173   0.558   5.671   6.862 -0.8797 -0.0287 -0.3221
  162SAPE   H5R18174   0.593   5.615   6.774 -3.3444  1.1931 -2.2023
  162SAPE   C2618175   0.646   5.749   6.922  0.5406 -0.0655  0.6721
  162SAPE   H6R18176   0.746   5.744   6.878  0.5196 -0.5114  0.6770
  162SAPE   C2718177   0.617   5.813   7.056  0.3698 -0.1313  0.5539
  162SAPE   H7R18178   0.518   5.783   7.095  0.2704  0.2164  0.5747
  162SAPE   H7S18179   0.605   5.923   7.043  2.0707  0.0168  0.0196
  162SAPE   C2818180   0.733   5.775   7.152  0.2369 -0.1299 -0.5428
  162SAPE   H8R18181   0.835   5.768   7.112 -0.4729  0.2850 -2.5380
  162SAPE   C2918182   0.719   5.768   7.290 -0.5385 -0.1698 -0.2493
  162SAPE   H9R18183   0.809   5.744   7.349 -1.5691  2.6770  2.7616
  162SAPE  C21018184   0.605   5.794   7.388  0.0927  0.3909 -0.5722
  162SAPE  H10R18185   0.572   5.899   7.373  0.0284  0.5792  0.7224
  162SAPE  H10S18186   0.653   5.792   7.489 -0.7933 -0.9459 -0.1525
  162SAPE  C21118187   0.498   5.693   7.374 -0.2617  0.0476  0.5001
  162SAPE  H11R18188   0.475   5.663   7.271  0.1953  0.5355  0.2515
  162SAPE  C21218189   0.446   5.624   7.480  0.2358  0.1447 -0.6132
  162SAPE  H12R18190   0.363   5.554   7.461 -0.0452  0.5654 -0.9298
  162SAPE  C21318191   0.472   5.625   7.634  0.0756  0.0952  0.1695
  162SAPE  H13R18192   0.417   5.708   7.684  0.3485  1.0017 -0.9647
  162SAPE  H13S18193   0.579   5.648   7.655  0.6499 -3.2015  1.4888
  162SAPE  C21418194   0.445   5.498   7.717  0.9612  1.1626  0.4399
  162SAPE  H14R18195   0.483   5.408   7.667 -0.9450 -0.7103  2.1669
  162SAPE  C21518196   0.380   5.496   7.832 -0.4419  0.1662 -0.1884
  162SAPE  H15R18197   0.370   5.406   7.895 -0.6298  1.4706  1.7702
  162SAPE  C21618198   0.327   5.617   7.898  0.0758 -0.1679  0.1801
  162SAPE  H16R18199   0.248   5.578   7.966 -0.9731  0.2478 -0.7715
  162SAPE  H16S18200   0.272   5.689   7.834 -1.9719 -1.5508  0.2745
  162SAPE  C21718201   0.425   5.702   7.985 -0.2159  0.2673  0.2197
  162SAPE  H17R18202   0.502   5.731   7.911 -0.8163  1.1347 -0.0836
  162SAPE  H17S18203   0.481   5.640   8.059 -1.7154 -0.6417  0.6354
  162SAPE  C21818204   0.359   5.827   8.043 -0.3096 -0.2723 -0.2953
  162SAPE  H18R18205   0.305   5.877   7.961  2.0265 -0.0372 -1.8060
  162SAPE  H18S18206   0.444   5.894   8.068  0.0363 -0.2032 -1.5899
  162SAPE  C21918207   0.268   5.811   8.164 -0.1091  0.4276  0.0997
  162SAPE  H19R18208   0.180   5.745   8.149  0.4116 -0.3175  0.2852
  162SAPE  H19S18209   0.224   5.912   8.180 -0.3435  0.5669 -1.2842
  162SAPE  C22018210   0.329   5.739   8.284  0.6284  0.2425  0.2926
  162SAPE  H20R18211   0.374   5.643   8.248  2.0364  0.8376  0.3772
  162SAPE  H20S18212   0.257   5.733   8.368 -0.9414 -0.7060 -1.0487
  162SAPE  H20T18213   0.424   5.789   8.311  0.7999  0.2882 -0.3765
  162SAPE   C3318214   0.634   5.192   7.076 -0.1225  0.0100  0.4824
  162SAPE   H3X18215   0.709   5.273   7.083 -0.4971  0.2534  2.2108
  162SAPE   H3Y18216   0.689   5.098   7.053 -0.3161 -0.1074  0.4967
  162SAPE   C3418217   0.565   5.170   7.210  0.0083 -0.1547  0.2346
  162SAPE   H4X18218   0.485   5.247   7.215  0.5178  0.2976  2.9637
  162SAPE   H4Y18219   0.646   5.177   7.286  0.2815  2.0941 -0.2000
  162SAPE   C3518220   0.487   5.041   7.214  0.2091 -0.0715  0.0133
  162SAPE   H5X18221   0.561   4.958   7.210  0.3582  0.0568  0.0905
  162SAPE   H5Y18222   0.419   5.046   7.126 -0.5194  0.1059  0.5761
  162SAPE   C3618223   0.404   5.037   7.346 -0.0737 -0.5087 -0.9349
  162SAPE   H6X18224   0.328   4.956   7.342 -0.8839  0.1959 -0.1512
  162SAPE   H6Y18225   0.341   5.128   7.359 -1.3145 -1.7290  3.1214
  162SAPE   C3718226   0.479   5.029   7.482 -0.4528  0.1731 -0.9861
  162SAPE   H7X18227   0.559   5.103   7.504  1.6575 -1.9223 -1.1336
  162SAPE   H7Y18228   0.536   4.935   7.468  0.6922  0.8091 -0.7256
  162SAPE   C3818229   0.376   5.012   7.595 -0.1328  0.3523  0.0075
  162SAPE   H8X18230   0.322   4.915   7.587  0.3630  0.0777 -0.0463
  162SAPE   H8Y18231   0.302   5.094   7.581 -1.6884 -0.4836  2.6337
  162SAPE   C3918232   0.450   5.021   7.728  0.4904  0.0851  0.5087
  162SAPE   H9X18233   0.501   5.119   7.740  0.6669 -0.0816  1.1444
  162SAPE   H9Y18234   0.524   4.938   7.732 -0.4550 -0.7269  1.8048
  162SAPE  C31018235   0.357   5.013   7.845  0.4631  0.1726  0.9496
  162SAPE  H10X18236   0.336   4.905   7.855  0.9407 -0.0368 -0.1450
  162SAPE  H10Y18237   0.265   5.058   7.803  0.4396 -1.6869 -1.1993
  162SAPE  C31118238   0.413   5.070   7.977 -0.6860  0.0285 -0.0214
  162SAPE  H11X18239   0.439   5.177   7.962 -1.4674  0.1705 -0.4068
  162SAPE  H11Y18240   0.509   5.019   8.001  0.6419  2.1859 -0.4614
  162SAPE  C31218241   0.336   5.064   8.105  0.1249  0.3655 -0.5099
  162SAPE  H12X18242   0.348   5.158   8.162 -0.4840 -0.1345  0.4540
  162SAPE  H12Y18243   0.375   4.986   8.174 -0.9697 -0.3975 -0.7176
  162SAPE  C31318244   0.180   5.041   8.105  0.1736 -0.0007  0.1044
  162SAPE  H13X18245   0.157   5.037   8.213  2.2103 -2.4565  0.5215
  162SAPE  H13Y18246   0.154   4.947   8.053  1.4022 -0.2007 -0.1764
  162SAPE  C31418247   0.100   5.162   8.035 -0.5673 -0.7166  0.1035
  162SAPE  H14X18248   0.138   5.175   7.931  1.5545 -0.1755  0.9054
  162SAPE  H14Y18249   0.090   5.254   8.096 -2.7959 -0.1444 -1.0040
  162SAPE  C31518250  -0.043   5.111   8.029  0.2552  0.2438  0.9256
  162SAPE  H15X18251  -0.063   5.038   8.110  1.1080 -0.9321  0.1229
  162SAPE  H15Y18252  -0.062   5.060   7.932 -2.4728  1.0828  0.9480
  162SAPE  C31618253  -0.150   5.223   8.034 -0.2243  0.3315  0.3261
  162SAPE  H16X18254  -0.174   5.252   7.930  0.4584 -2.8099 -0.8205
  162SAPE  H16Y18255  -0.107   5.307   8.092 -2.8252  2.7545 -1.0103
  162SAPE  C31718256  -0.283   5.188   8.101 -0.3372  0.3679 -0.6277
  162SAPE  H17X18257  -0.351   5.276   8.101 -1.2550 -0.3326 -0.0646
  162SAPE  H17Y18258  -0.247   5.170   8.204 -0.7753  1.3541 -0.2920
  162SAPE  C31818259  -0.371   5.071   8.051  0.4209  0.5651  0.3428
  162SAPE  H18X18260  -0.333   4.971   8.081 -1.4957 -0.6608 -1.0500
  162SAPE  H18Y18261  -0.378   5.080   7.940  0.9856  0.1993  0.2754
  162SAPE  H18Z18262  -0.474   5.076   8.093 -0.3632  2.0395 -1.5563
  163SAPE     N18263   6.147   3.011   6.666  0.3851 -0.1000 -0.1145
  163SAPE   HN118264   6.100   2.920   6.677 -1.0161  0.4143 -1.5207
  163SAPE   HN218265   6.240   2.991   6.624 -0.5034 -1.8937 -1.3074
  163SAPE   HN318266   6.150   3.064   6.756 -1.4117  0.4549 -0.3534
  163SAPE   C1218267   6.077   3.085   6.562 -0.3339 -0.1393 -0.1237
  163SAPE  H12A18268   6.069   3.018   6.474 -0.1818 -0.0754 -0.1876
  163SAPE  H12B18269   6.144   3.166   6.525  1.2526 -1.8395 -1.1816
  163SAPE   C1118270   5.936   3.140   6.606 -0.9134 -0.4863  0.3410
  163SAPE  H11A18271   5.876   3.053   6.641 -0.4839 -0.7134  0.5109
  163SAPE  H11B18272   5.888   3.192   6.520  0.2819  1.9984  1.1034
  163SAPE     P18273   5.984   3.379   6.702  0.6315  0.5089  0.2147
  163SAPE   O1318274   6.131   3.389   6.692 -0.0044  0.4585  0.0100
  163SAPE   O1418275   5.898   3.445   6.598 -0.1280  0.1541 -0.3090
  163SAPE   O1218276   5.944   3.236   6.713  0.3556 -0.2535 -0.2983
  163SAPE   O1118277   5.935   3.436   6.838 -0.6412 -0.3435  0.5694
  163SAPE    C118278   5.972   3.384   6.963  0.1901 -0.7166  0.8247
  163SAPE    HA18279   5.895   3.427   7.030 -0.0641 -0.1793  0.2029
  163SAPE    HB18280   5.975   3.273   6.959  1.8353 -0.6745 -1.1268
  163SAPE    C218281   6.108   3.435   7.012 -1.0219 -0.5277 -0.2064
  163SAPE    HS18282   6.189   3.380   6.961 -1.0517 -1.1292  0.3789
  163SAPE   O2118283   6.121   3.427   7.155 -0.1615 -0.3849  0.2320
  163SAPE   C2118284   6.117   3.305   7.210  0.1945 -0.4574  0.7518
  163SAPE   O2218285   6.123   3.197   7.153  0.1305 -0.1446 -0.5947
  163SAPE   C2218286   6.115   3.332   7.354  0.0759  0.2219  0.6927
  163SAPE   H2R18287   6.035   3.407   7.372  0.5826  0.3656  2.5080
  163SAPE   H2S18288   6.089   3.240   7.411  0.5077  0.8143  1.8888
  163SAPE    C318289   6.131   3.586   6.964  0.2625 -0.3231  0.2268
  163SAPE    HX18290   6.040   3.641   6.997 -0.4879 -1.1518 -0.4245
  163SAPE    HY18291   6.128   3.588   6.853 -1.0624 -0.5401  0.2420
  163SAPE   O3118292   6.243   3.663   7.016  0.4218 -0.3761 -0.3585
  163SAPE   C3118293   6.356   3.650   6.938  1.1195 -0.2803  0.6615
  163SAPE   O3218294   6.359   3.593   6.829 -0.2602 -0.0033 -0.3790
  163SAPE   C3218295   6.477   3.702   7.017 -0.5713  0.0601  0.1122
  163SAPE   H2X18296   6.464   3.812   7.027 -0.6999  0.1151 -0.6169
  163SAPE   H2Y18297   6.566   3.687   6.952 -0.1449 -0.4165  0.7944
  163SAPE   C2318298   6.241   3.388   7.421 -0.6472  0.4914 -0.7541
  163SAPE   H3R18299   6.274   3.482   7.372  2.4389  0.4997  1.0745
  163SAPE   H3S18300   6.324   3.316   7.405 -0.5223  0.4036  0.1962
  163SAPE   C2418301   6.237   3.406   7.572 -0.2774 -0.5701  0.0395
  163SAPE   H4R18302   6.138   3.452   7.595 -1.4236 -2.4713 -0.8155
  163SAPE   H4S18303   6.326   3.468   7.599  0.3813 -0.7402 -1.6657
  163SAPE   C2518304   6.250   3.272   7.649  0.1365  0.2146  0.0114
  163SAPE   H5R18305   6.319   3.199   7.605 -0.7156 -2.1300  2.3159
  163SAPE   C2618306   6.175   3.239   7.757  0.0660  0.4224  0.6707
  163SAPE   H6R18307   6.189   3.140   7.804 -2.6888 -1.3862 -1.9248
  163SAPE   C2718308   6.058   3.320   7.810  0.1286  1.4948  1.1220
  163SAPE   H7R18309   6.080   3.429   7.812  1.8010  1.2510 -0.8516
  163SAPE   H7S18310   6.047   3.286   7.915  1.7256 -0.2995  0.7681
  163SAPE   C2818311   5.926   3.293   7.737  0.0397  0.3853  0.3273
  163SAPE   H8R18312   5.928   3.256   7.633  0.4972  1.2088  0.0265
  163SAPE   C2918313   5.813   3.324   7.795  0.4926 -0.6080  0.2344
  163SAPE   H9R18314   5.717   3.294   7.751  2.1954 -2.9063 -2.2170
  163SAPE  C21018315   5.812   3.396   7.926  0.6959  0.1427 -0.4526
  163SAPE  H10R18316   5.887   3.476   7.939  0.9098 -0.0432 -0.5471
  163SAPE  H10S18317   5.846   3.319   7.999  2.4765 -1.5972 -2.9626
  163SAPE  C21118318   5.670   3.440   7.952  0.8529 -0.4223  0.1851
  163SAPE  H11R18319   5.588   3.373   7.922  0.7269  0.5821 -1.8587
  163SAPE  C21218320   5.641   3.554   8.009 -0.8183  0.6609  0.7292
  163SAPE  H12R18321   5.536   3.588   8.003 -0.0820  2.8869 -1.0249
  163SAPE  C21318322   5.736   3.665   8.051  0.2267 -0.5529 -0.8091
  163SAPE  H13R18323   5.684   3.762   8.063 -0.6791 -1.2357  1.2673
  163SAPE  H13S18324   5.809   3.697   7.973 -0.4160 -0.7408 -1.4970
  163SAPE  C21418325   5.808   3.631   8.177  0.2577 -0.4091 -0.6345
  163SAPE  H14R18326   5.842   3.527   8.189 -0.9562 -0.9887 -1.9388
  163SAPE  C21518327   5.834   3.718   8.274 -0.0536  0.4409 -0.3544
  163SAPE  H15R18328   5.902   3.683   8.352  0.2440  0.0228 -0.7934
  163SAPE  C21618329   5.810   3.867   8.288 -0.3180  0.6134  0.8113
  163SAPE  H16R18330   5.737   3.899   8.366  0.1322 -0.5214  1.7241
  163SAPE  H16S18331   5.793   3.913   8.188  0.6062  0.8236  0.7451
  163SAPE  C21718332   5.942   3.937   8.344 -0.0266 -0.1770  0.1288
  163SAPE  H17R18333   6.035   3.924   8.284  1.4632  0.8347  2.1132
  163SAPE  H17S18334   5.972   3.887   8.438  1.8923  0.0432 -0.3379
  163SAPE  C21818335   5.927   4.086   8.365 -0.4135  0.0903  0.1362
  163SAPE  H18R18336   5.825   4.114   8.397  0.3619  0.7827  2.1891
  163SAPE  H18S18337   5.947   4.136   8.268  0.1256  0.7450  0.5685
  163SAPE  C21918338   6.024   4.143   8.470 -0.3717 -0.1369  0.2131
  163SAPE  H19R18339   6.025   4.083   8.563 -0.3871 -0.4957 -0.0163
  163SAPE  H19S18340   5.987   4.245   8.492 -0.8422 -0.3175  0.2698
  163SAPE  C22018341   6.176   4.138   8.438  0.3981 -0.1552  0.6534
  163SAPE  H20R18342   6.207   4.031   8.431 -0.5642 -0.3304 -1.8455
  163SAPE  H20S18343   6.235   4.191   8.516  2.1630 -0.1217 -0.6307
  163SAPE  H20T18344   6.197   4.198   8.347 -1.0809  1.2512  1.2007
  163SAPE   C3318345   6.523   3.640   7.154 -0.2423 -0.1610  0.1553
  163SAPE   H3X18346   6.425   3.644   7.206  0.3339 -0.1495  1.2511
  163SAPE   H3Y18347   6.592   3.714   7.200 -3.6947  2.0629  2.2069
  163SAPE   C3418348   6.588   3.501   7.150  0.1203  0.3902  0.2608
  163SAPE   H4X18349   6.673   3.495   7.079 -1.0749  2.6328 -1.5034
  163SAPE   H4Y18350   6.510   3.425   7.124 -0.0444 -0.2360  2.3707
  163SAPE   C3518351   6.644   3.456   7.289 -0.1202 -0.0816 -0.6261
  163SAPE   H5X18352   6.560   3.460   7.362  0.2666  3.0780 -0.2299
  163SAPE   H5Y18353   6.725   3.517   7.335 -0.0273 -1.2152  0.8236
  163SAPE   C3618354   6.699   3.310   7.282 -0.3814 -0.0356  0.9090
  163SAPE   H6X18355   6.804   3.302   7.248 -0.7218  1.6652 -0.7371
  163SAPE   H6Y18356   6.641   3.252   7.208  0.2032  1.7587 -1.0486
  163SAPE   C3718357   6.688   3.238   7.420  0.2713 -0.1608 -0.4897
  163SAPE   H7X18358   6.584   3.224   7.454  0.3455  2.7268  1.2845
  163SAPE   H7Y18359   6.737   3.317   7.481  0.7989 -2.2084  1.8600
  163SAPE   C3818360   6.759   3.102   7.431  0.8829  0.2534  0.4176
  163SAPE   H8X18361   6.863   3.113   7.393  1.2380  0.4172  1.4141
  163SAPE   H8Y18362   6.695   3.037   7.367 -0.9197  2.0302  0.2925
  163SAPE   C3918363   6.767   3.037   7.573 -0.5283 -0.3690  0.4252
  163SAPE   H9X18364   6.835   2.950   7.567 -0.4358 -0.4735  2.4847
  163SAPE   H9Y18365   6.666   3.000   7.600  0.3432 -2.5822  0.8086
  163SAPE  C31018366   6.829   3.145   7.681  0.4851 -0.7288  1.0928
  163SAPE  H10X18367   6.766   3.237   7.674  0.0557 -1.0514  0.6292
  163SAPE  H10Y18368   6.934   3.161   7.649  1.0217 -1.4757  2.4025
  163SAPE  C31118369   6.817   3.090   7.821 -0.0981  0.7225 -0.0655
  163SAPE  H11X18370   6.887   3.005   7.839 -2.0437 -0.9789 -0.2157
  163SAPE  H11Y18371   6.713   3.051   7.828  0.2459 -0.0419  1.1461
  163SAPE  C31218372   6.835   3.184   7.934  0.8519 -0.0683  0.2301
  163SAPE  H12X18373   6.762   3.268   7.927 -1.1487 -1.2853  3.6359
  163SAPE  H12Y18374   6.938   3.223   7.929  0.6123  0.6195  0.4577
  163SAPE  C31318375   6.814   3.109   8.070  0.5593  0.9926 -0.0894
  163SAPE  H13X18376   6.711   3.066   8.070  0.8123  0.2979 -1.6912
  163SAPE  H13Y18377   6.816   3.174   8.159  1.5937 -0.5280  1.0493
  163SAPE  C31418378   6.910   2.986   8.090 -0.2247 -0.1642 -0.1434
  163SAPE  H14X18379   7.013   3.023   8.069 -0.3899  0.7688  0.6360
  163SAPE  H14Y18380   6.879   2.913   8.013  0.2130  0.2155 -0.6885
  163SAPE  C31518381   6.905   2.923   8.231 -0.2157  0.2935  0.4691
  163SAPE  H15X18382   6.908   3.013   8.296  1.6730  0.8475 -0.3126
  163SAPE  H15Y18383   6.999   2.865   8.242 -0.1441  0.0169 -1.2581
  163SAPE  C31618384   6.783   2.844   8.278 -0.0911 -0.2626  0.0864
  163SAPE  H16X18385   6.769   2.746   8.226 -1.4728 -0.0118 -0.0571
  163SAPE  H16Y18386   6.697   2.912   8.260 -0.4298 -1.2858 -2.6385
  163SAPE  C31718387   6.794   2.816   8.427 -0.9502  0.5347 -0.1605
  163SAPE  H17X18388   6.805   2.913   8.481  2.1635 -1.1814  2.6889
  163SAPE  H17Y18389   6.887   2.759   8.446 -1.3459 -0.1597 -0.2576
  163SAPE  C31818390   6.673   2.745   8.483 -0.4730 -0.3234 -0.6744
  163SAPE  H18X18391   6.673   2.742   8.594  1.9893 -0.7238 -0.6355
  163SAPE  H18Y18392   6.656   2.643   8.443 -0.1149  0.2048 -2.2096
  163SAPE  H18Z18393   6.590   2.809   8.447 -0.5960 -0.5559 -0.8104
  164SAPE     N18394   6.392   0.967   5.963  0.5049 -0.1742 -0.1686
  164SAPE   HN118395   6.394   1.041   5.890 -0.4080 -0.9982 -1.0476
  164SAPE   HN218396   6.452   0.886   5.938 -1.3828 -1.3786 -1.0165
  164SAPE   HN318397   6.291   0.946   5.951  0.7447 -0.5037 -1.8246
  164SAPE   C1218398   6.434   1.013   6.105 -0.3126 -0.9428 -0.5110
  164SAPE  H12A18399   6.535   1.058   6.089 -1.5586  1.9003 -0.9951
  164SAPE  H12B18400   6.420   0.925   6.171  0.3631 -2.6735 -2.5808
  164SAPE   C1118401   6.333   1.121   6.140 -0.3109 -0.0553  0.0239
  164SAPE  H11A18402   6.354   1.214   6.083  1.8347 -0.6586 -0.2764
  164SAPE  H11B18403   6.346   1.146   6.248  1.1041  1.3405 -0.4389
  164SAPE     P18404   6.081   1.171   6.133  0.2894  0.0288 -0.0366
  164SAPE   O1318405   6.085   1.266   6.022  0.2860  0.1401  0.7206
  164SAPE   O1418406   5.956   1.102   6.161  0.0929  0.4146  0.1368
  164SAPE   O1218407   6.199   1.069   6.118 -0.3038 -0.2476  0.3471
  164SAPE   O1118408   6.118   1.244   6.265  0.4483 -0.5243 -0.3156
  164SAPE    C118409   6.053   1.223   6.394  0.8268 -0.3587  0.2043
  164SAPE    HA18410   6.054   1.317   6.454  3.8719  0.6333 -1.2257
  164SAPE    HB18411   5.951   1.179   6.385  0.9679 -0.3679 -1.8320
  164SAPE    C218412   6.142   1.135   6.488  0.0388  0.0544 -0.4019
  164SAPE    HS18413   6.240   1.188   6.486  1.0997 -1.8168 -0.3985
  164SAPE   O2118414   6.148   0.998   6.430 -0.1968 -0.2285  0.2454
  164SAPE   C2118415   6.263   0.935   6.439 -0.4243  0.1896 -0.5783
  164SAPE   O2218416   6.364   0.990   6.480 -0.2217 -0.2740 -0.2353
  164SAPE   C2218417   6.244   0.791   6.395  0.6227  0.2262  0.0030
  164SAPE   H2R18418   6.141   0.760   6.424  0.8936  0.6152  1.4802
  164SAPE   H2S18419   6.253   0.792   6.284 -1.4289 -0.1321 -0.2031
  164SAPE    C318420   6.072   1.139   6.632 -0.1381  0.0683 -0.1345
  164SAPE    HX18421   5.977   1.081   6.627 -0.8259  1.1246  0.3312
  164SAPE    HY18422   6.046   1.244   6.657 -0.3823 -0.3928  1.7252
  164SAPE   O3118423   6.167   1.079   6.728  0.8022 -0.1379  0.5429
  164SAPE   C3118424   6.260   1.157   6.782 -0.4541 -0.1616 -0.3564
  164SAPE   O3218425   6.277   1.278   6.772  0.2175  0.4358 -0.1317
  164SAPE   C3218426   6.361   1.066   6.855  0.2163  0.6450 -0.4215
  164SAPE   H2X18427   6.387   0.989   6.780  2.0170  0.2818  0.5046
  164SAPE   H2Y18428   6.311   1.013   6.939  1.2573  0.7042  0.2545
  164SAPE   C2318429   6.362   0.702   6.460 -0.2509 -0.1256  0.4381
  164SAPE   H3R18430   6.456   0.760   6.480  0.8453 -2.1043  1.2890
  164SAPE   H3S18431   6.385   0.640   6.371 -0.1756 -1.3532  1.2811
  164SAPE   C2418432   6.327   0.609   6.587  0.0505  0.4124  0.2689
  164SAPE   H4R18433   6.272   0.676   6.656  0.9344 -1.1238  2.5675
  164SAPE   H4S18434   6.418   0.591   6.649 -0.5362 -1.2163  0.6998
  164SAPE   C2518435   6.240   0.484   6.556 -0.2324 -0.0691  0.3096
  164SAPE   H5R18436   6.158   0.511   6.490  0.5057  0.3681 -0.4455
  164SAPE   C2618437   6.261   0.358   6.603  0.7088 -0.0231 -0.2669
  164SAPE   H6R18438   6.197   0.277   6.564  1.2059 -0.6970  0.2864
  164SAPE   C2718439   6.375   0.322   6.699  0.3073 -0.4606  0.2025
  164SAPE   H7R18440   6.333   0.301   6.800  1.2755 -2.6795  0.2101
  164SAPE   H7S18441   6.454   0.398   6.709 -0.5307  0.5341 -0.5164
  164SAPE   C2818442   6.440   0.188   6.664  0.2395  0.2196 -0.1350
  164SAPE   H8R18443   6.383   0.127   6.593  0.8084  0.9008 -1.2048
  164SAPE   C2918444   6.553   0.138   6.721  0.3996  0.3485 -0.1008
  164SAPE   H9R18445   6.592   0.037   6.699  0.1386  0.2198  0.0228
  164SAPE  C21018446   6.632   0.222   6.821  0.3327  0.0376 -0.2358
  164SAPE  H10R18447   6.580   0.316   6.850 -1.6926 -1.4029  1.0576
  164SAPE  H10S18448   6.729   0.251   6.776 -0.0339  1.5140 -0.1148
  164SAPE  C21118449   6.664   0.140   6.948  0.2217  0.7104 -0.3963
  164SAPE  H11R18450   6.696   0.039   6.917  1.2815  0.1171  2.3165
  164SAPE  C21218451   6.661   0.176   7.079 -0.6072 -0.2528 -0.0815
  164SAPE  H12R18452   6.704   0.122   7.164 -0.0898  0.1498 -0.0847
  164SAPE  C21318453   6.606   0.315   7.114 -0.0818 -0.0848 -0.1487
  164SAPE  H13R18454   6.505   0.334   7.072  0.7070  0.0855 -2.0897
  164SAPE  H13S18455   6.668   0.391   7.061  0.2279  0.2264  0.6467
  164SAPE  C21418456   6.607   0.339   7.263  0.0836  0.0307 -0.6030
  164SAPE  H14R18457   6.670   0.272   7.324  0.3271  0.9099  0.1236
  164SAPE  C21518458   6.541   0.435   7.329  0.0747 -0.1875 -0.0685
  164SAPE  H15R18459   6.557   0.449   7.437 -0.4750 -1.0816  0.1395
  164SAPE  C21618460   6.452   0.546   7.264 -0.8050  0.8616 -0.4301
  164SAPE  H16R18461   6.493   0.579   7.166 -0.0513 -1.6457 -1.0334
  164SAPE  H16S18462   6.427   0.631   7.332  0.1167  1.8660 -1.3037
  164SAPE  C21718463   6.313   0.489   7.236  0.1797 -0.3945 -0.1868
  164SAPE  H17R18464   6.255   0.473   7.330 -0.7334 -0.0687 -0.6872
  164SAPE  H17S18465   6.330   0.393   7.182  0.8829  0.1880 -1.0295
  164SAPE  C21818466   6.243   0.577   7.127  0.5832  0.2612 -0.5277
  164SAPE  H18R18467   6.304   0.581   7.035  2.9062 -0.8927  0.8708
  164SAPE  H18S18468   6.242   0.678   7.173 -1.7863  0.0339  0.0494
  164SAPE  C21918469   6.099   0.529   7.093 -0.5855 -0.0066 -0.4816
  164SAPE  H19R18470   6.037   0.560   7.179  1.7824 -2.5085  2.3733
  164SAPE  H19S18471   6.101   0.418   7.081  0.7431 -0.0825  0.2420
  164SAPE  C22018472   6.054   0.596   6.962  0.5346  0.1645  0.3788
  164SAPE  H20R18473   5.960   0.555   6.920  0.5223 -0.9151  1.3928
  164SAPE  H20S18474   6.134   0.571   6.889  1.1680 -0.6673  1.3266
  164SAPE  H20T18475   6.047   0.706   6.976 -4.0201  0.2110 -0.6251
  164SAPE   C3318476   6.492   1.137   6.900 -0.1562  0.3622  0.3265
  164SAPE   H3X18477   6.517   1.211   6.821  0.5053  1.1391  1.2389
  164SAPE   H3Y18478   6.578   1.067   6.909 -1.3419 -1.0747  0.9340
  164SAPE   C3418479   6.481   1.202   7.033 -0.5554 -0.2240 -0.8169
  164SAPE   H4X18480   6.382   1.252   7.040 -0.0988  0.5049  0.8316
  164SAPE   H4Y18481   6.554   1.285   7.033 -0.1450 -0.5662 -1.8234
  164SAPE   C3518482   6.513   1.109   7.150 -0.4882 -0.0826  0.3235
  164SAPE   H5X18483   6.614   1.067   7.129 -0.6283 -0.4980  0.4681
  164SAPE   H5Y18484   6.446   1.020   7.155  1.6831 -1.8412 -0.0454
  164SAPE   C3618485   6.495   1.173   7.289 -0.5834  0.5576  1.0082
  164SAPE   H6X18486   6.388   1.192   7.312 -0.6210  1.1166  0.3869
  164SAPE   H6Y18487   6.561   1.263   7.291 -1.6106  1.3685  0.0035
  164SAPE   C3718488   6.549   1.081   7.408 -0.4211  0.2946 -0.0214
  164SAPE   H7X18489   6.658   1.063   7.394 -0.0059 -1.1421  3.9337
  164SAPE   H7Y18490   6.485   0.990   7.403 -1.5925  1.1247 -0.6606
  164SAPE   C3818491   6.521   1.131   7.548  0.1393  0.6555  0.0421
  164SAPE   H8X18492   6.416   1.166   7.551 -0.6546 -1.6568  1.0024
  164SAPE   H8Y18493   6.581   1.222   7.571 -1.5389  1.7905  0.0797
  164SAPE   C3918494   6.540   1.029   7.663  0.3567 -0.1257  0.4182
  164SAPE   H9X18495   6.643   0.987   7.659 -0.3767 -1.9257 -1.5750
  164SAPE   H9Y18496   6.470   0.946   7.639 -0.7237  0.3373  1.8498
  164SAPE  C31018497   6.493   1.086   7.801  0.5249  0.4205  0.0361
  164SAPE  H10X18498   6.396   1.138   7.787 -0.9332 -2.1752  0.0887
  164SAPE  H10Y18499   6.565   1.163   7.837  0.4308 -1.3975  4.9347
  164SAPE  C31118500   6.482   0.972   7.901  0.0842 -0.0540 -0.3363
  164SAPE  H11X18501   6.580   0.924   7.924 -1.0086 -1.2621  2.2310
  164SAPE  H11Y18502   6.426   0.884   7.864  0.5148 -0.7054  0.5048
  164SAPE  C31218503   6.414   1.024   8.031 -0.0624  0.2039  0.4566
  164SAPE  H12X18504   6.492   1.078   8.089 -0.0184 -0.8728  1.4272
  164SAPE  H12Y18505   6.395   0.931   8.089  0.6798  0.0876  0.5231
  164SAPE  C31318506   6.287   1.115   8.009  0.1184  0.6719 -0.2785
  164SAPE  H13X18507   6.321   1.209   7.961 -0.9471  1.2430  0.0599
  164SAPE  H13Y18508   6.268   1.149   8.113  1.8474 -1.0907  0.6821
  164SAPE  C31418509   6.168   1.036   7.940  0.2888 -0.0874 -0.2279
  164SAPE  H14X18510   6.141   0.962   8.019 -2.8112  0.1836 -0.9092
  164SAPE  H14Y18511   6.202   0.979   7.851  1.1861 -2.6443  1.6093
  164SAPE  C31518512   6.050   1.136   7.899  0.0391 -0.2203 -0.1309
  164SAPE  H15X18513   6.092   1.223   7.843 -1.5183  0.7041  0.0601
  164SAPE  H15Y18514   6.023   1.182   7.997  1.3695  1.6227 -0.5773
  164SAPE  C31618515   5.935   1.066   7.831  0.8874  0.5172  0.8753
  164SAPE  H16X18516   5.881   1.003   7.905 -0.6660 -0.8492 -1.2985
  164SAPE  H16Y18517   5.973   0.993   7.756 -0.5450  1.4956 -0.8880
  164SAPE  C31718518   5.826   1.153   7.761 -0.1269 -0.4876  0.4695
  164SAPE  H17X18519   5.770   1.091   7.688 -0.1975  2.6483 -2.4214
  164SAPE  H17Y18520   5.870   1.234   7.698 -2.5664 -0.3901 -1.2652
  164SAPE  C31818521   5.747   1.235   7.861  0.0073 -0.5279 -0.3446
  164SAPE  H18X18522   5.676   1.292   7.797 -1.2305 -2.0312 -0.3870
  164SAPE  H18Y18523   5.806   1.298   7.930 -1.0463 -1.5007  1.5238
  164SAPE  H18Z18524   5.694   1.161   7.924 -1.6483  1.3028  0.4732
  165SAPE     N18525   2.309   1.837   6.114  0.6476 -0.2862 -0.1551
  165SAPE   HN118526   2.236   1.786   6.060 -0.0391  2.3375 -1.8955
  165SAPE   HN218527   2.277   1.935   6.104 -1.3178 -0.7339  1.0254
  165SAPE   HN318528   2.406   1.825   6.079  1.3063  0.2622  1.4319
  165SAPE   C1218529   2.312   1.808   6.261  0.2837 -0.6247  0.3108
  165SAPE  H12A18530   2.208   1.809   6.302 -0.2788  0.6409 -1.0611
  165SAPE  H12B18531   2.381   1.878   6.313 -0.8124  0.0890  0.8390
  165SAPE   C1118532   2.385   1.667   6.274  0.0097  0.0690  0.1738
  165SAPE  H11A18533   2.387   1.637   6.381 -0.2956 -0.5876 -0.0025
  165SAPE  H11B18534   2.490   1.676   6.240 -0.8353 -1.0671 -3.1522
  165SAPE     P18535   2.198   1.487   6.231 -0.0551 -0.0417 -0.0652
  165SAPE   O1318536   2.084   1.577   6.206 -0.8249  0.5268  0.1994
  165SAPE   O1418537   2.191   1.354   6.171  0.4339 -0.2604 -0.6729
  165SAPE   O1218538   2.328   1.563   6.185  0.1600 -0.1460  0.1275
  165SAPE   O1118539   2.225   1.475   6.387  0.6808  0.2633  0.0391
  165SAPE    C118540   2.111   1.435   6.469  0.2447 -0.4532  0.3619
  165SAPE    HA18541   2.042   1.362   6.421  0.2893 -2.6127  3.3240
  165SAPE    HB18542   2.148   1.388   6.562  2.2911 -0.0653 -0.2071
  165SAPE    C218543   2.038   1.557   6.526  0.7858 -0.9711  1.1012
  165SAPE    HS18544   1.990   1.618   6.447 -2.2357 -0.5044  3.1143
  165SAPE   O2118545   2.139   1.628   6.606 -0.7824 -0.6732 -0.1270
  165SAPE   C2118546   2.130   1.765   6.593 -0.2129  0.1429  0.4002
  165SAPE   O2218547   2.055   1.815   6.515  0.2699 -0.3963  0.1325
  165SAPE   C2218548   2.200   1.834   6.712 -0.0175 -0.0817 -0.6202
  165SAPE   H2R18549   2.305   1.798   6.722  0.7420  2.5670  3.2239
  165SAPE   H2S18550   2.210   1.940   6.678  1.0233 -0.1635 -0.6200
  165SAPE    C318551   1.916   1.519   6.616 -0.7868 -0.2770 -0.3900
  165SAPE    HX18552   1.856   1.462   6.542  0.2711  0.6714 -2.0458
  165SAPE    HY18553   1.872   1.617   6.643  0.4680  0.4638 -0.8942
  165SAPE   O3118554   1.960   1.432   6.719 -0.1953 -0.7210 -0.1943
  165SAPE   C3118555   1.858   1.387   6.793 -0.4359 -0.4249 -0.2501
  165SAPE   O3218556   1.741   1.418   6.772  0.3610  0.4247  0.4679
  165SAPE   C3218557   1.911   1.294   6.898 -0.0311 -0.4855  0.5293
  165SAPE   H2X18558   2.014   1.321   6.930 -0.4077  2.3548 -0.4007
  165SAPE   H2Y18559   1.917   1.193   6.853 -0.8705  0.3049 -1.4688
  165SAPE   C2318560   2.114   1.826   6.835  0.1009 -0.3731  0.0001
  165SAPE   H3R18561   2.099   1.722   6.871 -0.6739  0.2782  1.6958
  165SAPE   H3S18562   2.014   1.863   6.804 -0.8074 -1.4888  1.4350
  165SAPE   C2418563   2.155   1.922   6.950 -0.6284  0.0262 -0.7891
  165SAPE   H4R18564   2.089   1.903   7.038 -0.8805 -0.6457 -1.1114
  165SAPE   H4S18565   2.129   2.022   6.909  1.1743  0.3707 -1.1419
  165SAPE   C2518566   2.304   1.918   6.979  0.2425 -0.0382 -0.1909
  165SAPE   H5R18567   2.384   1.936   6.905  2.7599 -0.8587  2.1506
  165SAPE   C2618568   2.354   1.898   7.103 -0.1849  0.4082  0.1827
  165SAPE   H6R18569   2.462   1.909   7.116  0.1318  1.9657 -2.9068
  165SAPE   C2718570   2.273   1.875   7.233 -0.4714 -0.4227  0.8328
  165SAPE   H7R18571   2.341   1.807   7.288  0.2820 -0.0625  0.3573
  165SAPE   H7S18572   2.177   1.821   7.218 -1.1028  0.4801  1.4512
  165SAPE   C2818573   2.230   2.000   7.305 -0.8673 -0.6340  1.0357
  165SAPE   H8R18574   2.170   2.071   7.246  0.5513  0.4094  0.7862
  165SAPE   C2918575   2.263   2.037   7.430 -0.1307 -0.5381  0.2063
  165SAPE   H9R18576   2.237   2.136   7.471  0.0166 -0.0008 -0.9454
  165SAPE  C21018577   2.351   1.952   7.520  0.1763  0.1464 -0.8165
  165SAPE  H10R18578   2.456   1.962   7.485 -0.4597  0.2542 -2.8007
  165SAPE  H10S18579   2.326   1.843   7.521 -1.1482  0.4114  1.4125
  165SAPE  C21118580   2.353   1.998   7.662  0.1594  0.0778  0.9277
  165SAPE  H11R18581   2.344   2.106   7.682  1.2244  0.4142 -0.2908
  165SAPE  C21218582   2.361   1.928   7.778  0.3786 -1.3554  0.2499
  165SAPE  H12R18583   2.365   1.983   7.874  1.7357 -1.0571  0.0397
  165SAPE  C21318584   2.370   1.777   7.793 -0.4718 -0.0865 -0.5725
  165SAPE  H13R18585   2.475   1.742   7.786 -0.9193 -1.8066  0.7244
  165SAPE  H13S18586   2.324   1.733   7.701 -1.1096  2.4211 -1.5327
  165SAPE  C21418587   2.306   1.735   7.922 -0.6590  0.4157 -0.7201
  165SAPE  H14R18588   2.206   1.688   7.914 -1.7586  2.6811 -1.0366
  165SAPE  C21518589   2.359   1.736   8.047 -0.1333  0.1779 -0.4475
  165SAPE  H15R18590   2.302   1.698   8.133 -0.8125  0.0363 -0.9555
  165SAPE  C21618591   2.499   1.787   8.083  0.2680 -0.0851  0.7399
  165SAPE  H16R18592   2.556   1.804   7.990 -1.3817  0.2828 -0.2463
  165SAPE  H16S18593   2.549   1.704   8.136  1.4557 -1.6674 -2.6112
  165SAPE  C21718594   2.493   1.908   8.176  0.1976  0.1979  0.1984
  165SAPE  H17R18595   2.438   1.991   8.127  0.4964  0.2823 -0.0060
  165SAPE  H17S18596   2.587   1.969   8.172 -1.3769  2.7070 -1.5226
  165SAPE  C21818597   2.430   1.870   8.312 -0.5369 -0.3005 -0.2994
  165SAPE  H18R18598   2.477   1.775   8.344 -0.0222  0.1060  0.1676
  165SAPE  H18S18599   2.320   1.861   8.301 -0.3823 -1.4626 -1.0443
  165SAPE  C21918600   2.455   1.978   8.427 -0.5164 -0.1010  0.2375
  165SAPE  H19R18601   2.406   2.071   8.389  1.6293  0.8293 -0.3806
  165SAPE  H19S18602   2.565   1.987   8.421 -0.2590 -2.0826  1.0891
  165SAPE  C22018603   2.405   1.953   8.567 -0.5262 -0.6538 -0.4527
  165SAPE  H20R18604   2.295   1.962   8.563 -0.7504 -2.8378 -0.4179
  165SAPE  H20S18605   2.441   2.033   8.635 -0.3773 -0.5081 -0.7012
  165SAPE  H20T18606   2.433   1.855   8.613  0.0553  0.4203  1.6202
  165SAPE   C3318607   1.814   1.281   7.027 -0.3801  0.1218  0.4865
  165SAPE   H3X18608   1.862   1.206   7.093  1.7846  0.1708 -0.9198
  165SAPE   H3Y18609   1.715   1.244   6.994 -1.2995  1.1334  2.0123
  165SAPE   C3418610   1.792   1.407   7.110 -0.2859 -0.0149 -0.1430
  165SAPE   H4X18611   1.755   1.488   7.043 -2.6843  0.5735  1.7303
  165SAPE   H4Y18612   1.887   1.446   7.152 -0.2236  0.9083 -1.1137
  165SAPE   C3518613   1.686   1.384   7.220  1.0865 -0.1854  0.1738
  165SAPE   H5X18614   1.599   1.335   7.171  1.1919 -0.4907  0.2872
  165SAPE   H5Y18615   1.651   1.485   7.247 -0.3712  0.6879 -4.1543
  165SAPE   C3618616   1.737   1.322   7.343 -0.0270 -0.0219 -0.1029
  165SAPE   H6X18617   1.800   1.393   7.401 -4.3670  0.3144  4.8706
  165SAPE   H6Y18618   1.803   1.234   7.328 -1.0161 -0.9364  0.7599
  165SAPE   C3718619   1.642   1.283   7.452 -0.1191 -0.6606  0.0975
  165SAPE   H7X18620   1.600   1.186   7.419  0.5935 -0.4400 -1.5703
  165SAPE   H7Y18621   1.567   1.365   7.452 -0.3933 -0.9099  0.0007
  165SAPE   C3818622   1.710   1.259   7.584 -0.0645 -0.4006  0.4256
  165SAPE   H8X18623   1.769   1.341   7.631  2.9476 -0.6363 -2.4984
  165SAPE   H8Y18624   1.783   1.175   7.577 -2.5997 -2.6026 -1.4529
  165SAPE   C3918625   1.604   1.221   7.684 -0.9936  0.2342 -0.1270
  165SAPE   H9X18626   1.531   1.149   7.640 -2.3257  0.0833  2.1704
  165SAPE   H9Y18627   1.533   1.304   7.701  0.5589  1.2957  1.5243
  165SAPE  C31018628   1.659   1.179   7.826 -0.3648 -0.1860  0.0370
  165SAPE  H10X18629   1.739   1.254   7.847 -1.6942  2.0231 -2.3390
  165SAPE  H10Y18630   1.703   1.077   7.821 -0.3569 -0.1708 -0.1952
  165SAPE  C31118631   1.550   1.182   7.937  0.2259 -0.2844  0.0950
  165SAPE  H11X18632   1.461   1.123   7.906  1.7590 -2.6777  0.0061
  165SAPE  H11Y18633   1.520   1.289   7.944 -1.2288 -0.7043  0.6677
  165SAPE  C31218634   1.590   1.140   8.072  0.4086 -0.4530 -0.3969
  165SAPE  H12X18635   1.689   1.185   8.094 -0.8159  1.5100  1.5683
  165SAPE  H12Y18636   1.604   1.031   8.082 -0.2171 -0.6324 -1.3489
  165SAPE  C31318637   1.496   1.186   8.190  0.7206 -0.3538 -0.3178
  165SAPE  H13X18638   1.400   1.134   8.174 -0.4454  1.9658 -1.3431
  165SAPE  H13Y18639   1.477   1.295   8.184  2.0573 -0.0158  0.9744
  165SAPE  C31418640   1.556   1.150   8.327 -0.2305 -0.0048 -0.1352
  165SAPE  H14X18641   1.656   1.198   8.331  0.0648 -0.2425 -2.7242
  165SAPE  H14Y18642   1.558   1.039   8.329 -1.9550 -0.0550  0.5479
  165SAPE  C31518643   1.477   1.193   8.446  0.1901  0.1243 -0.7017
  165SAPE  H15X18644   1.392   1.123   8.461  0.6811 -1.0545 -2.9911
  165SAPE  H15Y18645   1.443   1.299   8.437 -0.7333 -0.0579  0.3793
  165SAPE  C31618646   1.555   1.200   8.577  0.5446 -0.3831  0.4539
  165SAPE  H16X18647   1.650   1.252   8.555  1.2338 -1.3168  1.1650
  165SAPE  H16Y18648   1.583   1.096   8.603 -0.8021 -1.0646 -0.6556
  165SAPE  C31718649   1.489   1.256   8.706  0.5640 -0.1727  0.1571
  165SAPE  H17X18650   1.451   1.356   8.677 -2.8022 -1.3473  0.0805
  165SAPE  H17Y18651   1.563   1.261   8.788 -1.1888 -0.4970  1.8349
  165SAPE  C31818652   1.368   1.160   8.756 -0.1110 -0.2553  0.3880
  165SAPE  H18X18653   1.276   1.175   8.695 -0.0131 -0.4203  0.1977
  165SAPE  H18Y18654   1.350   1.166   8.865  1.2949 -1.3131  0.7139
  165SAPE  H18Z18655   1.401   1.057   8.730 -1.0849 -0.2822 -0.8736
  166SAPE     N18656   0.750   6.394   5.872  0.0857 -0.6828  0.4871
  166SAPE   HN118657   0.799   6.482   5.899  0.2589 -1.4267  2.7961
  166SAPE   HN218658   0.790   6.311   5.920  1.5426 -0.3433 -0.0682
  166SAPE   HN318659   0.746   6.399   5.768  2.7125 -0.4064  0.3207
  166SAPE   C1218660   0.606   6.408   5.923 -0.5670 -0.0834  0.3084
  166SAPE  H12A18661   0.611   6.442   6.029 -3.1735 -1.0314  0.8321
  166SAPE  H12B18662   0.572   6.302   5.927  1.4240 -0.7534  0.1959
  166SAPE   C1118663   0.512   6.493   5.837 -0.4660 -0.0183 -0.4162
  166SAPE  H11A18664   0.465   6.439   5.752 -1.8070 -0.0059  0.3013
  166SAPE  H11B18665   0.571   6.580   5.798 -0.8878  0.6531  0.4154
  166SAPE     P18666   0.286   6.628   5.885 -0.0658 -0.0516 -0.0142
  166SAPE   O1318667   0.323   6.745   5.808 -0.0309  0.4385 -0.3428
  166SAPE   O1418668   0.191   6.542   5.817  0.1708 -0.5035  0.4581
  166SAPE   O1218669   0.413   6.545   5.925  0.2637 -0.5116  0.0851
  166SAPE   O1118670   0.230   6.671   6.026 -0.2064  0.3240 -0.5113
  166SAPE    C118671   0.308   6.710   6.140  0.5193  0.6664 -0.0695
  166SAPE    HA18672   0.385   6.779   6.100  0.6808  0.8267  0.5077
  166SAPE    HB18673   0.243   6.764   6.212  0.3516 -2.0306  1.9532
  166SAPE    C218674   0.380   6.599   6.211 -0.3907  0.4727 -0.2678
  166SAPE    HS18675   0.449   6.550   6.139  0.6584  0.8259  0.4738
  166SAPE   O2118676   0.277   6.514   6.258 -0.3199  0.5286 -0.0576
  166SAPE   C2118677   0.304   6.391   6.274 -0.1948  0.7508 -0.0536
  166SAPE   O2218678   0.410   6.334   6.252 -0.2338 -0.0030  0.4131
  166SAPE   C2218679   0.184   6.319   6.333  0.3846 -0.4865  0.7607
  166SAPE   H2R18680   0.128   6.395   6.391  1.8573  2.8865 -1.8612
  166SAPE   H2S18681   0.123   6.287   6.246 -0.5659 -1.6063  1.7976
  166SAPE    C318682   0.466   6.646   6.331  0.3383  0.3370 -0.4244
  166SAPE    HX18683   0.539   6.711   6.279 -1.0443  1.6045 -0.8435
  166SAPE    HY18684   0.523   6.561   6.374  0.6296 -0.8779 -3.0002
  166SAPE   O3118685   0.397   6.718   6.436  0.6181  0.1980  0.1704
  166SAPE   C3118686   0.345   6.648   6.531 -0.4973 -0.5711  0.2441
  166SAPE   O3218687   0.342   6.529   6.545 -0.0211 -0.1004 -0.8708
  166SAPE   C3218688   0.290   6.746   6.635  0.7468  0.2639 -0.4628
  166SAPE   H2X18689   0.201   6.794   6.588 -0.4904 -1.5812 -0.1274
  166SAPE   H2Y18690   0.370   6.818   6.665 -0.3354  2.2097 -1.9717
  166SAPE   C2318691   0.221   6.196   6.422 -0.3374  0.0906  0.0137
  166SAPE   H3R18692   0.311   6.214   6.485  0.0499  1.0999 -0.7915
  166SAPE   H3S18693   0.245   6.112   6.354 -0.6407 -0.2829  0.3590
  166SAPE   C2418694   0.094   6.155   6.509  0.0025  0.0345  0.2275
  166SAPE   H4R18695   0.010   6.109   6.453 -1.0936  2.1426  0.0184
  166SAPE   H4S18696   0.057   6.246   6.561 -0.4549 -1.1083  1.9937
  166SAPE   C2518697   0.154   6.058   6.610 -0.0148  0.6138 -0.4297
  166SAPE   H5R18698   0.151   5.954   6.576  1.3698  0.5896 -0.5279
  166SAPE   C2618699   0.199   6.084   6.734  0.0533 -0.3022  0.6240
  166SAPE   H6R18700   0.226   5.998   6.797 -2.1949 -2.6147 -1.2952
  166SAPE   C2718701   0.205   6.225   6.801 -0.0082  0.8130  0.5569
  166SAPE   H7R18702   0.109   6.246   6.851 -0.2246  0.8947  0.1116
  166SAPE   H7S18703   0.224   6.309   6.730  2.1200 -2.3132 -2.9599
  166SAPE   C2818704   0.317   6.246   6.904  0.1783  0.4016  0.3636
  166SAPE   H8R18705   0.391   6.319   6.869  2.6952 -2.0388  0.2425
  166SAPE   C2918706   0.331   6.196   7.027 -0.0910 -0.2798 -0.4264
  166SAPE   H9R18707   0.413   6.233   7.090  0.6259 -1.6105 -0.5381
  166SAPE  C21018708   0.233   6.111   7.097  0.0827 -0.1054  0.4043
  166SAPE  H10R18709   0.219   6.016   7.041  0.5193  0.4979 -0.7534
  166SAPE  H10S18710   0.134   6.161   7.097 -0.5473 -1.3250 -0.0135
  166SAPE  C21118711   0.271   6.085   7.241  0.1080 -0.8360 -0.4447
  166SAPE  H11R18712   0.337   6.156   7.293  1.2607 -1.7557 -0.6251
  166SAPE  C21218713   0.214   5.990   7.312 -0.0035  0.8105 -0.4620
  166SAPE  H12R18714   0.237   5.988   7.420 -0.5453 -0.6237 -0.3514
  166SAPE  C21318715   0.111   5.893   7.265 -0.2971  0.0325 -0.0435
  166SAPE  H13R18716   0.115   5.858   7.160  1.6149 -0.8031  0.2726
  166SAPE  H13S18717   0.013   5.945   7.278  0.0267  0.9878 -1.3085
  166SAPE  C21418718   0.118   5.770   7.347  0.5564  0.6413  0.4730
  166SAPE  H14R18719   0.187   5.694   7.309 -0.7456  0.1599 -1.0106
  166SAPE  C21518720   0.059   5.744   7.470 -0.7744 -0.2695 -0.7920
  166SAPE  H15R18721   0.075   5.646   7.515  0.2063 -1.2566 -3.1205
  166SAPE  C21618722  -0.038   5.832   7.546 -0.5795  0.0346  0.0737
  166SAPE  H16R18723  -0.130   5.771   7.563 -1.4301  0.6182 -2.0168
  166SAPE  H16S18724  -0.077   5.924   7.497 -0.4117 -0.2455 -0.6038
  166SAPE  C21718725   0.021   5.870   7.679  0.5911 -0.8809 -0.7186
  166SAPE  H17R18726   0.114   5.930   7.672 -0.0776  0.5785  1.7150
  166SAPE  H17S18727   0.051   5.779   7.736  4.9896  0.0379 -1.2628
  166SAPE  C21818728  -0.074   5.954   7.766  0.8832  0.5050 -0.2973
  166SAPE  H18R18729  -0.154   5.878   7.777  2.1957 -0.9015 -0.1441
  166SAPE  H18S18730  -0.120   6.043   7.717  1.1981  1.9224  1.8163
  166SAPE  C21918731  -0.020   5.993   7.900  0.4671 -0.1058 -0.1965
  166SAPE  H19R18732   0.074   6.050   7.884 -0.3957  0.8698 -2.1265
  166SAPE  H19S18733  -0.001   5.900   7.957 -2.2833 -0.7232 -0.1344
  166SAPE  C22018734  -0.118   6.072   7.986  0.7745 -0.4189 -0.5080
  166SAPE  H20R18735  -0.215   6.018   7.986  0.7472 -0.4156  1.2048
  166SAPE  H20S18736  -0.129   6.174   7.942 -2.5443 -1.5551 -2.7262
  166SAPE  H20T18737  -0.092   6.087   8.092 -0.6625 -1.2046 -0.0172
  166SAPE   C3318738   0.251   6.671   6.761  0.4045 -0.0987 -0.5112
  166SAPE   H3X18739   0.339   6.624   6.810  0.1651  0.4678  0.4831
  166SAPE   H3Y18740   0.177   6.589   6.749  1.4751 -1.0663 -0.7408
  166SAPE   C3418741   0.185   6.771   6.864  1.1702 -0.0342  0.1262
  166SAPE   H4X18742   0.086   6.792   6.817  0.7229 -3.9312 -1.0042
  166SAPE   H4Y18743   0.245   6.864   6.872  1.2683  0.0063 -0.9678
  166SAPE   C3518744   0.157   6.703   6.997  1.1618  0.6528 -0.0980
  166SAPE   H5X18745   0.119   6.599   6.983 -0.9778  1.0073  2.4994
  166SAPE   H5Y18746   0.085   6.762   7.056 -1.7155 -1.1825 -1.5436
  166SAPE   C3618747   0.287   6.704   7.082 -0.8586  0.4536  0.4086
  166SAPE   H6X18748   0.333   6.805   7.075 -2.3015  1.1677  0.9740
  166SAPE   H6Y18749   0.361   6.637   7.031 -0.2279  1.4237  0.0134
  166SAPE   C3718750   0.272   6.669   7.228  0.6271 -0.3285 -0.4950
  166SAPE   H7X18751   0.368   6.641   7.275  1.7463  3.1764 -0.4150
  166SAPE   H7Y18752   0.194   6.592   7.246  0.4902 -0.1278 -0.2056
  166SAPE   C3818753   0.235   6.807   7.310 -0.3974  0.2337 -0.5969
  166SAPE   H8X18754   0.136   6.841   7.272  0.0794  0.2437 -1.8713
  166SAPE   H8Y18755   0.319   6.873   7.281 -0.8640  0.9926 -0.2643
  166SAPE   C3918756   0.224   6.796   7.467 -0.4031 -0.1115  0.4542
  166SAPE   H9X18757   0.173   6.703   7.498  1.8713 -1.7639 -0.4904
  166SAPE   H9Y18758   0.168   6.883   7.508 -2.0454  0.6181 -2.9235
  166SAPE  C31018759   0.359   6.792   7.535  0.1684 -0.4729 -0.2841
  166SAPE  H10X18760   0.426   6.877   7.511 -0.3776  0.7708  2.2292
  166SAPE  H10Y18761   0.403   6.694   7.508  0.0300 -0.0689 -2.1121
  166SAPE  C31118762   0.335   6.812   7.685  0.1308 -0.2107  1.0210
  166SAPE  H11X18763   0.241   6.760   7.715  1.1632 -1.9404  1.4114
  166SAPE  H11Y18764   0.324   6.920   7.706  0.8302  0.7826 -2.9566
  166SAPE  C31218765   0.461   6.762   7.766  0.2967  0.4620 -0.5704
  166SAPE  H12X18766   0.546   6.807   7.710 -1.0317  1.0302 -2.1908
  166SAPE  H12Y18767   0.462   6.651   7.754 -0.5496  0.5656 -1.7722
  166SAPE  C31318768   0.459   6.812   7.911  1.3825 -0.3451  0.4413
  166SAPE  H13X18769   0.426   6.916   7.932 -0.5742 -0.6929 -0.5791
  166SAPE  H13Y18770   0.559   6.807   7.957  0.5270 -1.1931  2.2834
  166SAPE  C31418771   0.369   6.729   8.010  0.2536  0.0642  0.2292
  166SAPE  H14X18772   0.424   6.643   8.056  0.3472 -0.4837 -0.8789
  166SAPE  H14Y18773   0.297   6.673   7.947  0.4207  0.0628  0.0365
  166SAPE  C31518774   0.296   6.821   8.117  1.2162  1.0461  0.6042
  166SAPE  H15X18775   0.361   6.902   8.157  2.0951  1.7898 -2.1161
  166SAPE  H15Y18776   0.263   6.751   8.198  2.0752 -0.8342 -0.6058
  166SAPE  C31618777   0.164   6.898   8.067 -0.5453  0.3873 -0.4839
  166SAPE  H16X18778   0.103   6.815   8.025  1.2335 -0.7182 -1.0040
  166SAPE  H16Y18779   0.196   6.962   7.982  2.1958  0.7928  0.7450
  166SAPE  C31718780   0.080   6.959   8.180  0.5024 -0.2073 -0.4310
  166SAPE  H17X18781   0.152   7.010   8.248  2.6015 -1.8892 -1.2576
  166SAPE  H17Y18782   0.033   6.874   8.235  0.7626  0.1164  0.3141
  166SAPE  C31818783  -0.019   7.063   8.135  0.4717 -0.1932  0.3832
  166SAPE  H18X18784  -0.103   7.012   8.082  1.8242  0.3257 -2.4781
  166SAPE  H18Y18785   0.022   7.141   8.067  0.5132 -2.1551 -1.9788
  166SAPE  H18Z18786  -0.042   7.113   8.231  2.3761 -0.6760  1.1340
  167SAPE     N18787   2.328   5.377   6.138  0.4637 -0.0058 -0.0487
  167SAPE   HN118788   2.400   5.351   6.209  2.7584 -0.3788 -2.3650
  167SAPE   HN218789   2.232   5.343   6.161  0.3006  0.0718 -0.5942
  167SAPE   HN318790   2.362   5.315   6.061  1.0159  1.4853 -1.0422
  167SAPE   C1218791   2.325   5.525   6.113 -0.0224 -0.0570 -0.4820
  167SAPE  H12A18792   2.254   5.546   6.030 -2.1256 -1.1743  0.9414
  167SAPE  H12B18793   2.429   5.553   6.085  0.3306  1.5476  2.1038
  167SAPE   C1118794   2.286   5.602   6.245 -0.2807  0.1521 -0.2402
  167SAPE  H11A18795   2.295   5.710   6.221  0.2290 -0.3651 -2.5835
  167SAPE  H11B18796   2.366   5.590   6.321 -0.1691  1.2476 -0.1666
  167SAPE     P18797   2.032   5.628   6.268 -0.7192 -0.1235  0.4294
  167SAPE   O1318798   2.041   5.692   6.132  0.6217  0.1458 -0.0092
  167SAPE   O1418799   1.920   5.535   6.282  0.2562 -0.4140 -0.0437
  167SAPE   O1218800   2.164   5.561   6.308  0.0889 -0.4360  0.5166
  167SAPE   O1118801   2.018   5.743   6.366 -0.2990 -0.2810  0.3235
  167SAPE    C118802   2.087   5.730   6.497 -0.0462 -0.4918  0.0631
  167SAPE    HA18803   2.068   5.632   6.546 -1.5620 -0.7929 -1.0518
  167SAPE    HB18804   2.197   5.739   6.482 -0.0089 -1.7298 -0.5718
  167SAPE    C218805   2.054   5.844   6.599  0.4761  0.5492  0.2849
  167SAPE    HS18806   2.084   5.938   6.549  2.4251 -0.6628 -0.9501
  167SAPE   O2118807   2.122   5.820   6.723  0.1404 -0.0477  0.1957
  167SAPE   C2118808   2.159   5.926   6.788 -0.2446  0.5808 -0.1075
  167SAPE   O2218809   2.148   6.039   6.752 -0.3931  0.2287 -0.2377
  167SAPE   C2218810   2.226   5.871   6.919  0.0369  0.2831  0.5026
  167SAPE   H2R18811   2.160   5.796   6.968 -0.4637  0.2347 -0.2229
  167SAPE   H2S18812   2.317   5.826   6.876 -0.2034  2.4953 -2.6966
  167SAPE    C318813   1.901   5.846   6.621  0.1233  0.6612  0.5758
  167SAPE    HX18814   1.872   5.748   6.665  0.5176  0.0514 -0.4841
  167SAPE    HY18815   1.850   5.850   6.522 -1.8301  0.3046  1.5065
  167SAPE   O3118816   1.853   5.954   6.712  0.1570  0.7110 -0.3324
  167SAPE   C3118817   1.851   6.074   6.655 -0.5896  0.0328 -0.3861
  167SAPE   O3218818   1.923   6.105   6.565 -0.4094 -0.4021 -0.6210
  167SAPE   C3218819   1.751   6.163   6.727  0.4473 -0.0523 -0.3359
  167SAPE   H2X18820   1.678   6.211   6.658 -0.4816 -1.5374 -0.4327
  167SAPE   H2Y18821   1.803   6.255   6.761 -0.7015  0.3283  0.4592
  167SAPE   C2318822   2.273   5.983   7.019  0.2733  0.2667 -0.1847
  167SAPE   H3R18823   2.345   6.045   6.962  1.5514 -0.3078  0.7563
  167SAPE   H3S18824   2.326   5.933   7.103 -1.6162 -0.1469  0.8078
  167SAPE   C2418825   2.161   6.071   7.070  0.4865  0.6685 -0.9520
  167SAPE   H4R18826   2.080   6.004   7.106  1.4283  0.1167  0.2462
  167SAPE   H4S18827   2.117   6.125   6.983  1.9300  0.1428 -2.0460
  167SAPE   C2518828   2.188   6.175   7.176 -0.3702  0.7025  0.2633
  167SAPE   H5R18829   2.191   6.276   7.132 -0.3997 -0.3772 -2.3877
  167SAPE   C2618830   2.215   6.157   7.309 -0.1309  0.1814 -0.4521
  167SAPE   H6R18831   2.226   6.238   7.383  1.4694  0.2185 -0.6965
  167SAPE   C2718832   2.203   6.016   7.373  0.0403 -0.2864 -0.5289
  167SAPE   H7R18833   2.148   5.943   7.310 -1.3205 -0.5813  0.9579
  167SAPE   H7S18834   2.131   6.020   7.458  0.2243 -1.2831 -0.3112
  167SAPE   C2818835   2.340   5.963   7.411 -0.0180  0.0580  0.1582
  167SAPE   H8R18836   2.404   5.950   7.322 -2.3817  1.1054 -1.8086
  167SAPE   C2918837   2.385   5.949   7.539 -0.3139 -0.1871 -0.4239
  167SAPE   H9R18838   2.486   5.907   7.553  0.1088  1.1468  0.8315
  167SAPE  C21018839   2.307   5.976   7.668 -0.2292  0.2080 -0.0361
  167SAPE  H10R18840   2.220   5.908   7.684  0.3970 -0.7820 -0.7297
  167SAPE  H10S18841   2.266   6.080   7.666  0.9676  0.7110  0.6050
  167SAPE  C21118842   2.401   5.965   7.789 -0.1370 -0.4381  0.4178
  167SAPE  H11R18843   2.479   6.043   7.792 -0.3431 -0.0430 -2.3709
  167SAPE  C21218844   2.384   5.896   7.903  0.3235  0.1906  0.2970
  167SAPE  H12R18845   2.456   5.908   7.985 -0.9423  1.0687  1.3180
  167SAPE  C21318846   2.268   5.805   7.933 -0.1898  0.5198  0.0931
  167SAPE  H13R18847   2.257   5.725   7.858  0.5048 -1.5287  2.0782
  167SAPE  H13S18848   2.179   5.871   7.937  0.8139  1.9984 -0.9410
  167SAPE  C21418849   2.281   5.724   8.056  0.3957 -0.3385 -0.3058
  167SAPE  H14R18850   2.337   5.630   8.049  0.8791 -0.0903  0.1277
  167SAPE  C21518851   2.230   5.747   8.181  0.1361  0.6511 -0.3545
  167SAPE  H15R18852   2.259   5.684   8.266 -1.4220  0.6166  0.1772
  167SAPE  C21618853   2.135   5.859   8.209  0.5456  0.1600  0.9240
  167SAPE  H16R18854   2.068   5.841   8.296 -1.5724  0.4410 -0.5613
  167SAPE  H16S18855   2.064   5.873   8.125 -1.1090 -1.5889  1.9335
  167SAPE  C21718856   2.219   5.984   8.232 -0.3744  0.6721  0.0531
  167SAPE  H17R18857   2.282   6.016   8.146 -1.3766 -0.0966 -0.9873
  167SAPE  H17S18858   2.284   5.975   8.322 -0.8774 -2.2217  0.2283
  167SAPE  C21818859   2.136   6.107   8.273  0.5551  0.3009  0.1083
  167SAPE  H18R18860   2.214   6.183   8.294 -0.0254  1.3501 -1.3296
  167SAPE  H18S18861   2.071   6.088   8.360  0.8407  0.5449  0.3753
  167SAPE  C21918862   2.066   6.167   8.156  0.9297  0.3905  0.2037
  167SAPE  H19R18863   2.010   6.084   8.107 -1.4467  2.3942 -0.6665
  167SAPE  H19S18864   2.129   6.180   8.065 -0.8068  1.1197 -0.9261
  167SAPE  C22018865   1.982   6.290   8.174  0.1914 -0.2986 -0.4516
  167SAPE  H20R18866   1.929   6.291   8.272 -1.2455  0.0469 -1.2025
  167SAPE  H20S18867   1.918   6.306   8.085 -0.0166 -1.6675 -0.5759
  167SAPE  H20T18868   2.048   6.378   8.159  0.5918 -0.8281 -1.9414
  167SAPE   C3318869   1.672   6.098   6.843  0.6516  0.4378 -0.4458
  167SAPE   H3X18870   1.741   6.053   6.918  0.1589  1.1819  0.4709
  167SAPE   H3Y18871   1.618   6.016   6.792  0.5538  0.7616 -0.8650
  167SAPE   C3418872   1.557   6.178   6.908  1.0524 -0.5058  0.2944
  167SAPE   H4X18873   1.501   6.214   6.819 -0.6226 -0.8328  1.1643
  167SAPE   H4Y18874   1.593   6.269   6.961 -2.3622  0.7741  0.6930
  167SAPE   C3518875   1.465   6.101   7.005 -0.1041 -0.4393  0.7407
  167SAPE   H5X18876   1.430   6.009   6.953 -0.2784  0.1247 -0.1570
  167SAPE   H5Y18877   1.368   6.153   7.023  0.2007 -0.1001  1.4418
  167SAPE   C3618878   1.541   6.071   7.134  0.3898 -0.3372 -0.0030
  167SAPE   H6X18879   1.651   6.084   7.120  0.5086 -0.1393  1.0075
  167SAPE   H6Y18880   1.531   5.966   7.169  2.3157 -0.3558  0.6494
  167SAPE   C3718881   1.496   6.157   7.256  0.6727 -0.6365 -0.2979
  167SAPE   H7X18882   1.390   6.130   7.276  0.4323 -1.3486 -2.3055
  167SAPE   H7Y18883   1.489   6.266   7.238  1.1349 -0.3157  1.3326
  167SAPE   C3818884   1.584   6.137   7.379  0.4271 -0.7257 -0.4492
  167SAPE   H8X18885   1.685   6.171   7.345  0.9808  0.6876  2.2927
  167SAPE   H8Y18886   1.586   6.028   7.400  2.1572 -0.5335  0.6487
  167SAPE   C3918887   1.565   6.211   7.511 -0.0311 -0.6434  0.0240
  167SAPE   H9X18888   1.519   6.312   7.496  2.0402  0.2359 -0.7258
  167SAPE   H9Y18889   1.663   6.217   7.562 -0.5905 -2.0222  1.3324
  167SAPE  C31018890   1.468   6.128   7.592 -0.3327  0.8520  0.1352
  167SAPE  H10X18891   1.516   6.034   7.625  0.1396  0.4955 -1.4588
  167SAPE  H10Y18892   1.378   6.108   7.531  0.9781  1.2186 -2.0499
  167SAPE  C31118893   1.427   6.202   7.717 -0.2324  0.2549  1.0997
  167SAPE  H11X18894   1.355   6.280   7.685  0.4595  1.4640  2.3426
  167SAPE  H11Y18895   1.517   6.254   7.756 -0.4471  0.0736  1.8597
  167SAPE  C31218896   1.367   6.123   7.828  0.5851 -0.3091 -0.0750
  167SAPE  H12X18897   1.431   6.036   7.853 -2.6336 -2.7550  0.3065
  167SAPE  H12Y18898   1.271   6.083   7.788  1.0520 -1.1742 -0.3498
  167SAPE  C31318899   1.326   6.218   7.942  0.1074  0.7172 -0.4418
  167SAPE  H13X18900   1.240   6.276   7.903 -0.4165  0.5595  0.4474
  167SAPE  H13Y18901   1.403   6.297   7.961 -0.3433  1.8135 -2.8250
  167SAPE  C31418902   1.277   6.141   8.062 -0.4382  0.1896 -0.9176
  167SAPE  H14X18903   1.353   6.070   8.102  1.0193  3.0367  1.7497
  167SAPE  H14Y18904   1.194   6.073   8.034 -0.8643  0.2055  0.2298
  167SAPE  C31518905   1.231   6.231   8.176 -0.3115  0.0083  0.7991
  167SAPE  H15X18906   1.130   6.270   8.152 -0.8438  1.2553  4.4049
  167SAPE  H15Y18907   1.302   6.316   8.191 -0.9575  1.0777 -1.7220
  167SAPE  C31618908   1.226   6.150   8.305  0.1851 -0.1122 -0.0512
  167SAPE  H16X18909   1.314   6.167   8.372  0.2443 -0.6614  0.0135
  167SAPE  H16Y18910   1.208   6.041   8.309 -1.8328  0.1230  4.7046
  167SAPE  C31718911   1.101   6.186   8.389  0.3087  0.5109  0.2795
  167SAPE  H17X18912   1.015   6.175   8.319  0.3481  3.1517 -0.3081
  167SAPE  H17Y18913   1.111   6.291   8.425  1.3009 -0.0757  1.8262
  167SAPE  C31818914   1.080   6.096   8.510 -0.2733 -0.1173 -0.9715
  167SAPE  H18X18915   1.065   5.989   8.486  0.7066 -0.9934  1.8651
  167SAPE  H18Y18916   1.000   6.123   8.582 -0.2667  2.0220 -1.7061
  167SAPE  H18Z18917   1.170   6.100   8.576 -1.4704  2.3814  0.6673
  168SAPE     N18918   2.455   0.156   6.273  0.2356 -0.1587  0.3213
  168SAPE   HN118919   2.440   0.190   6.176 -0.0163 -2.8281 -0.6370
  168SAPE   HN218920   2.385   0.079   6.271 -0.1463  0.1999 -1.9677
  168SAPE   HN318921   2.424   0.235   6.333 -0.0195  0.7345 -0.9488
  168SAPE   C1218922   2.588   0.091   6.298 -0.3409  0.3804  0.2079
  168SAPE  H12A18923   2.672   0.164   6.292  0.5218 -0.6360 -0.3180
  168SAPE  H12B18924   2.609   0.013   6.222  1.0036 -0.4171  1.3614
  168SAPE   C1118925   2.578   0.013   6.435  0.0431 -0.0552 -0.1094
  168SAPE  H11A18926   2.566   0.091   6.514 -0.9066  1.5811 -1.7931
  168SAPE  H11B18927   2.674  -0.041   6.450  0.3997  0.6006  0.0251
  168SAPE     P18928   2.441  -0.220   6.471  0.3601 -0.2588 -0.3010
  168SAPE   O1318929   2.302  -0.237   6.510  0.1418  0.0813 -0.2089
  168SAPE   O1418930   2.491  -0.298   6.353 -0.1824 -0.4521  0.9952
  168SAPE   O1218931   2.460  -0.068   6.438  0.2649 -0.2615  0.6165
  168SAPE   O1118932   2.527  -0.242   6.590 -0.3859  0.4815  0.2900
  168SAPE    C118933   2.613  -0.354   6.594  0.5672  0.0958  0.0385
  168SAPE    HA18934   2.549  -0.445   6.601  1.3498 -0.4411  0.4066
  168SAPE    HB18935   2.674  -0.364   6.501  1.0316 -0.6741  0.4180
  168SAPE    C218936   2.704  -0.336   6.718  1.2241  0.0836  0.4219
  168SAPE    HS18937   2.785  -0.413   6.712  0.5723 -0.5242 -1.8025
  168SAPE   O2118938   2.635  -0.330   6.841 -0.2501 -0.2271  0.1289
  168SAPE   C2118939   2.590  -0.443   6.894  0.9044 -0.1087  0.2614
  168SAPE   O2218940   2.598  -0.553   6.842  0.1918 -0.0508  0.5197
  168SAPE   C2218941   2.521  -0.411   7.028  0.0883 -0.0626 -0.5230
  168SAPE   H2R18942   2.557  -0.315   7.071 -1.7740 -0.1909  1.5214
  168SAPE   H2S18943   2.414  -0.394   7.002  0.6920  2.7772 -1.5304
  168SAPE    C318944   2.791  -0.205   6.696 -0.0114 -0.8017  0.1587
  168SAPE    HX18945   2.744  -0.116   6.650  0.7741 -1.0802 -1.2214
  168SAPE    HY18946   2.866  -0.241   6.622 -0.3556  0.7903 -1.0216
  168SAPE   O3118947   2.865  -0.173   6.814  0.5635 -1.4321  0.3327
  168SAPE   C3118948   2.810  -0.067   6.883 -0.6638 -0.2955 -0.4285
  168SAPE   O3218949   2.719   0.001   6.841 -1.1184  0.0029 -0.3892
  168SAPE   C3218950   2.896  -0.040   7.008 -0.3231 -0.1388 -0.1429
  168SAPE   H2X18951   2.934   0.063   6.993 -0.1472  0.0367  1.3493
  168SAPE   H2Y18952   2.989  -0.100   7.009 -0.0708  0.2438  0.8650
  168SAPE   C2318953   2.526  -0.536   7.125 -0.1614  0.4915  0.5560
  168SAPE   H3R18954   2.475  -0.626   7.084  0.0596  0.7981 -0.4152
  168SAPE   H3S18955   2.479  -0.497   7.217 -2.4916  0.4446 -0.5437
  168SAPE   C2418956   2.659  -0.585   7.184 -0.0028 -0.2069 -0.1953
  168SAPE   H4R18957   2.721  -0.635   7.107  0.1215  0.0399 -0.2566
  168SAPE   H4S18958   2.633  -0.659   7.262 -0.5747  0.6010  0.4064
  168SAPE   C2518959   2.732  -0.473   7.248 -0.4036  0.8787 -0.4475
  168SAPE   H5R18960   2.792  -0.418   7.174  1.8947 -0.6795  0.1332
  168SAPE   C2618961   2.732  -0.445   7.382  0.0612 -0.0777  0.2830
  168SAPE   H6R18962   2.779  -0.349   7.409  0.5856 -0.0836 -0.5662
  168SAPE   C2718963   2.664  -0.515   7.500  0.5121  0.2913 -0.1038
  168SAPE   H7R18964   2.559  -0.531   7.467 -0.7408  5.3276  0.6360
  168SAPE   H7S18965   2.640  -0.433   7.570  2.1294  0.3356  0.4231
  168SAPE   C2818966   2.738  -0.634   7.567  0.0408  0.3028 -0.0073
  168SAPE   H8R18967   2.793  -0.706   7.505 -3.0692 -0.0632 -2.6067
  168SAPE   C2918968   2.759  -0.641   7.695  0.5433  0.3233 -0.0811
  168SAPE   H9R18969   2.813  -0.731   7.730  1.5297  1.0628  0.3512
  168SAPE  C21018970   2.712  -0.554   7.805 -0.0261 -0.0593  0.2393
  168SAPE  H10R18971   2.611  -0.510   7.791 -0.4406 -0.8595  0.6787
  168SAPE  H10S18972   2.782  -0.467   7.799 -0.2078 -0.0181 -1.6482
  168SAPE  C21118973   2.708  -0.612   7.939  0.5400  0.2040 -0.4860
  168SAPE  H11R18974   2.760  -0.709   7.950  0.9610  0.4563 -0.2177
  168SAPE  C21218975   2.640  -0.565   8.044  0.3543 -0.7826 -0.1153
  168SAPE  H12R18976   2.643  -0.618   8.140 -3.4226  0.1521  0.6773
  168SAPE  C21318977   2.558  -0.442   8.044  0.0173 -0.8057 -0.0659
  168SAPE  H13R18978   2.600  -0.376   7.966 -0.6427 -1.9715 -1.4498
  168SAPE  H13S18979   2.553  -0.402   8.148  1.9163 -2.0092  0.5468
  168SAPE  C21418980   2.419  -0.469   7.994 -0.2751  0.3281  0.0347
  168SAPE  H14R18981   2.372  -0.553   8.048  2.5274 -0.9576  0.6476
  168SAPE  C21518982   2.354  -0.409   7.899  0.7516  0.0792 -0.6073
  168SAPE  H15R18983   2.256  -0.453   7.873  0.3980  0.1611  0.5492
  168SAPE  C21618984   2.402  -0.298   7.807 -0.3494 -0.0963 -0.4343
  168SAPE  H16R18985   2.510  -0.283   7.825  0.1166 -1.7580 -1.6967
  168SAPE  H16S18986   2.349  -0.205   7.838 -0.8138 -1.0695  1.8717
  168SAPE  C21718987   2.369  -0.312   7.657 -0.8025  1.2734 -0.1285
  168SAPE  H17R18988   2.259  -0.321   7.641 -0.7344 -0.7883  0.2125
  168SAPE  H17S18989   2.411  -0.405   7.613 -3.5000 -0.2668  0.3322
  168SAPE  C21818990   2.419  -0.200   7.564 -0.2423 -0.2089 -0.5179
  168SAPE  H18R18991   2.521  -0.171   7.598 -1.0065  1.0741  0.7954
  168SAPE  H18S18992   2.358  -0.109   7.578  0.9582  0.3538  1.4880
  168SAPE  C21918993   2.406  -0.233   7.417 -0.4568 -1.1057 -0.3947
  168SAPE  H19R18994   2.470  -0.321   7.394  2.2878  0.1135  1.9361
  168SAPE  H19S18995   2.451  -0.151   7.357 -0.4424 -1.7048 -1.2251
  168SAPE  C22018996   2.268  -0.252   7.356  0.9526 -0.1508 -0.4969
  168SAPE  H20R18997   2.279  -0.281   7.249  0.3037  1.3848 -1.0251
  168SAPE  H20S18998   2.212  -0.156   7.343  0.3717 -0.5448 -0.9823
  168SAPE  H20T18999   2.204  -0.318   7.418 -0.3162  1.6000  0.1547
  168SAPE   C3319000   2.820  -0.047   7.138 -0.5078  0.3513 -0.0634
  168SAPE   H3X19001   2.729  -0.110   7.138 -1.0332  1.0377 -2.1519
  168SAPE   H3Y19002   2.781   0.057   7.137  0.9435  0.9411 -2.4229
  168SAPE   C3419003   2.899  -0.078   7.259 -1.1706  0.2788 -0.7317
  168SAPE   H4X19004   2.989  -0.014   7.268 -1.5975  0.6458  1.8476
  168SAPE   H4Y19005   2.936  -0.183   7.259 -0.0703  0.6448 -0.4284
  168SAPE   C3519006   2.820  -0.065   7.390 -1.1392 -0.3417  1.8732
  168SAPE   H5X19007   2.723  -0.118   7.379  0.2821 -2.5214 -2.5866
  168SAPE   H5Y19008   2.802   0.044   7.403 -1.9273 -0.2330  0.2000
  168SAPE   C3619009   2.899  -0.129   7.509 -0.0400  0.0336 -0.0221
  168SAPE   H6X19010   2.999  -0.083   7.523  0.7137 -0.7828 -2.2525
  168SAPE   H6Y19011   2.899  -0.240   7.510 -1.4210 -0.0508  2.8262
  168SAPE   C3719012   2.828  -0.094   7.644 -0.2296  0.1071 -0.6195
  168SAPE   H7X19013   2.718  -0.103   7.634 -0.3076 -2.6726  1.4293
  168SAPE   H7Y19014   2.858   0.008   7.676  0.4805 -0.1419 -0.4789
  168SAPE   C3819015   2.877  -0.179   7.765  0.7289 -0.7386 -0.2041
  168SAPE   H8X19016   2.987  -0.169   7.775  0.6570  0.4477 -0.4205
  168SAPE   H8Y19017   2.856  -0.288   7.760  0.5915 -0.8442  1.8719
  168SAPE   C3919018   2.807  -0.136   7.894 -0.2032  0.6557 -0.7208
  168SAPE   H9X19019   2.697  -0.137   7.905 -0.3636  0.7682 -2.0647
  168SAPE   H9Y19020   2.819  -0.026   7.904 -4.3742  1.2844 -1.0385
  168SAPE  C31019021   2.875  -0.209   8.013 -0.2076 -0.0971 -0.2068
  168SAPE  H10X19022   2.984  -0.202   7.992  0.0597  1.5830  1.4683
  168SAPE  H10Y19023   2.860  -0.319   8.014  3.8698 -0.8160  1.9956
  168SAPE  C31119024   2.840  -0.154   8.152 -0.9076  0.4050  0.4002
  168SAPE  H11X19025   2.730  -0.157   8.166 -1.4406  1.5782 -2.8079
  168SAPE  H11Y19026   2.860  -0.044   8.155  1.7581  0.0603 -1.4504
  168SAPE  C31219027   2.903  -0.232   8.268  0.0513  0.4980 -0.2825
  168SAPE  H12X19028   3.010  -0.238   8.237  0.5537  2.5653  0.8347
  168SAPE  H12Y19029   2.854  -0.331   8.279  0.2531  0.1144 -2.3474
  168SAPE  C31319030   2.884  -0.148   8.396 -0.0163  0.2737  0.1462
  168SAPE  H13X19031   2.829  -0.201   8.477  3.0417 -0.4325  1.9205
  168SAPE  H13Y19032   2.832  -0.055   8.366 -0.9319 -0.3411 -0.2081
  168SAPE  C31419033   3.012  -0.090   8.456 -0.1898  0.1957  0.4018
  168SAPE  H14X19034   3.063  -0.015   8.392 -1.1854 -0.6702 -1.4732
  168SAPE  H14Y19035   3.079  -0.178   8.457  0.0688  0.3585 -0.8533
  168SAPE  C31519036   2.997  -0.044   8.596  0.5659 -0.4507  0.2734
  168SAPE  H15X19037   2.957  -0.130   8.653 -0.4271  0.2015  0.5824
  168SAPE  H15Y19038   2.910   0.024   8.607 -0.3359 -1.3959 -0.8333
  168SAPE  C31619039   3.127   0.014   8.658  0.0025 -0.9079  0.0279
  168SAPE  H16X19040   3.129   0.125   8.649  0.1685 -0.5903  2.8692
  168SAPE  H16Y19041   3.216  -0.023   8.604  0.0480  0.2532 -0.7221
  168SAPE  C31719042   3.126  -0.020   8.804  0.5155  0.2565  0.0583
  168SAPE  H17X19043   3.144  -0.128   8.821 -0.1667  0.2096  0.5058
  168SAPE  H17Y19044   3.024  -0.004   8.845  1.1225  0.2034  1.6508
  168SAPE  C31819045   3.227   0.059   8.881  0.5770  0.0052 -0.1959
  168SAPE  H18X19046   3.332   0.041   8.849  1.7307  0.6519  2.8334
  168SAPE  H18Y19047   3.232   0.025   8.987  1.6303  2.1483  0.5127
  168SAPE  H18Z19048   3.201   0.167   8.883 -0.6371 -0.2658  1.8977
  169SAPE     N19049   1.689   2.808   6.384 -0.0454  0.0536  0.1649
  169SAPE   HN119050   1.638   2.841   6.299 -0.8442 -1.2720  0.0915
  169SAPE   HN219051   1.729   2.713   6.371  2.6305  0.7447  2.5668
  169SAPE   HN319052   1.627   2.804   6.467 -0.7544 -2.0066 -0.3885
  169SAPE   C1219053   1.798   2.908   6.410  0.7704  0.2491 -0.7937
  169SAPE  H12A19054   1.851   2.915   6.313  0.5862  1.5427 -0.8254
  169SAPE  H12B19055   1.859   2.871   6.494  2.1377  1.3879 -1.2503
  169SAPE   C1119056   1.725   3.043   6.444 -0.3573  0.1618  0.0384
  169SAPE  H11A19057   1.807   3.116   6.461 -0.1226  0.0461 -0.5912
  169SAPE  H11B19058   1.666   3.030   6.538  0.6730 -0.0779  0.6594
  169SAPE     P19059   1.533   3.184   6.360 -0.0863  0.0701  0.3602
  169SAPE   O1319060   1.520   3.289   6.254  0.0902  0.4709  0.1316
  169SAPE   O1419061   1.406   3.110   6.382 -0.1169 -0.4143 -0.6523
  169SAPE   O1219062   1.651   3.082   6.328  0.9171 -0.1073 -0.6835
  169SAPE   O1119063   1.570   3.254   6.488 -0.3174 -0.1951  0.0539
  169SAPE    C119064   1.581   3.379   6.556 -0.2508 -0.9284 -0.5195
  169SAPE    HA19065   1.612   3.455   6.481 -1.3226  0.0342 -0.0139
  169SAPE    HB19066   1.480   3.417   6.583 -0.6189 -2.5848  0.5747
  169SAPE    C219067   1.682   3.372   6.673  0.5981  0.6487 -0.1405
  169SAPE    HS19068   1.697   3.465   6.732 -0.1067 -0.2034  1.4395
  169SAPE   O2119069   1.808   3.331   6.630 -0.3723  0.9758  0.0127
  169SAPE   C2119070   1.868   3.422   6.556  0.3967 -0.1013 -0.9181
  169SAPE   O2219071   1.838   3.539   6.543  0.5232 -0.7170 -0.2895
  169SAPE   C2219072   2.002   3.368   6.502 -0.4533  0.1560 -0.6172
  169SAPE   H2R19073   1.976   3.267   6.464 -0.1556  0.0581 -0.5642
  169SAPE   H2S19074   2.040   3.433   6.420  3.3791  2.3919  2.5325
  169SAPE    C319075   1.630   3.267   6.782  0.2649 -0.1786 -0.0764
  169SAPE    HX19076   1.642   3.165   6.740 -0.1121 -1.2301  2.2117
  169SAPE    HY19077   1.521   3.287   6.798  0.5903  2.3053 -0.5223
  169SAPE   O3119078   1.704   3.287   6.909 -0.0520  0.0432 -0.0305
  169SAPE   C3119079   1.663   3.214   7.017 -0.2073 -0.5834 -0.2613
  169SAPE   O3219080   1.581   3.127   7.014  0.3173  0.0707 -0.1184
  169SAPE   C3219081   1.732   3.267   7.142 -0.0603  0.1210 -0.3554
  169SAPE   H2X19082   1.711   3.376   7.138  0.9101  0.3054 -0.7898
  169SAPE   H2Y19083   1.840   3.240   7.141 -0.2791 -0.7888 -1.0028
  169SAPE   C2319084   2.121   3.358   6.606 -0.4733 -0.6023 -0.5358
  169SAPE   H3R19085   2.122   3.446   6.674 -2.0215 -0.7721 -0.2555
  169SAPE   H3S19086   2.220   3.363   6.557  0.1013  2.3183  0.7415
  169SAPE   C2419087   2.133   3.227   6.686 -0.1251  0.3230  0.2593
  169SAPE   H4R19088   2.242   3.208   6.702  0.0892  0.0320 -1.3320
  169SAPE   H4S19089   2.087   3.151   6.619 -0.8505 -1.1392  2.3081
  169SAPE   C2519090   2.051   3.224   6.810  0.8009  0.1511  0.0008
  169SAPE   H5R19091   1.943   3.216   6.794  0.8998 -1.0809 -0.1219
  169SAPE   C2619092   2.099   3.224   6.936 -0.1006 -0.2174 -0.7942
  169SAPE   H6R19093   2.037   3.233   7.026  0.4841 -0.1143 -0.3951
  169SAPE   C2719094   2.243   3.228   6.966 -0.0604  0.0196 -0.4428
  169SAPE   H7R19095   2.302   3.162   6.900  0.3621  0.4666 -0.5150
  169SAPE   H7S19096   2.262   3.192   7.070 -1.8152 -1.8008 -0.6969
  169SAPE   C2819097   2.296   3.373   6.953 -0.0057 -0.0658  0.1140
  169SAPE   H8R19098   2.307   3.408   6.850  1.8223  0.2356  0.3791
  169SAPE   C2919099   2.325   3.453   7.054  0.1595  0.2428 -0.0168
  169SAPE   H9R19100   2.366   3.553   7.037  1.7463 -0.2825  0.5663
  169SAPE  C21019101   2.320   3.422   7.203 -0.6702  0.3349  0.5081
  169SAPE  H10R19102   2.391   3.488   7.257  0.3630  0.1337 -0.5493
  169SAPE  H10S19103   2.372   3.324   7.214 -2.3985 -0.3917  3.1655
  169SAPE  C21119104   2.186   3.424   7.276 -0.7411  0.1488  0.5358
  169SAPE  H11R19105   2.094   3.451   7.222 -0.7438  1.6014  1.2141
  169SAPE  C21219106   2.164   3.410   7.413 -0.0660 -0.2000 -0.0965
  169SAPE  H12R19107   2.061   3.402   7.450 -0.1833 -0.7966 -0.5356
  169SAPE  C21319108   2.276   3.385   7.509  0.3064 -0.4861  0.1871
  169SAPE  H13R19109   2.293   3.484   7.556 -0.6685 -0.0744 -0.3109
  169SAPE  H13S19110   2.372   3.366   7.455 -0.4483 -1.3428 -0.9027
  169SAPE  C21419111   2.247   3.276   7.605 -0.7750 -0.6640 -0.4072
  169SAPE  H14R19112   2.214   3.183   7.558 -1.9622 -1.0298  1.0959
  169SAPE  C21519113   2.242   3.275   7.740  0.7412  0.5954  1.0604
  169SAPE  H15R19114   2.205   3.188   7.796  1.9040 -0.1435  0.7302
  169SAPE  C21619115   2.278   3.395   7.820  0.0762  0.0990 -1.0147
  169SAPE  H16R19116   2.188   3.459   7.818 -0.1762 -0.2577 -1.1371
  169SAPE  H16S19117   2.367   3.445   7.777 -0.0538  1.8956  0.6123
  169SAPE  C21719118   2.298   3.352   7.970  0.1068 -0.0941 -0.9194
  169SAPE  H17R19119   2.209   3.287   7.987  1.0330 -1.7441 -2.0708
  169SAPE  H17S19120   2.286   3.444   8.032 -0.6496 -0.1656 -0.9404
  169SAPE  C21819121   2.434   3.293   8.002  0.3369  0.1449 -0.8351
  169SAPE  H18R19122   2.503   3.380   7.993  0.4761 -0.0695 -2.0495
  169SAPE  H18S19123   2.457   3.205   7.937  1.4348  0.2432 -0.6094
  169SAPE  C21919124   2.460   3.250   8.146 -0.4654  0.6093  0.1896
  169SAPE  H19R19125   2.560   3.204   8.133 -0.7550 -0.0153  0.1290
  169SAPE  H19S19126   2.384   3.177   8.181 -1.5968  1.6997  0.0656
  169SAPE  C22019127   2.466   3.361   8.258 -0.4231  0.9562 -0.1822
  169SAPE  H20R19128   2.536   3.446   8.241 -0.3454  0.6306 -1.6327
  169SAPE  H20S19129   2.496   3.299   8.345 -1.2323 -1.4825 -1.5522
  169SAPE  H20T19130   2.365   3.403   8.278 -1.5490 -2.6748  2.8031
  169SAPE   C3319131   1.686   3.209   7.281 -0.7796 -0.9857 -0.5849
  169SAPE   H3X19132   1.704   3.101   7.300  2.3240 -0.0650  3.0269
  169SAPE   H3Y19133   1.580   3.243   7.288  0.0361  2.3939 -2.5378
  169SAPE   C3419134   1.772   3.271   7.394 -0.2399  0.6177 -0.6821
  169SAPE   H4X19135   1.764   3.381   7.380 -2.2864  0.5814 -0.1376
  169SAPE   H4Y19136   1.875   3.233   7.377 -0.5793 -0.7136  0.1150
  169SAPE   C3519137   1.707   3.217   7.528 -0.4947  0.2340  0.1694
  169SAPE   H5X19138   1.685   3.110   7.511  0.0346  0.5278 -2.8805
  169SAPE   H5Y19139   1.612   3.269   7.550 -2.4720 -3.3599  0.8641
  169SAPE   C3619140   1.808   3.243   7.640 -0.0957 -0.3086  0.0588
  169SAPE   H6X19141   1.819   3.353   7.653  0.6239 -0.4809  1.1157
  169SAPE   H6Y19142   1.904   3.193   7.617 -0.3317 -1.2929  1.1429
  169SAPE   C3719143   1.748   3.188   7.768 -0.2041 -0.9112 -0.0369
  169SAPE   H7X19144   1.769   3.080   7.759  0.7960 -0.5137 -4.5718
  169SAPE   H7Y19145   1.639   3.205   7.783  0.3190  2.2386  1.0927
  169SAPE   C3819146   1.806   3.245   7.899 -0.0944  0.0839  0.1900
  169SAPE   H8X19147   1.768   3.349   7.906  0.6907  0.3256  1.1672
  169SAPE   H8Y19148   1.916   3.259   7.893 -0.3014  3.5019  1.7437
  169SAPE   C3919149   1.761   3.159   8.023  0.2838  0.1097  0.6940
  169SAPE   H9X19150   1.796   3.053   8.027 -0.8186 -0.2540  1.0190
  169SAPE   H9Y19151   1.651   3.159   8.040  0.3254 -1.2772  1.0598
  169SAPE  C31019152   1.809   3.226   8.147  0.4611 -0.4469  0.9115
  169SAPE  H10X19153   1.799   3.336   8.144 -0.1433 -0.5230 -0.5913
  169SAPE  H10Y19154   1.916   3.201   8.163  1.1499  2.2824  1.0019
  169SAPE  C31119155   1.737   3.171   8.264  0.2079  0.0405 -0.8435
  169SAPE  H11X19156   1.729   3.060   8.266  0.7051 -0.0158  2.0001
  169SAPE  H11Y19157   1.634   3.211   8.262  0.3994  0.8222  1.5700
  169SAPE  C31219158   1.786   3.223   8.406 -0.5032  0.0500 -0.0633
  169SAPE  H12X19159   1.697   3.217   8.472 -0.6563 -0.8939 -0.3496
  169SAPE  H12Y19160   1.822   3.328   8.390  0.8043 -0.6351 -2.0556
  169SAPE  C31319161   1.904   3.149   8.465 -0.4161  0.2801 -1.0402
  169SAPE  H13X19162   1.993   3.138   8.398  1.9612 -0.5208  2.0284
  169SAPE  H13Y19163   1.872   3.044   8.482  1.7009 -0.3987 -0.8925
  169SAPE  C31419164   1.949   3.214   8.597 -0.2148  0.2187 -1.3690
  169SAPE  H14X19165   1.881   3.213   8.685  1.1009 -1.0517 -0.3265
  169SAPE  H14Y19166   1.973   3.319   8.568 -2.9691  0.9944 -1.1397
  169SAPE  C31519167   2.078   3.138   8.651 -0.0454  0.4796 -0.3419
  169SAPE  H15X19168   2.143   3.117   8.563  1.0593  1.0738  0.3141
  169SAPE  H15Y19169   2.042   3.042   8.695  0.8928 -0.1708 -0.9746
  169SAPE  C31619170   2.154   3.216   8.755  0.1358 -0.9673 -0.5147
  169SAPE  H16X19171   2.197   3.152   8.836  1.7553 -0.3562 -0.8468
  169SAPE  H16Y19172   2.091   3.289   8.810  0.0991 -2.0046  0.8866
  169SAPE  C31719173   2.265   3.300   8.702 -0.7367 -0.1061  0.6644
  169SAPE  H17X19174   2.300   3.348   8.796  1.8661  1.6683 -1.0782
  169SAPE  H17Y19175   2.235   3.387   8.639  0.4608 -1.3029 -1.7027
  169SAPE  C31819176   2.386   3.234   8.636  0.0522  0.0511 -0.1718
  169SAPE  H18X19177   2.428   3.177   8.722  0.6437  2.6300  1.3396
  169SAPE  H18Y19178   2.461   3.300   8.587 -0.7429  1.7033  0.7440
  169SAPE  H18Z19179   2.360   3.164   8.554  0.2445 -2.3192  1.6854
  170SAPE     N19180   3.993   5.302   6.132 -0.2399  0.1641  0.4608
  170SAPE   HN119181   4.035   5.211   6.103 -0.2528  0.0710  0.7293
  170SAPE   HN219182   3.900   5.279   6.174 -0.1021  0.4627  0.9422
  170SAPE   HN319183   3.978   5.371   6.057 -0.9229 -2.7799 -2.3508
  170SAPE   C1219184   4.082   5.338   6.254  0.2990 -0.4651  0.1664
  170SAPE  H12A19185   4.184   5.296   6.238  0.3137  0.2307 -1.8365
  170SAPE  H12B19186   4.036   5.289   6.342  2.7905  0.3713  2.0449
  170SAPE   C1119187   4.100   5.488   6.286  0.0085  0.0585  0.6200
  170SAPE  H11A19188   4.147   5.548   6.205  0.9882 -0.8493  0.4827
  170SAPE  H11B19189   4.172   5.498   6.370  0.6781 -0.8559  0.1731
  170SAPE     P19190   3.965   5.690   6.387  0.4691  0.2822 -0.0156
  170SAPE   O1319191   4.003   5.788   6.281  0.4605 -0.2984 -0.0000
  170SAPE   O1419192   3.838   5.718   6.457 -0.6418 -0.1579 -0.0023
  170SAPE   O1219193   3.970   5.540   6.319 -0.5779 -0.0877 -0.7336
  170SAPE   O1119194   4.079   5.689   6.488  0.1919  0.0671 -0.3887
  170SAPE    C119195   4.059   5.620   6.613 -0.4402 -0.1534  0.1368
  170SAPE    HA19196   3.969   5.556   6.617 -0.5975  0.0827  0.4187
  170SAPE    HB19197   4.140   5.546   6.634 -0.9804 -0.9775 -0.6197
  170SAPE    C219198   4.057   5.722   6.732 -0.4770 -0.5367  0.1583
  170SAPE    HS19199   4.115   5.814   6.711 -1.5990  0.0608 -0.3737
  170SAPE   O2119200   4.116   5.659   6.847  0.4646 -0.7068 -0.1490
  170SAPE   C2119201   4.144   5.737   6.949  0.3100 -0.5048 -0.4224
  170SAPE   O2219202   4.143   5.856   6.954  1.1314 -0.6035  0.0822
  170SAPE   C2219203   4.193   5.644   7.061 -0.7208 -0.5401 -0.2723
  170SAPE   H2R19204   4.119   5.561   7.063 -0.7825 -0.4711  0.9294
  170SAPE   H2S19205   4.291   5.613   7.017  0.8823  4.5859 -1.0074
  170SAPE    C319206   3.905   5.761   6.761 -0.5715 -0.4540 -0.2534
  170SAPE    HX19207   3.843   5.671   6.740 -1.1735 -0.7009  2.2226
  170SAPE    HY19208   3.884   5.846   6.694  0.1830  0.0040  0.0859
  170SAPE   O3119209   3.869   5.792   6.897  0.0836 -0.0137  0.4492
  170SAPE   C3119210   3.821   5.919   6.920 -0.4409 -0.5602  0.2296
  170SAPE   O3219211   3.800   6.008   6.842 -0.0788  0.5061  0.2275
  170SAPE   C3219212   3.803   5.926   7.065  0.3538 -0.4722  0.7959
  170SAPE   H2X19213   3.899   5.891   7.108  2.3714  0.8895 -2.2062
  170SAPE   H2Y19214   3.733   5.844   7.090  1.6261 -2.1537 -0.8478
  170SAPE   C2319215   4.223   5.708   7.198  0.1920  0.7052  0.5961
  170SAPE   H3R19216   4.123   5.755   7.216 -0.5919  1.0092 -3.5578
  170SAPE   H3S19217   4.306   5.781   7.194 -0.0387  1.0276  1.4999
  170SAPE   C2419218   4.268   5.610   7.310  0.0039  0.1150  0.8399
  170SAPE   H4R19219   4.372   5.579   7.287 -0.4802 -1.1257  0.1885
  170SAPE   H4S19220   4.214   5.512   7.306  0.0416  0.1299 -0.2449
  170SAPE   C2519221   4.241   5.672   7.442  0.1396 -0.5636 -0.5363
  170SAPE   H5R19222   4.150   5.734   7.436  0.1788 -0.4828 -0.3016
  170SAPE   C2619223   4.323   5.664   7.548  0.1512  0.0053  0.2041
  170SAPE   H6R19224   4.285   5.675   7.651  2.9245 -4.7626  2.0786
  170SAPE   C2719225   4.456   5.596   7.536 -0.6560 -0.6956  0.0538
  170SAPE   H7R19226   4.478   5.534   7.446 -2.6937  1.1286 -1.8158
  170SAPE   H7S19227   4.458   5.520   7.618  0.6189 -1.2750 -0.4848
  170SAPE   C2819228   4.568   5.697   7.546 -1.1248  0.2735  0.5343
  170SAPE   H8R19229   4.579   5.770   7.464 -1.2344 -1.5764 -1.2125
  170SAPE   C2919230   4.650   5.709   7.656  0.0433  0.0490 -0.1858
  170SAPE   H9R19231   4.734   5.779   7.660  0.4332 -0.4544  0.8091
  170SAPE  C21019232   4.636   5.624   7.783 -0.1553  0.0988 -0.2119
  170SAPE  H10R19233   4.736   5.596   7.821 -1.0542 -0.5244  1.8312
  170SAPE  H10S19234   4.600   5.524   7.751  1.0286 -0.4837  0.2250
  170SAPE  C21119235   4.552   5.677   7.901  0.1912  0.4557 -0.2907
  170SAPE  H11R19236   4.448   5.707   7.884  0.4476  1.7995  0.3950
  170SAPE  C21219237   4.596   5.698   8.025  0.9071 -0.6831 -0.1035
  170SAPE  H12R19238   4.527   5.740   8.099  0.1511  2.1175 -2.2062
  170SAPE  C21319239   4.730   5.669   8.084 -0.1661  1.1705 -0.5773
  170SAPE  H13R19240   4.813   5.734   8.049  1.4810 -0.1217  0.7536
  170SAPE  H13S19241   4.769   5.572   8.046  0.9730  1.6078 -0.5623
  170SAPE  C21419242   4.728   5.663   8.234 -0.2365  0.9745  0.7555
  170SAPE  H14R19243   4.645   5.607   8.281  0.5721  0.7853  2.0097
  170SAPE  C21519244   4.812   5.727   8.311 -0.5061 -0.7239  0.8021
  170SAPE  H15R19245   4.809   5.707   8.419 -0.8053 -0.2072  0.8917
  170SAPE  C21619246   4.933   5.809   8.274 -0.5340  0.2682  0.3361
  170SAPE  H16R19247   4.923   5.910   8.318 -2.1088  0.1985  0.2102
  170SAPE  H16S19248   4.945   5.823   8.165 -0.5906 -1.5929  0.0568
  170SAPE  C21719249   5.063   5.746   8.323 -0.7783  0.0813  0.0677
  170SAPE  H17R19250   5.081   5.752   8.432  0.1724  0.6173 -0.1092
  170SAPE  H17S19251   5.148   5.810   8.292 -0.3549  1.0578  2.9498
  170SAPE  C21819252   5.101   5.610   8.256  0.9814 -0.4362 -0.1467
  170SAPE  H18R19253   5.076   5.628   8.150  2.3791 -2.5428 -0.9048
  170SAPE  H18S19254   5.036   5.529   8.297  1.2659  0.1572  1.5639
  170SAPE  C21919255   5.246   5.559   8.241  0.1216  0.5289  0.1381
  170SAPE  H19R19256   5.315   5.632   8.193 -0.9663  2.0464  0.8058
  170SAPE  H19S19257   5.239   5.467   8.179  3.0684 -1.9525  3.1008
  170SAPE  C22019258   5.308   5.506   8.371 -0.4138  0.0033  0.1725
  170SAPE  H20R19259   5.241   5.442   8.431 -0.3110  0.2211  0.5211
  170SAPE  H20S19260   5.346   5.586   8.437  0.8560  0.2491 -0.8254
  170SAPE  H20T19261   5.392   5.443   8.336 -0.3070 -0.4861  1.3066
  170SAPE   C3319262   3.756   6.064   7.125 -0.1061 -0.4892  0.1429
  170SAPE   H3X19263   3.693   6.128   7.059  1.5543  1.8293  0.6834
  170SAPE   H3Y19264   3.845   6.129   7.139 -0.1328  0.2874 -2.7060
  170SAPE   C3419265   3.689   6.066   7.256 -0.1603 -0.5540 -0.0430
  170SAPE   H4X19266   3.585   6.027   7.258  0.1319 -1.3787 -0.4685
  170SAPE   H4Y19267   3.673   6.171   7.289 -0.3530 -0.3678 -0.7154
  170SAPE   C3519268   3.771   5.983   7.364  0.4270  0.1197  0.6463
  170SAPE   H5X19269   3.867   6.037   7.352 -0.0084  0.8770  0.5259
  170SAPE   H5Y19270   3.770   5.873   7.347 -0.4090  0.4703 -2.2258
  170SAPE   C3619271   3.721   6.009   7.503  0.2894  0.3373 -0.1092
  170SAPE   H6X19272   3.633   5.943   7.522  1.2463 -0.6607  1.0148
  170SAPE   H6Y19273   3.697   6.118   7.506  1.5538  0.6119  1.1248
  170SAPE   C3719274   3.821   5.973   7.613  0.6922  0.1777 -0.0479
  170SAPE   H7X19275   3.917   6.023   7.590  0.7993  0.3958  0.8307
  170SAPE   H7Y19276   3.838   5.863   7.619 -0.5596 -0.1224 -1.4299
  170SAPE   C3819277   3.801   6.032   7.755 -0.4584 -0.4721 -1.0240
  170SAPE   H8X19278   3.805   6.142   7.749 -0.3928 -0.2263  2.1306
  170SAPE   H8Y19279   3.883   6.001   7.824 -1.8465 -0.1361  0.8426
  170SAPE   C3919280   3.660   6.019   7.807  0.8546 -0.2023 -0.2070
  170SAPE   H9X19281   3.636   5.911   7.819  0.3166 -0.0481  0.1447
  170SAPE   H9Y19282   3.579   6.052   7.738 -0.1012 -1.3165  0.3432
  170SAPE  C31019283   3.643   6.091   7.945 -0.8039 -0.0127 -0.6332
  170SAPE  H10X19284   3.542   6.123   7.977 -1.8122 -1.0772 -2.5318
  170SAPE  H10Y19285   3.698   6.187   7.934  2.4143 -1.4008  1.7115
  170SAPE  C31119286   3.707   6.014   8.059  0.4189 -0.2510 -0.9509
  170SAPE  H11X19287   3.813   5.999   8.029  0.3810  1.1295 -1.8522
  170SAPE  H11Y19288   3.662   5.915   8.085 -1.9198  1.4805  2.3662
  170SAPE  C31219289   3.703   6.100   8.188 -0.5788  0.4016 -0.6149
  170SAPE  H12X19290   3.600   6.092   8.228  0.2337  0.0439  1.5665
  170SAPE  H12Y19291   3.738   6.202   8.162  3.8164 -1.1324 -1.7773
  170SAPE  C31319292   3.801   6.056   8.297  0.2715 -0.5043  0.0834
  170SAPE  H13X19293   3.906   6.066   8.262 -0.2317  2.5712 -0.7780
  170SAPE  H13Y19294   3.785   5.948   8.318 -3.2184 -0.1605 -0.1581
  170SAPE  C31419295   3.785   6.135   8.429  0.2259 -0.0709 -0.0801
  170SAPE  H14X19296   3.687   6.115   8.478 -0.0333  0.6684 -0.2816
  170SAPE  H14Y19297   3.770   6.243   8.407 -0.5521  0.0143  0.7592
  170SAPE  C31519298   3.888   6.124   8.537  0.0638  0.0960 -0.1767
  170SAPE  H15X19299   3.896   6.016   8.563 -2.9434 -0.1550  0.0997
  170SAPE  H15Y19300   3.857   6.174   8.631  0.0737 -0.0601 -0.0895
  170SAPE  C31619301   4.023   6.192   8.488  0.7048 -0.0012 -0.4994
  170SAPE  H16X19302   4.005   6.301   8.476 -1.4668 -0.2664 -0.1516
  170SAPE  H16Y19303   4.061   6.147   8.394  0.7146 -0.7934 -0.1262
  170SAPE  C31719304   4.141   6.193   8.594 -0.1360  0.0577 -0.1199
  170SAPE  H17X19305   4.166   6.085   8.604  0.5093  0.0064 -1.8869
  170SAPE  H17Y19306   4.104   6.219   8.695  1.6106  2.4748  0.0033
  170SAPE  C31819307   4.268   6.253   8.539  0.4307  0.3892  0.3695
  170SAPE  H18X19308   4.277   6.233   8.430 -0.2435 -0.9089  0.5340
  170SAPE  H18Y19309   4.355   6.214   8.597  0.9815 -2.1882 -1.9484
  170SAPE  H18Z19310   4.267   6.363   8.556 -0.3197  0.6503 -1.1847
  171SAPE     N19311   4.225   5.889   6.200  0.0861  0.1148 -0.3415
  171SAPE   HN119312   4.143   5.829   6.222  0.9149 -1.4841 -1.4445
  171SAPE   HN219313   4.296   5.826   6.156  1.0086 -0.0418  1.2625
  171SAPE   HN319314   4.277   5.912   6.287 -0.7828  0.1728  0.1660
  171SAPE   C1219315   4.191   6.005   6.117  0.6982 -1.0976 -0.3980
  171SAPE  H12A19316   4.103   6.058   6.159  2.6328  0.5171  1.8467
  171SAPE  H12B19317   4.159   5.960   6.020 -3.0629 -2.3259  1.2254
  171SAPE   C1119318   4.311   6.103   6.107 -0.0018  0.3751 -0.3915
  171SAPE  H11A19319   4.278   6.188   6.043 -1.7886  0.3213  0.3867
  171SAPE  H11B19320   4.399   6.055   6.061 -1.0465 -1.0342 -0.9852
  171SAPE     P19321   4.457   6.225   6.288  0.0228  0.1791 -0.2291
  171SAPE   O1319322   4.568   6.128   6.259 -0.1574  0.0305 -0.3029
  171SAPE   O1419323   4.460   6.362   6.229 -0.0109  0.2600 -0.4417
  171SAPE   O1219324   4.321   6.151   6.244  0.0663 -0.1311 -0.0495
  171SAPE   O1119325   4.437   6.231   6.443  0.0160 -0.2511  0.2802
  171SAPE    C119326   4.316   6.241   6.520 -0.0698  0.1307 -0.3199
  171SAPE    HA19327   4.228   6.193   6.472 -0.4288 -2.3351  2.5253
  171SAPE    HB19328   4.341   6.176   6.606  1.5056 -1.8750 -2.1533
  171SAPE    C219329   4.278   6.377   6.574  0.6116 -0.3907  0.2937
  171SAPE    HS19330   4.281   6.445   6.486  1.5262  0.0875  0.6815
  171SAPE   O2119331   4.378   6.416   6.665  0.0255 -0.1568  0.0498
  171SAPE   C2119332   4.390   6.548   6.677 -0.9456 -0.0430 -1.0769
  171SAPE   O2219333   4.336   6.628   6.605  0.4345  0.1315 -0.7671
  171SAPE   C2219334   4.459   6.571   6.803 -0.4577  0.0892 -0.4396
  171SAPE   H2R19335   4.402   6.511   6.877 -0.8479  0.7604 -0.1834
  171SAPE   H2S19336   4.559   6.523   6.805 -0.6479 -0.3374 -0.8690
  171SAPE    C319337   4.136   6.382   6.637 -0.9691 -0.4547  0.5122
  171SAPE    HX19338   4.063   6.360   6.556 -1.6890  3.1661  0.0265
  171SAPE    HY19339   4.121   6.487   6.667  3.0573  0.7285 -0.9076
  171SAPE   O3119340   4.118   6.280   6.741 -0.6661  0.4039  0.2788
  171SAPE   C3119341   4.119   6.330   6.857  0.1175 -0.0997  0.1760
  171SAPE   O3219342   4.140   6.447   6.891 -0.1373  0.5254  0.6126
  171SAPE   C3219343   4.081   6.222   6.961  0.5374 -0.1701  0.2830
  171SAPE   H2X19344   4.097   6.120   6.921 -3.2031  0.1946 -2.7354
  171SAPE   H2Y19345   3.976   6.238   6.992  0.6855  2.3037 -0.2183
  171SAPE   C2319346   4.457   6.722   6.838 -0.7981 -0.0217 -0.2366
  171SAPE   H3R19347   4.355   6.764   6.828 -1.1042 -0.6479  0.1275
  171SAPE   H3S19348   4.522   6.766   6.760  0.8706 -2.1966 -0.1692
  171SAPE   C2419349   4.513   6.750   6.972 -0.6916  0.0181 -0.2090
  171SAPE   H4R19350   4.622   6.738   6.989 -0.7437  0.5235  0.5611
  171SAPE   H4S19351   4.464   6.679   7.043 -2.4868  1.4986  0.1242
  171SAPE   C2519352   4.468   6.889   7.013  0.5819  0.0489  0.2545
  171SAPE   H5R19353   4.497   6.959   6.934  1.1876 -0.5935 -0.0970
  171SAPE   C2619354   4.394   6.933   7.120 -0.6525  0.3182  0.8114
  171SAPE   H6R19355   4.369   7.040   7.126 -3.2350 -0.1840  0.3660
  171SAPE   C2719356   4.347   6.848   7.233  0.1913 -0.2120  0.3064
  171SAPE   H7R19357   4.427   6.848   7.310  0.9030 -0.0120 -0.4190
  171SAPE   H7S19358   4.339   6.743   7.198 -0.9669  0.1407 -0.5289
  171SAPE   C2819359   4.212   6.891   7.281  0.3330 -0.4791 -0.0640
  171SAPE   H8R19360   4.134   6.904   7.205  0.0243 -1.2458  0.1113
  171SAPE   C2919361   4.178   6.921   7.407  0.5656  0.0575 -0.2370
  171SAPE   H9R19362   4.078   6.964   7.419  0.8920  1.7646 -2.7791
  171SAPE  C21019363   4.265   6.911   7.534  0.0346 -0.5000 -0.0413
  171SAPE  H10R19364   4.331   7.000   7.536 -3.2134  2.2838 -2.9418
  171SAPE  H10S19365   4.334   6.824   7.541 -0.8648 -1.1831  0.8223
  171SAPE  C21119366   4.174   6.916   7.658 -0.7116 -0.3638  0.5938
  171SAPE  H11R19367   4.069   6.907   7.627 -0.4562  0.8950 -0.7890
  171SAPE  C21219368   4.216   6.922   7.789 -0.2031  0.1255  0.0655
  171SAPE  H12R19369   4.144   6.929   7.872  1.3609  0.2313  1.4810
  171SAPE  C21319370   4.357   6.931   7.840  0.2344 -0.3545  0.2364
  171SAPE  H13R19371   4.422   6.930   7.750 -3.1628  1.0516 -2.4969
  171SAPE  H13S19372   4.372   6.830   7.885  1.7405 -0.0067  0.5394
  171SAPE  C21419373   4.381   7.063   7.916  0.1466  0.3573  0.0898
  171SAPE  H14R19374   4.380   7.143   7.842 -1.7288  0.3560  0.0666
  171SAPE  C21519375   4.386   7.084   8.051 -0.2118 -0.1124 -0.2159
  171SAPE  H15R19376   4.413   7.184   8.086 -0.6481  0.0408 -0.3162
  171SAPE  C21619377   4.372   6.968   8.147  0.1951  0.1879 -0.0051
  171SAPE  H16R19378   4.278   6.910   8.137  0.4088 -0.0574 -0.5940
  171SAPE  H16S19379   4.362   7.015   8.248 -0.3246  1.3308 -0.5732
  171SAPE  C21719380   4.501   6.878   8.145  0.1303 -0.3068 -0.0805
  171SAPE  H17R19381   4.595   6.932   8.169 -0.0729 -0.0808  0.2176
  171SAPE  H17S19382   4.524   6.830   8.047  0.3594  0.4317 -0.3987
  171SAPE  C21819383   4.487   6.761   8.248  0.1442  0.5137 -0.0299
  171SAPE  H18R19384   4.566   6.684   8.239  0.3914  0.6951  0.5335
  171SAPE  H18S19385   4.388   6.714   8.232  0.0663 -0.1218  2.0160
  171SAPE  C21919386   4.477   6.815   8.393 -0.2030  0.4353  0.0436
  171SAPE  H19R19387   4.469   6.925   8.380 -0.0357  0.2665 -1.6799
  171SAPE  H19S19388   4.569   6.803   8.454  0.3499 -0.8305 -0.9824
  171SAPE  C22019389   4.354   6.766   8.463  0.2672 -0.7718 -0.3030
  171SAPE  H20R19390   4.339   6.656   8.459  0.4931 -0.7916 -0.7351
  171SAPE  H20S19391   4.268   6.810   8.408  0.0163 -1.7092 -0.6852
  171SAPE  H20T19392   4.351   6.798   8.569 -0.0569 -0.7929 -0.3045
  171SAPE   C3319393   4.180   6.231   7.078  0.5765  0.4327  0.7224
  171SAPE   H3X19394   4.190   6.335   7.113  0.9519  0.8425 -0.5380
  171SAPE   H3Y19395   4.281   6.207   7.037 -0.0209  1.5543 -1.5975
  171SAPE   C3419396   4.144   6.132   7.186  0.3078 -0.5946 -0.1817
  171SAPE   H4X19397   4.137   6.028   7.150 -0.4361 -0.5457 -0.1924
  171SAPE   H4Y19398   4.049   6.176   7.224  0.8860  0.0826  0.5283
  171SAPE   C3519399   4.234   6.129   7.311 -0.2548 -0.5416 -0.3464
  171SAPE   H5X19400   4.284   6.227   7.329 -0.1328 -0.6286 -0.2035
  171SAPE   H5Y19401   4.325   6.070   7.288  0.9064  1.1648 -0.3446
  171SAPE   C3619402   4.164   6.099   7.432  1.0355 -0.2103  0.0959
  171SAPE   H6X19403   4.118   5.999   7.415  0.5636  0.2059 -1.1868
  171SAPE   H6Y19404   4.083   6.174   7.446  0.3207 -0.8804 -0.3593
  171SAPE   C3719405   4.253   6.096   7.558  0.4249 -0.3824  0.2658
  171SAPE   H7X19406   4.298   6.193   7.590 -2.2861  0.5953  1.4597
  171SAPE   H7Y19407   4.341   6.038   7.527  0.2481 -0.4901 -0.0371
  171SAPE   C3819408   4.175   6.037   7.679  0.0120  0.1944 -0.2971
  171SAPE   H8X19409   4.123   5.943   7.650  0.4099 -0.3032  0.5802
  171SAPE   H8Y19410   4.093   6.108   7.706  1.1776  1.5306 -0.1615
  171SAPE   C3919411   4.261   6.012   7.804 -0.5281  1.2916 -0.3661
  171SAPE   H9X19412   4.316   6.107   7.822 -0.3732  1.6419 -2.4510
  171SAPE   H9Y19413   4.326   5.924   7.786 -2.9165 -0.1208 -2.7740
  171SAPE  C31019414   4.189   5.991   7.940 -0.1974  0.2191 -0.0633
  171SAPE  H10X19415   4.118   5.911   7.911  2.1199 -2.0845  0.3064
  171SAPE  H10Y19416   4.131   6.083   7.962 -0.1973  0.3905 -0.7559
  171SAPE  C31119417   4.274   5.955   8.061  0.4215  0.5211 -0.0796
  171SAPE  H11X19418   4.354   6.030   8.081  2.1683 -1.0722 -0.7774
  171SAPE  H11Y19419   4.326   5.861   8.033 -3.5215 -1.3409 -1.9694
  171SAPE  C31219420   4.189   5.923   8.184  0.4560 -0.5357 -0.4999
  171SAPE  H12X19421   4.098   5.865   8.159 -0.8280  1.2526 -0.1048
  171SAPE  H12Y19422   4.154   6.021   8.223 -1.0040 -1.7303  1.3801
  171SAPE  C31319423   4.275   5.853   8.288 -0.5245 -0.1162 -0.3138
  171SAPE  H13X19424   4.364   5.914   8.315 -0.7862 -0.3124  1.0371
  171SAPE  H13Y19425   4.321   5.762   8.245  1.1876  1.8138 -2.8937
  171SAPE  C31419426   4.199   5.827   8.421 -0.2482 -0.4157 -0.4240
  171SAPE  H14X19427   4.164   5.922   8.467  1.5662  0.0434  0.1022
  171SAPE  H14Y19428   4.273   5.781   8.490  0.1159  1.4676  0.4940
  171SAPE  C31519429   4.073   5.743   8.426 -0.4056  0.4303  0.3460
  171SAPE  H15X19430   4.091   5.650   8.368 -0.9784 -0.2563  1.2271
  171SAPE  H15Y19431   3.981   5.788   8.382  0.6858 -0.9171 -3.7469
  171SAPE  C31619432   4.037   5.713   8.578  0.0236  0.2602  0.4993
  171SAPE  H16X19433   4.019   5.808   8.632  0.5159 -0.2727  1.6611
  171SAPE  H16Y19434   4.130   5.671   8.624 -0.6420  0.5087  2.1351
  171SAPE  C31719435   3.905   5.633   8.591 -0.2185  0.4968  0.1467
  171SAPE  H17X19436   3.887   5.584   8.689  0.8549 -0.2415 -0.0093
  171SAPE  H17Y19437   3.906   5.540   8.530 -2.5290 -0.7248  1.8130
  171SAPE  C31819438   3.780   5.714   8.556 -0.8563  0.6789  1.0214
  171SAPE  H18X19439   3.753   5.726   8.449 -2.3240  0.8158  1.3813
  171SAPE  H18Y19440   3.783   5.820   8.590  0.3167  1.8446 -2.2718
  171SAPE  H18Z19441   3.693   5.664   8.603 -1.9308  0.8502 -0.7002
  172SAPE     N19442   4.571   5.231   6.185  0.5519 -0.3377 -0.5658
  172SAPE   HN119443   4.485   5.176   6.204  0.5669  0.3984  2.0025
  172SAPE   HN219444   4.540   5.328   6.162 -4.6917 -0.8383  2.5718
  172SAPE   HN319445   4.626   5.187   6.109 -1.1874 -1.3857 -1.2725
  172SAPE   C1219446   4.643   5.225   6.313 -0.2764 -0.0670  0.5956
  172SAPE  H12A19447   4.611   5.316   6.368 -1.9349  0.0019 -0.4096
  172SAPE  H12B19448   4.750   5.226   6.285 -0.7419 -1.8490 -1.5048
  172SAPE   C1119449   4.589   5.105   6.389  0.2369 -0.4031 -0.4505
  172SAPE  H11A19450   4.481   5.121   6.407  0.3208 -0.4685  0.1053
  172SAPE  H11B19451   4.637   5.097   6.489 -1.2591 -1.5221  0.2138
  172SAPE     P19452   4.573   4.845   6.367  0.3344  0.2894 -0.3294
  172SAPE   O1319453   4.430   4.837   6.373  0.1613 -0.3535 -0.3369
  172SAPE   O1419454   4.637   4.745   6.277 -0.0078 -0.7903 -0.5151
  172SAPE   O1219455   4.608   4.985   6.313  0.0815 -0.5494  0.1246
  172SAPE   O1119456   4.639   4.841   6.511 -0.5879  0.1056 -0.4114
  172SAPE    C119457   4.563   4.828   6.631 -0.3502 -0.3894  0.6098
  172SAPE    HA19458   4.455   4.838   6.609 -0.2072  0.4165  0.2335
  172SAPE    HB19459   4.580   4.726   6.672  2.2533 -1.3219 -2.3937
  172SAPE    C219460   4.601   4.941   6.738 -0.2180 -0.8227  1.0284
  172SAPE    HS19461   4.593   5.048   6.708 -1.2732 -0.8332  1.2339
  172SAPE   O2119462   4.736   4.917   6.785 -0.2399 -0.6312  0.6625
  172SAPE   C2119463   4.785   5.014   6.864 -0.7549  0.5588  0.4970
  172SAPE   O2219464   4.731   5.122   6.883  0.2879  0.0437 -0.0088
  172SAPE   C2219465   4.917   4.976   6.923  0.3106  0.5557 -0.2246
  172SAPE   H2R19466   4.947   4.870   6.910  0.8294  0.7484 -0.5904
  172SAPE   H2S19467   4.986   5.055   6.888 -1.4455  1.4949 -1.7856
  172SAPE    C319468   4.506   4.933   6.860  0.5111 -0.2979 -0.7561
  172SAPE    HX19469   4.531   5.007   6.940 -2.1912 -0.6974  0.5871
  172SAPE    HY19470   4.513   4.830   6.899 -2.8169 -0.7277 -0.9950
  172SAPE   O3119471   4.366   4.958   6.826 -0.4266 -0.2720 -0.1166
  172SAPE   C3119472   4.282   4.881   6.888 -0.3301  0.1632 -0.5248
  172SAPE   O3219473   4.312   4.800   6.975  0.4181  0.2978 -0.4405
  172SAPE   C3219474   4.135   4.907   6.852 -0.4792  0.4314 -0.0443
  172SAPE   H2X19475   4.118   4.902   6.743 -0.6326 -0.6329  0.0165
  172SAPE   H2Y19476   4.110   5.014   6.868 -0.1338  0.8257 -1.9103
  172SAPE   C2319477   4.906   4.980   7.082 -0.2823 -0.4168  0.4750
  172SAPE   H3R19478   4.833   4.904   7.115 -0.2749 -0.9750 -0.7686
  172SAPE   H3S19479   4.872   5.077   7.125  0.3598 -0.3196  0.7884
  172SAPE   C2419480   5.048   4.962   7.147  0.1632 -0.1146  0.5103
  172SAPE   H4R19481   5.089   4.862   7.122 -0.1559  0.0865 -0.8966
  172SAPE   H4S19482   5.044   4.966   7.258 -0.4186 -0.5487  0.5128
  172SAPE   C2519483   5.138   5.079   7.117 -0.0177  0.0845 -0.2727
  172SAPE   H5R19484   5.114   5.172   7.171 -1.7702 -0.2449 -0.4216
  172SAPE   C2619485   5.242   5.075   7.023 -0.3322  0.1888  0.0488
  172SAPE   H6R19486   5.298   5.168   7.009  0.2567 -0.0867  0.5500
  172SAPE   C2719487   5.291   4.952   6.942  0.2946 -0.2072  0.2457
  172SAPE   H7R19488   5.209   4.914   6.878 -0.1246  0.2193  0.5201
  172SAPE   H7S19489   5.302   4.874   7.020  2.9906  2.3172  2.6389
  172SAPE   C2819490   5.425   4.965   6.873  0.2579  0.3182  0.5789
  172SAPE   H8R19491   5.415   4.977   6.764  0.1061 -1.8747  0.3155
  172SAPE   C2919492   5.546   4.965   6.930 -0.2251  0.0959  0.1276
  172SAPE   H9R19493   5.628   4.973   6.856 -0.8773  0.8346 -0.5440
  172SAPE  C21019494   5.581   4.945   7.076  0.3674  0.4334 -0.4005
  172SAPE  H10R19495   5.515   5.014   7.134  1.6920  0.2910  1.3530
  172SAPE  H10S19496   5.683   4.985   7.095  0.8519 -0.6357 -0.6841
  172SAPE  C21119497   5.574   4.806   7.134 -0.9867  0.5757  0.1116
  172SAPE  H11R19498   5.537   4.731   7.063 -0.0140  0.1207  0.0694
  172SAPE  C21219499   5.614   4.766   7.254 -0.1691 -0.1358 -0.2039
  172SAPE  H12R19500   5.607   4.662   7.288  2.8412 -0.2396  0.3706
  172SAPE  C21319501   5.670   4.852   7.363  0.9060 -0.5933 -0.3742
  172SAPE  H13R19502   5.634   4.807   7.458 -4.1769  3.0890 -0.1369
  172SAPE  H13S19503   5.625   4.952   7.345  1.1819 -0.4504 -0.2733
  172SAPE  C21419504   5.818   4.878   7.363  0.5441  0.2820  0.4474
  172SAPE  H14R19505   5.850   4.873   7.258 -2.3470  1.0904 -0.5415
  172SAPE  C21519506   5.904   4.882   7.469  0.6743 -0.5571 -0.6847
  172SAPE  H15R19507   6.009   4.904   7.446  1.1300 -0.5865  1.1963
  172SAPE  C21619508   5.866   4.881   7.613  0.2581  0.1864  0.6224
  172SAPE  H16R19509   5.773   4.820   7.620 -1.4392  2.2548 -1.9913
  172SAPE  H16S19510   5.850   4.985   7.648  0.4275  0.7365 -0.8841
  172SAPE  C21719511   5.983   4.813   7.698 -0.0846  0.2986 -0.2804
  172SAPE  H17R19512   6.085   4.851   7.677  0.6526 -0.4760  1.6649
  172SAPE  H17S19513   5.974   4.703   7.685  0.2614 -0.0332  1.9897
  172SAPE  C21819514   5.969   4.865   7.843 -0.1815 -0.6413 -0.3995
  172SAPE  H18R19515   5.886   4.803   7.885  0.4858 -2.1385 -1.1933
  172SAPE  H18S19516   5.956   4.975   7.850  0.8277 -0.5478  0.0650
  172SAPE  C21919517   6.085   4.829   7.947  0.3499 -0.2820  0.4189
  172SAPE  H19R19518   6.151   4.918   7.945 -1.2431  0.9879 -2.7031
  172SAPE  H19S19519   6.147   4.745   7.910 -1.1640 -0.8336 -1.0194
  172SAPE  C22019520   6.032   4.790   8.083  0.3199 -0.3674 -0.1341
  172SAPE  H20R19521   5.988   4.688   8.084 -0.7395  0.0769 -0.2792
  172SAPE  H20S19522   5.952   4.859   8.116  0.9381  0.2317  0.1632
  172SAPE  H20T19523   6.114   4.811   8.156 -0.7553  0.8329  0.7814
  172SAPE   C3319524   4.039   4.797   6.910  0.3274 -0.4913 -0.0093
  172SAPE   H3X19525   4.059   4.698   6.866  1.3074  0.2814 -1.3673
  172SAPE   H3Y19526   3.937   4.817   6.871  0.3449  2.9567  1.3511
  172SAPE   C3419527   4.017   4.799   7.065  0.1785  0.1332 -0.8804
  172SAPE   H4X19528   3.972   4.894   7.100 -0.2311 -0.4669  0.2494
  172SAPE   H4Y19529   4.116   4.789   7.115  0.4901 -1.3575 -1.7274
  172SAPE   C3519530   3.936   4.673   7.103  0.1126  0.1363 -1.1967
  172SAPE   H5X19531   3.966   4.583   7.045  1.6937  0.3706 -0.7712
  172SAPE   H5Y19532   3.827   4.686   7.085 -0.6794  2.2428  3.5896
  172SAPE   C3619533   3.963   4.641   7.250  0.1416 -0.5108 -0.1829
  172SAPE   H6X19534   4.073   4.632   7.267  0.0954 -2.0546 -0.5754
  172SAPE   H6Y19535   3.917   4.542   7.269 -2.1350  0.8772  2.3349
  172SAPE   C3719536   3.896   4.733   7.349  0.3259 -0.7352  0.8700
  172SAPE   H7X19537   3.787   4.731   7.330  0.3395 -0.6792  0.7817
  172SAPE   H7Y19538   3.940   4.835   7.334 -1.7605  0.1247  0.3047
  172SAPE   C3819539   3.925   4.691   7.487 -0.0082  0.2824  0.0519
  172SAPE   H8X19540   4.026   4.726   7.517  0.0470  1.8147 -1.7572
  172SAPE   H8Y19541   3.923   4.580   7.499  0.1014  0.4654  2.2498
  172SAPE   C3919542   3.826   4.742   7.590  0.0207 -0.2390  0.1517
  172SAPE   H9X19543   3.736   4.677   7.594  0.9122 -1.5893 -0.8113
  172SAPE   H9Y19544   3.787   4.845   7.573 -1.7368 -0.6366  1.4729
  172SAPE  C31019545   3.888   4.738   7.730  0.8461  0.2041 -0.2683
  172SAPE  H10X19546   3.976   4.806   7.735  2.4304 -1.8025  2.1678
  172SAPE  H10Y19547   3.932   4.640   7.758 -0.2225  0.0185  0.9038
  172SAPE  C31119548   3.775   4.782   7.826  0.1727 -0.6138  0.1850
  172SAPE  H11X19549   3.695   4.708   7.849  0.7510 -0.4754  2.9810
  172SAPE  H11Y19550   3.730   4.877   7.792  1.9410  0.7112  1.3760
  172SAPE  C31219551   3.830   4.810   7.970 -0.1856 -0.0064  0.2048
  172SAPE  H12X19552   3.765   4.871   8.037  0.6776 -0.9634  1.9913
  172SAPE  H12Y19553   3.924   4.869   7.965  0.1032 -0.3989  0.8564
  172SAPE  C31319554   3.867   4.680   8.035  0.5900  0.2939 -0.6452
  172SAPE  H13X19555   3.942   4.620   7.979 -0.2777 -0.4818 -1.0051
  172SAPE  H13Y19556   3.777   4.615   8.035 -0.1481  1.2721 -1.5601
  172SAPE  C31419557   3.910   4.700   8.186  0.8546 -0.0005 -0.3335
  172SAPE  H14X19558   3.891   4.602   8.235 -0.4672  0.6241  0.4588
  172SAPE  H14Y19559   3.843   4.778   8.227  0.6659  2.8953 -5.4012
  172SAPE  C31519560   4.054   4.755   8.206 -0.0692  0.6487  1.1754
  172SAPE  H15X19561   4.060   4.854   8.156  1.1177 -0.2551 -0.5386
  172SAPE  H15Y19562   4.129   4.685   8.163 -0.9024 -0.2564  1.1632
  172SAPE  C31619563   4.097   4.758   8.354 -1.3141  0.7521 -0.1363
  172SAPE  H16X19564   4.068   4.658   8.392  0.8932 -0.2453 -0.9004
  172SAPE  H16Y19565   4.053   4.831   8.426  1.7589  2.2025  0.4365
  172SAPE  C31719566   4.249   4.755   8.365 -0.5592 -0.2716 -0.2324
  172SAPE  H17X19567   4.284   4.654   8.336  1.7971 -0.3175  2.3153
  172SAPE  H17Y19568   4.259   4.765   8.476 -0.6948 -1.3406 -0.1134
  172SAPE  C31819569   4.322   4.857   8.286  0.1767  0.2070 -0.1780
  172SAPE  H18X19570   4.341   4.957   8.331  0.6305  0.0145  0.0699
  172SAPE  H18Y19571   4.283   4.870   8.183  3.1434 -1.3435 -1.6108
  172SAPE  H18Z19572   4.428   4.825   8.275  0.3672  0.8532 -0.2597
  173SOPE     N19573   1.280   1.976  11.036  0.2852 -0.1324 -0.0592
  173SOPE   HN119574   1.322   1.996  11.129 -0.3071  0.6140  0.0582
  173SOPE   HN219575   1.316   1.880  11.016  0.2039 -0.1153 -0.2876
  173SOPE   HN319576   1.320   2.036  10.962 -0.0765 -0.0880 -0.2212
  173SOPE   C1219577   1.133   1.973  11.042  0.0414 -0.0060 -0.8924
  173SOPE  H12A19578   1.103   2.076  11.072  0.4217  0.2052 -1.2386
  173SOPE  H12B19579   1.100   1.905  11.124 -2.4011  2.0380 -0.0429
  173SOPE   C1119580   1.075   1.949  10.907 -0.1990  0.6284 -0.2779
  173SOPE  H11A19581   1.116   2.029  10.841 -0.6499  0.8592 -0.2894
  173SOPE  H11B19582   0.965   1.967  10.917 -0.2083 -0.4728  2.2973
  173SOPE     P19583   1.016   1.686  10.887  0.3755 -0.4387  0.2225
  173SOPE   O1319584   0.927   1.709  11.003  0.3381  0.2545  0.4942
  173SOPE   O1419585   1.095   1.564  10.889 -0.1342  0.4094  0.1561
  173SOPE   O1219586   1.118   1.815  10.870  0.4557 -0.1947  0.0244
  173SOPE   O1119587   0.943   1.685  10.746  0.1316 -0.6404  0.0107
  173SOPE    C119588   0.981   1.786  10.650  0.3570  0.1937  0.3449
  173SOPE    HA19589   1.091   1.793  10.633  0.0661 -1.1468 -2.7167
  173SOPE    HB19590   0.945   1.886  10.682 -0.7785 -0.2571  0.5305
  173SOPE    C219591   0.917   1.759  10.506  0.4917 -0.1071  0.4795
  173SOPE    HS19592   0.983   1.818  10.438  2.0470 -0.7244  1.3938
  173SOPE   O2119593   0.777   1.795  10.509 -0.8185  0.2348  0.2797
  173SOPE   C2119594   0.732   1.835  10.383  0.2863  0.7240 -0.9789
  173SOPE   O2219595   0.808   1.874  10.302  0.4214 -0.0682  0.1844
  173SOPE   C2219596   0.585   1.813  10.367 -0.1393  0.2495  0.2868
  173SOPE   H2R19597   0.545   1.855  10.462  1.9352 -1.1086  1.8705
  173SOPE   H2S19598   0.575   1.702  10.363 -1.9835  0.3925  0.3076
  173SOPE    C319599   0.927   1.611  10.476 -0.3958  0.4116 -0.1832
  173SOPE    HX19600   0.870   1.546  10.547  0.5500 -2.3322 -1.8133
  173SOPE    HY19601   1.026   1.564  10.493 -1.1355 -0.6658  1.4894
  173SOPE   O3119602   0.873   1.578  10.348  0.8269  0.3406  0.0189
  173SOPE   C3119603   0.951   1.584  10.242  0.7492  0.0845  0.4399
  173SOPE   O3219604   1.066   1.607  10.240  0.1377 -0.3446 -0.5165
  173SOPE   C3219605   0.868   1.544  10.117 -0.1857  0.0100  0.4659
  173SOPE   H2X19606   0.767   1.529  10.161 -0.1786  0.0777  0.5067
  173SOPE   H2Y19607   0.906   1.449  10.075  2.7257  2.0871 -2.0046
  173SOPE   C2319608   0.508   1.864  10.239  0.3573 -0.2583  0.0829
  173SOPE   H3R19609   0.548   1.964  10.210  1.2303  0.4876  3.4043
  173SOPE   H3S19610   0.404   1.884  10.274  1.0211  1.9255  1.0181
  173SOPE   C2419611   0.503   1.767  10.122  0.0912  0.4881  0.2046
  173SOPE   H4R19612   0.603   1.738  10.084  0.2031 -0.0824  0.9088
  173SOPE   H4S19613   0.448   1.671  10.135 -3.0893  1.6718 -2.9935
  173SOPE   C2519614   0.419   1.826  10.008 -0.0194  0.1520 -0.2361
  173SOPE   H5R19615   0.324   1.862  10.052 -0.7727  0.8656 -2.3369
  173SOPE   H5S19616   0.485   1.909   9.974 -0.6421  0.4395 -0.7643
  173SOPE   C2619617   0.393   1.730   9.886  0.4463  0.0597  0.2329
  173SOPE   H6R19618   0.484   1.679   9.849 -0.4352 -0.7096 -0.9718
  173SOPE   H6S19619   0.318   1.654   9.918 -0.4008  0.6271 -0.3444
  173SOPE   C2719620   0.337   1.813   9.762 -0.6298  0.0301  0.2726
  173SOPE   H7R19621   0.244   1.859   9.804 -0.2515 -0.9535  2.2866
  173SOPE   H7S19622   0.412   1.892   9.741 -0.0165 -0.5594  0.2330
  173SOPE   C2819623   0.332   1.730   9.631  0.4637  0.0507 -0.7748
  173SOPE   H8R19624   0.290   1.790   9.549 -2.5485 -0.4831  0.2672
  173SOPE   H8S19625   0.438   1.709   9.605  0.3609  0.0386 -1.1847
  173SOPE   C2919626   0.259   1.602   9.641  0.5473 -1.0415  0.3102
  173SOPE   H9119627   0.304   1.514   9.689  0.0120 -2.3402 -1.4944
  173SOPE  C21019628   0.139   1.579   9.584  1.2426 -0.6961  0.0651
  173SOPE  H10119629   0.093   1.484   9.613  2.3086 -0.8753  1.2436
  173SOPE  C21119630   0.065   1.686   9.503  0.2940 -1.0425 -0.8356
  173SOPE  H11R19631   0.087   1.791   9.533  1.6610 -1.4801 -0.1896
  173SOPE  H11S19632  -0.043   1.675   9.522  0.2865  1.8712  1.4934
  173SOPE  C21219633   0.104   1.680   9.355  0.3806 -0.3766  0.8882
  173SOPE  H12R19634   0.106   1.572   9.327 -0.2234  0.3292 -2.2326
  173SOPE  H12S19635   0.199   1.735   9.338  1.1056 -1.4793  1.2758
  173SOPE  C21319636  -0.014   1.740   9.269 -0.4862 -0.2591  0.4355
  173SOPE  H13R19637  -0.025   1.845   9.301 -0.5957  0.4398 -1.7475
  173SOPE  H13S19638  -0.108   1.686   9.294 -0.4709 -1.1137 -1.2095
  173SOPE  C21419639   0.004   1.729   9.112  0.0265 -0.1180 -0.8631
  173SOPE  H14R19640   0.085   1.653   9.106  0.5603  0.5262 -2.0770
  173SOPE  H14S19641   0.060   1.821   9.086  0.2298 -0.5304 -1.9269
  173SOPE  C21519642  -0.119   1.705   9.017 -0.4334 -0.1661 -0.0725
  173SOPE  H15R19643  -0.189   1.791   9.012 -0.9252 -0.5748 -0.3564
  173SOPE  H15S19644  -0.183   1.621   9.051 -0.3104 -0.7632 -1.2370
  173SOPE  C21619645  -0.074   1.685   8.878  0.5896 -0.1135  0.5185
  173SOPE  H16R19646  -0.036   1.778   8.831  2.3007 -1.0799 -0.0833
  173SOPE  H16S19647  -0.153   1.643   8.813  0.5310 -0.0587  0.5532
  173SOPE  C21719648   0.036   1.577   8.867  0.3965  0.2701 -0.0726
  173SOPE  H17R19649   0.007   1.488   8.926 -0.0663  0.4553 -0.0146
  173SOPE  H17S19650   0.136   1.611   8.902  0.2498  0.9376 -0.2892
  173SOPE  C21819651   0.055   1.534   8.720  0.2232  0.7065 -0.0470
  173SOPE  H18R19652  -0.036   1.497   8.668  2.1069 -0.2501 -2.8982
  173SOPE  H18S19653   0.134   1.457   8.715  0.2447  0.6305  1.1173
  173SOPE  H18T19654   0.109   1.619   8.673  0.1666  1.2402  0.8210
  173SOPE   C3319655   0.872   1.651  10.012  0.5847  0.1292 -0.2940
  173SOPE   H3X19656   0.981   1.672   9.997  0.4049  0.5715 -1.0592
  173SOPE   H3Y19657   0.825   1.743  10.051 -1.7592 -1.8901  1.9544
  173SOPE   C3419658   0.812   1.606   9.881 -0.4061  0.4220  0.6822
  173SOPE   H4X19659   0.704   1.583   9.891 -0.8678  2.3844  0.4992
  173SOPE   H4Y19660   0.852   1.512   9.836  0.4035  0.4841  1.2398
  173SOPE   C3519661   0.815   1.715   9.768 -0.3891  0.0880  0.1816
  173SOPE   H5X19662   0.916   1.726   9.724 -1.1848 -0.7908 -2.0823
  173SOPE   H5Y19663   0.778   1.809   9.813  1.3327  0.0934  1.6916
  173SOPE   C3619664   0.734   1.682   9.644 -0.4717 -0.0499  0.9095
  173SOPE   H6X19665   0.642   1.633   9.684  0.1570 -1.0377  1.1769
  173SOPE   H6Y19666   0.779   1.602   9.583  0.7216  0.2591  1.3622
  173SOPE   C3719667   0.709   1.811   9.554  0.2508 -0.1974  0.4479
  173SOPE   H7X19668   0.804   1.862   9.528 -0.0100 -0.0300 -0.2027
  173SOPE   H7Y19669   0.646   1.881   9.612 -0.8089 -0.9715  0.2504
  173SOPE   C3819670   0.653   1.778   9.415  0.2266 -0.1918  0.3213
  173SOPE   H8X19671   0.562   1.715   9.424 -0.4902  0.5775 -1.1408
  173SOPE   H8Y19672   0.723   1.713   9.358  0.8345  1.0463 -0.3679
  173SOPE   C3919673   0.613   1.901   9.337  0.6098 -0.1624 -0.1103
  173SOPE   H9X19674   0.701   1.969   9.334  0.8142 -0.2097  2.4047
  173SOPE   H9Y19675   0.539   1.958   9.398  0.9438  3.4564 -2.7590
  173SOPE  C31019676   0.561   1.882   9.195 -0.1112  0.1830  0.2205
  173SOPE  H10X19677   0.480   1.806   9.190  0.3672 -0.2456 -3.5213
  173SOPE  H10Y19678   0.645   1.843   9.134 -1.1297 -0.5662 -0.7453
  173SOPE  C31119679   0.512   2.018   9.132 -0.0414  0.1323 -0.4987
  173SOPE  H11X19680   0.600   2.085   9.135 -0.2098  0.3274  1.1981
  173SOPE  H11Y19681   0.434   2.055   9.202  0.3767  1.4754 -0.7155
  173SOPE  C31219682   0.460   2.003   8.989  0.6463 -0.1432 -0.1089
  173SOPE  H12X19683   0.547   1.961   8.933 -0.0970  0.0564 -1.4385
  173SOPE  H12Y19684   0.439   2.105   8.952  0.6547  0.2246  0.8703
  173SOPE  C31319685   0.329   1.923   8.970  0.4899  0.2139 -0.0193
  173SOPE  H13X19686   0.246   1.968   9.027  1.8268  1.7006  0.8295
  173SOPE  H13Y19687   0.341   1.824   9.019  1.8553  0.9104  1.1357
  173SOPE  C31419688   0.302   1.914   8.821 -0.0592  0.3959  0.6889
  173SOPE  H14X19689   0.324   2.008   8.766  0.4676 -0.2895 -0.3128
  173SOPE  H14Y19690   0.196   1.887   8.805 -0.6094  2.4524  0.6638
  173SOPE  C31519691   0.383   1.796   8.763  0.7017  0.1326 -0.5189
  173SOPE  H15X19692   0.355   1.701   8.813  1.8407 -0.6916 -1.3944
  173SOPE  H15Y19693   0.492   1.808   8.784  0.6518 -1.9925  1.3994
  173SOPE  C31619694   0.352   1.778   8.613  0.0334  0.1541 -0.0056
  173SOPE  H16X19695   0.421   1.851   8.564 -0.7480  2.3968  2.0235
  173SOPE  H16Y19696   0.247   1.812   8.594 -1.6804 -3.5157  1.8677
  173SOPE  C31719697   0.368   1.633   8.560  0.0033  0.2815  0.9692
  173SOPE  H17X19698   0.374   1.633   8.449  0.0909  1.4999  0.9607
  173SOPE  H17Y19699   0.273   1.579   8.579 -0.2580  0.3946  0.0217
  173SOPE  C31819700   0.485   1.558   8.614 -0.8048  0.6109 -0.3782
  173SOPE  H18X19701   0.488   1.536   8.723 -1.7829  0.8514 -0.2967
  173SOPE  H18Y19702   0.578   1.618   8.601 -0.0730 -0.6791 -1.3306
  173SOPE  H18Z19703   0.502   1.466   8.554  0.9309  0.3015  0.5216
  174SOPE     N19704   0.375   2.458  10.688  0.1308  0.5214  0.0968
  174SOPE   HN119705   0.425   2.455  10.597 -2.4522  0.7931 -1.4547
  174SOPE   HN219706   0.404   2.541  10.743  1.0210  1.3196 -1.5044
  174SOPE   HN319707   0.399   2.376  10.747  1.2443  1.4288  0.9297
  174SOPE   C1219708   0.230   2.462  10.652  0.0998 -0.6423  0.2114
  174SOPE  H12A19709   0.211   2.383  10.575  0.3256  0.4766 -1.0389
  174SOPE  H12B19710   0.206   2.562  10.611 -0.1017  0.0678  1.9913
  174SOPE   C1119711   0.133   2.440  10.769 -0.2366 -0.1493  0.1966
  174SOPE  H11A19712   0.033   2.452  10.723  0.8478  0.8604 -2.0888
  174SOPE  H11B19713   0.139   2.521  10.845 -1.6736  1.4015 -1.2473
  174SOPE     P19714   0.105   2.172  10.770  0.4511 -0.3017  0.2062
  174SOPE   O1319715   0.117   2.065  10.876 -0.1850  0.2284 -0.1101
  174SOPE   O1419716   0.147   2.134  10.631  0.3339  0.2044 -0.4099
  174SOPE   O1219717   0.154   2.312  10.825  0.3177 -0.0561 -0.1141
  174SOPE   O1119718  -0.052   2.203  10.763 -0.0525  0.2778 -0.0585
  174SOPE    C119719  -0.145   2.113  10.692  0.0959 -0.1627 -0.3412
  174SOPE    HA19720  -0.231   2.097  10.760  0.4739  0.6468  0.3474
  174SOPE    HB19721  -0.100   2.013  10.673 -1.7314 -0.6996 -2.2062
  174SOPE    C219722  -0.201   2.177  10.566  0.1384  0.5808  0.2870
  174SOPE    HS19723  -0.275   2.106  10.522 -1.2213  0.3674  2.7132
  174SOPE   O2119724  -0.103   2.198  10.463  0.1182 -0.4613  0.1841
  174SOPE   C2119725  -0.051   2.091  10.412 -0.0855 -0.5302 -0.5867
  174SOPE   O2219726  -0.073   1.975  10.445 -0.3496  0.5878  0.4319
  174SOPE   C2219727   0.068   2.126  10.322 -0.1585  0.3678  0.4417
  174SOPE   H2R19728   0.163   2.116  10.380  0.8596  1.9981 -0.8421
  174SOPE   H2S19729   0.059   2.234  10.294 -0.2297  1.2890  3.6285
  174SOPE    C319730  -0.275   2.308  10.591 -1.1371 -0.8400  0.6490
  174SOPE    HX19731  -0.186   2.373  10.604 -1.3270 -0.6279  0.9045
  174SOPE    HY19732  -0.332   2.300  10.685 -3.7365 -0.4232 -0.7977
  174SOPE   O3119733  -0.359   2.342  10.478  0.0353  0.7429 -0.0842
  174SOPE   C3119734  -0.418   2.461  10.516  0.2309 -0.3060  0.5502
  174SOPE   O3219735  -0.407   2.513  10.623 -0.1872 -0.1883  0.3052
  174SOPE   C3219736  -0.514   2.501  10.405  0.3051  0.6706 -0.4967
  174SOPE   H2X19737  -0.445   2.557  10.338 -1.0805  1.4839 -1.2874
  174SOPE   H2Y19738  -0.590   2.562  10.458 -0.0970 -0.2324 -0.0110
  174SOPE   C2319739   0.087   2.049  10.189 -0.4502  0.6698  0.0631
  174SOPE   H3R19740   0.081   1.942  10.216 -0.6513  1.2115  2.4150
  174SOPE   H3S19741   0.190   2.074  10.155 -0.2783 -1.2408 -0.9398
  174SOPE   C2419742  -0.019   2.094  10.084 -0.3182 -0.2099 -0.0358
  174SOPE   H4R19743  -0.120   2.061  10.114 -0.5420  1.9680  1.8462
  174SOPE   H4S19744  -0.026   2.203  10.064 -1.8556 -0.6572 -2.2668
  174SOPE   C2519745   0.016   2.028   9.950 -0.1118  0.8658  0.1507
  174SOPE   H5R19746   0.120   2.056   9.922  1.0138 -2.9214  0.0385
  174SOPE   H5S19747   0.005   1.918   9.962 -0.5238  0.7354 -1.1916
  174SOPE   C2619748  -0.086   2.060   9.839 -0.2919 -0.7944 -0.0932
  174SOPE   H6R19749  -0.179   2.004   9.858 -1.4305  1.5134  1.6386
  174SOPE   H6S19750  -0.108   2.169   9.834  1.1351 -0.4844 -0.2898
  174SOPE   C2719751  -0.016   2.042   9.701  0.1659  0.5189 -0.2984
  174SOPE   H7R19752   0.082   2.093   9.690  0.2766  0.3166 -0.2524
  174SOPE   H7S19753   0.021   1.938   9.696  3.0537  1.3270  1.4867
  174SOPE   C2819754  -0.101   2.077   9.583 -0.5436  0.1540  0.8839
  174SOPE   H8R19755  -0.074   2.025   9.489 -0.2191 -1.7311  1.9814
  174SOPE   H8S19756  -0.201   2.034   9.600 -0.5300 -0.6363 -0.8245
  174SOPE   C2919757  -0.109   2.228   9.571 -0.7878 -0.0126  0.4600
  174SOPE   H9119758  -0.054   2.281   9.649  0.9829  0.7022 -1.1710
  174SOPE  C21019759  -0.155   2.305   9.468  0.2181 -0.3418 -0.5746
  174SOPE  H10119760  -0.155   2.415   9.475 -2.7968 -0.2591 -0.5381
  174SOPE  C21119761  -0.217   2.252   9.344 -0.4383 -0.0248  0.8659
  174SOPE  H11R19762  -0.182   2.151   9.315 -0.0913 -0.1665  1.7581
  174SOPE  H11S19763  -0.183   2.311   9.256  0.2643 -1.2702  0.2782
  174SOPE  C21219764  -0.367   2.246   9.339  0.5617 -0.6496  0.0398
  174SOPE  H12R19765  -0.419   2.337   9.376 -0.8176 -1.7271  0.8601
  174SOPE  H12S19766  -0.397   2.159   9.399 -1.1554  0.9220  1.5888
  174SOPE  C21319767  -0.417   2.202   9.196  0.4352 -0.3539  0.0433
  174SOPE  H13R19768  -0.361   2.111   9.166  2.0991  0.4886  0.5003
  174SOPE  H13S19769  -0.390   2.284   9.127 -0.8507  1.3317  1.4280
  174SOPE  C21419770  -0.570   2.187   9.197 -0.2594  0.0805  0.1621
  174SOPE  H14R19771  -0.617   2.281   9.161  1.5851  0.5427 -1.1953
  174SOPE  H14S19772  -0.612   2.172   9.298  0.7174  0.5711  0.6460
  174SOPE  C21519773  -0.622   2.067   9.114  0.0714 -0.5328  0.1896
  174SOPE  H15R19774  -0.733   2.058   9.118 -0.2906  2.8348  1.3694
  174SOPE  H15S19775  -0.584   1.977   9.166 -2.3118 -1.5769  0.2459
  174SOPE  C21619776  -0.567   2.065   8.966  0.0269  0.6794  0.0949
  174SOPE  H16R19777  -0.594   1.971   8.914 -1.9871  1.3225 -0.1296
  174SOPE  H16S19778  -0.456   2.069   8.972  0.0040  2.7129 -0.2055
  174SOPE  C21719779  -0.632   2.168   8.878 -0.9591 -0.1602  0.0618
  174SOPE  H17R19780  -0.588   2.268   8.898 -1.4939 -0.1711  1.3905
  174SOPE  H17S19781  -0.743   2.175   8.888 -0.9307  1.2852 -0.3857
  174SOPE  C21819782  -0.595   2.131   8.734 -0.0882 -0.5763  0.1346
  174SOPE  H18R19783  -0.490   2.161   8.713  0.2781 -0.4207  2.0027
  174SOPE  H18S19784  -0.672   2.191   8.681 -0.8879 -0.1079  1.7517
  174SOPE  H18T19785  -0.607   2.026   8.700 -0.0012 -0.2209 -1.0565
  174SOPE   C3319786  -0.583   2.384  10.339  0.3290  0.2689  0.7426
  174SOPE   H3X19787  -0.592   2.311  10.421  1.4009 -0.3998  0.2877
  174SOPE   H3Y19788  -0.523   2.351  10.251 -0.0058 -0.3818  0.7585
  174SOPE   C3419789  -0.724   2.420  10.294  0.2426 -0.5913 -0.3565
  174SOPE   H4X19790  -0.776   2.457  10.385  0.6807  1.0690 -0.7361
  174SOPE   H4Y19791  -0.771   2.332  10.247  0.7097 -0.3362 -1.3279
  174SOPE   C3519792  -0.725   2.535  10.196 -0.0647 -0.2146 -0.0029
  174SOPE   H5X19793  -0.656   2.515  10.111  1.3272  1.3612  0.6900
  174SOPE   H5Y19794  -0.684   2.627  10.243  3.6324 -1.3824 -0.6512
  174SOPE   C3619795  -0.866   2.568  10.145 -0.3364 -0.0066  0.3262
  174SOPE   H6X19796  -0.876   2.665  10.091 -2.2516 -1.0126 -1.2645
  174SOPE   H6Y19797  -0.933   2.574  10.234  1.2843  3.7205  1.5238
  174SOPE   C3719798  -0.937   2.463  10.050 -0.1702 -0.1551 -0.0716
  174SOPE   H7X19799  -1.030   2.513  10.013 -1.5116 -1.7060  1.0674
  174SOPE   H7Y19800  -0.966   2.378  10.114  1.8724  0.0928  1.2664
  174SOPE   C3819801  -0.866   2.411   9.924 -0.4333 -0.4414  0.4743
  174SOPE   H8X19802  -0.929   2.339   9.868  2.3311 -1.6634 -1.2632
  174SOPE   H8Y19803  -0.786   2.335   9.938 -0.5791 -1.1770 -2.1899
  174SOPE   C3919804  -0.819   2.516   9.824  0.4467  0.3536  0.3273
  174SOPE   H9X19805  -0.730   2.573   9.859  0.5528 -1.1515  2.7262
  174SOPE   H9Y19806  -0.897   2.591   9.803  0.2367  0.6375  1.9731
  174SOPE  C31019807  -0.779   2.448   9.691  0.1697 -0.2615  0.2920
  174SOPE  H10X19808  -0.700   2.371   9.709  0.4117 -0.2181 -0.5263
  174SOPE  H10Y19809  -0.730   2.521   9.622  1.4765  0.9248  2.3838
  174SOPE  C31119810  -0.894   2.385   9.607  0.0839 -0.0151 -0.0922
  174SOPE  H11X19811  -0.974   2.460   9.584 -1.1889 -0.8431  1.4317
  174SOPE  H11Y19812  -0.941   2.305   9.668  1.6360 -1.0026 -0.1487
  174SOPE  C31219813  -0.845   2.323   9.478 -0.4969 -0.1279 -0.6022
  174SOPE  H12X19814  -0.795   2.227   9.500 -1.9309 -0.6280  0.6499
  174SOPE  H12Y19815  -0.774   2.390   9.425 -0.4910 -0.2478 -0.7462
  174SOPE  C31319816  -0.962   2.307   9.378 -0.8482 -0.1009 -0.4010
  174SOPE  H13X19817  -1.012   2.406   9.367 -1.1026 -0.0857  0.8027
  174SOPE  H13Y19818  -1.035   2.244   9.433 -0.6227  1.0275  1.2744
  174SOPE  C31419819  -0.917   2.246   9.241  0.2274 -0.0452 -1.1856
  174SOPE  H14X19820  -0.841   2.174   9.278  0.4467  1.2352  1.0166
  174SOPE  H14Y19821  -0.854   2.316   9.182  0.7412  0.1742 -0.3806
  174SOPE  C31519822  -1.032   2.184   9.157 -0.0038  0.5243 -0.5054
  174SOPE  H15X19823  -1.123   2.248   9.162  0.3518  1.3280 -2.8251
  174SOPE  H15Y19824  -1.061   2.085   9.198  1.7601  0.2762  0.1909
  174SOPE  C31619825  -0.995   2.171   9.010  0.3813 -0.2347  0.6424
  174SOPE  H16X19826  -0.922   2.087   9.007 -0.6956 -1.2371 -3.0090
  174SOPE  H16Y19827  -0.942   2.261   8.972  2.4105 -2.0616 -1.1039
  174SOPE  C31719828  -1.115   2.152   8.914  0.4542 -0.1239  0.4582
  174SOPE  H17X19829  -1.083   2.158   8.807 -1.4862  2.9677 -0.0797
  174SOPE  H17Y19830  -1.192   2.232   8.921 -0.1082 -0.4843 -1.1955
  174SOPE  C31819831  -1.176   2.018   8.937 -0.0481  0.0467 -0.8756
  174SOPE  H18X19832  -1.241   1.998   8.849  0.3928 -0.0693 -1.1767
  174SOPE  H18Y19833  -1.237   2.020   9.030 -0.8356 -1.0960 -1.3556
  174SOPE  H18Z19834  -1.104   1.934   8.932  0.7489  0.5859  0.7595
  175SOPE     N19835   6.514   3.540  10.865  1.1939  0.1615  0.2860
  175SOPE   HN119836   6.567   3.506  10.783  2.6048  0.1318  1.1890
  175SOPE   HN219837   6.417   3.503  10.867 -0.3087  3.6285 -0.5442
  175SOPE   HN319838   6.506   3.643  10.850  0.8035 -0.2803 -3.6122
  175SOPE   C1219839   6.607   3.508  10.976 -0.3328  0.0984 -0.2247
  175SOPE  H12A19840   6.596   3.398  10.994 -1.2567  0.2363  0.1256
  175SOPE  H12B19841   6.577   3.564  11.067  0.8562  1.0662 -0.4019
  175SOPE   C1119842   6.749   3.537  10.936 -1.2182  0.3382  0.4990
  175SOPE  H11A19843   6.819   3.499  11.013  1.1413 -1.8471 -2.5131
  175SOPE  H11B19844   6.766   3.647  10.938  0.1045  0.1804 -0.6860
  175SOPE     P19845   6.936   3.514  10.757  0.2557 -0.1014  0.2981
  175SOPE   O1319846   6.980   3.429  10.645 -0.3860 -0.0286  0.3896
  175SOPE   O1419847   7.020   3.515  10.874  0.3412 -0.5571  0.2898
  175SOPE   O1219848   6.789   3.478  10.805 -0.0525  0.1895  0.1577
  175SOPE   O1119849   6.925   3.666  10.714  0.0508 -0.0876  0.3448
  175SOPE    C119850   6.809   3.732  10.675 -0.1682  0.2222 -0.3526
  175SOPE    HA19851   6.783   3.802  10.757  1.5032 -0.8405  1.1408
  175SOPE    HB19852   6.724   3.660  10.672 -0.2258  0.2973 -2.3234
  175SOPE    C219853   6.840   3.794  10.542  0.0530  0.5169 -0.8925
  175SOPE    HS19854   6.757   3.866  10.525 -0.6995 -0.4523 -1.4472
  175SOPE   O2119855   6.865   3.697  10.436  0.2887  0.3211 -0.0649
  175SOPE   C2119856   6.750   3.627  10.406  0.2350 -0.2376  0.3649
  175SOPE   O2219857   6.638   3.677  10.414 -0.2007  0.4545 -0.2244
  175SOPE   C2219858   6.786   3.485  10.369 -0.2554  0.9363 -0.4419
  175SOPE   H2R19859   6.786   3.413  10.454 -0.1861  1.7795  0.2880
  175SOPE   H2S19860   6.894   3.478  10.344 -0.5007 -1.2034 -1.1037
  175SOPE    C319861   6.967   3.887  10.550  0.7698  0.1182  0.6685
  175SOPE    HX19862   7.048   3.813  10.530  0.3055 -0.0294 -0.7120
  175SOPE    HY19863   6.963   3.940  10.648 -1.5684  1.3033  0.0024
  175SOPE   O3119864   6.965   3.978  10.435 -0.1410 -0.2071  0.2786
  175SOPE   C3119865   7.039   4.081  10.446 -0.0062 -0.2607  0.1051
  175SOPE   O3219866   7.115   4.100  10.543  0.3690 -0.0821 -0.7321
  175SOPE   C3219867   7.034   4.166  10.323 -0.0649 -0.1327 -0.2141
  175SOPE   H2X19868   6.935   4.178  10.275 -0.0715 -0.3850 -0.2656
  175SOPE   H2Y19869   7.092   4.115  10.244 -0.4627 -0.5331 -0.2521
  175SOPE   C2319870   6.728   3.428  10.242  0.7077  0.3455  0.2258
  175SOPE   H3R19871   6.733   3.498  10.156 -1.3641 -0.4983 -0.6529
  175SOPE   H3S19872   6.620   3.402  10.253  0.5618  0.7251 -0.2682
  175SOPE   C2419873   6.800   3.301  10.186 -0.1642  0.1453  0.9098
  175SOPE   H4R19874   6.898   3.331  10.141 -0.1934  0.0930  0.8093
  175SOPE   H4S19875   6.803   3.226  10.268 -0.5042 -0.3578  0.4687
  175SOPE   C2519876   6.717   3.234  10.071  0.6256 -0.2247  0.4562
  175SOPE   H5R19877   6.779   3.142  10.062  0.8756  0.0807 -1.2310
  175SOPE   H5S19878   6.612   3.208  10.094 -0.1414 -0.6699 -2.9933
  175SOPE   C2619879   6.708   3.320   9.944 -0.2565 -0.5380 -0.3550
  175SOPE   H6R19880   6.643   3.410   9.958  1.1684  0.4191  0.3945
  175SOPE   H6S19881   6.808   3.361   9.920 -0.9787  0.6157 -1.6146
  175SOPE   C2719882   6.656   3.239   9.818 -0.3761 -0.4024 -0.0322
  175SOPE   H7R19883   6.680   3.296   9.726  1.3814 -1.0910 -0.0346
  175SOPE   H7S19884   6.722   3.151   9.802 -0.9170 -0.5261 -1.7702
  175SOPE   C2819885   6.511   3.194   9.824 -0.1778  0.1596 -0.1017
  175SOPE   H8R19886   6.510   3.102   9.761 -2.2689  0.3108 -0.3678
  175SOPE   H8S19887   6.506   3.137   9.919  4.5483 -1.7728 -0.7244
  175SOPE   C2919888   6.405   3.295   9.794 -0.1662 -0.1870 -0.3464
  175SOPE   H9119889   6.395   3.369   9.875  0.3572 -0.6321  0.1304
  175SOPE  C21019890   6.322   3.301   9.689 -0.1987 -0.2470  0.1992
  175SOPE  H10119891   6.256   3.388   9.681  2.1161  1.9284  2.7939
  175SOPE  C21119892   6.312   3.203   9.574 -0.0022 -0.0140  0.5064
  175SOPE  H11R19893   6.203   3.183   9.564  0.3187 -2.5218  1.3331
  175SOPE  H11S19894   6.362   3.109   9.606  0.0260  0.4494  1.9173
  175SOPE  C21219895   6.380   3.251   9.449  0.1139 -0.1949  0.4434
  175SOPE  H12R19896   6.487   3.270   9.473  0.4639  1.7554 -2.1625
  175SOPE  H12S19897   6.345   3.350   9.415  3.2128  1.0130  0.3927
  175SOPE  C21319898   6.370   3.155   9.326 -0.3771  0.6689  0.3364
  175SOPE  H13R19899   6.261   3.142   9.311  0.1309 -2.6451 -1.4524
  175SOPE  H13S19900   6.408   3.054   9.353 -1.6846  0.5437  1.8675
  175SOPE  C21419901   6.452   3.196   9.199 -0.1270 -1.0576  0.1440
  175SOPE  H14R19902   6.560   3.218   9.214 -0.6260  1.0618  0.9403
  175SOPE  H14S19903   6.407   3.279   9.140  1.8050 -0.2876 -0.3344
  175SOPE  C21519904   6.452   3.077   9.098 -0.6370 -0.1313 -0.4137
  175SOPE  H15R19905   6.350   3.042   9.075 -1.1012  1.5770 -1.1230
  175SOPE  H15S19906   6.513   2.995   9.142 -0.6740  0.5962  1.0515
  175SOPE  C21619907   6.501   3.119   8.959 -0.6649  0.1099  0.3981
  175SOPE  H16R19908   6.601   3.168   8.968 -1.4425  1.6844  0.7340
  175SOPE  H16S19909   6.426   3.193   8.922 -3.8437 -3.5963 -1.2195
  175SOPE  C21719910   6.514   2.999   8.863  0.0841  0.8361 -0.6172
  175SOPE  H17R19911   6.418   2.945   8.869  1.4238 -1.5996  0.2878
  175SOPE  H17S19912   6.593   2.931   8.901  2.1484  1.1278 -3.9539
  175SOPE  C21819913   6.532   3.029   8.719  0.5112  0.0848  0.0570
  175SOPE  H18R19914   6.452   3.100   8.689  1.3529  0.9385 -0.2211
  175SOPE  H18S19915   6.528   2.943   8.650  0.1686  1.0943 -1.2197
  175SOPE  H18T19916   6.629   3.076   8.691  0.2627  0.1453 -0.7115
  175SOPE   C3319917   7.094   4.306  10.332 -0.4297  0.3213  0.4187
  175SOPE   H3X19918   7.192   4.293  10.382  0.0990  1.3069 -0.3292
  175SOPE   H3Y19919   7.030   4.371  10.395  0.7992 -0.8303  3.0040
  175SOPE   C3419920   7.121   4.371  10.191 -1.0974  0.4390  0.0280
  175SOPE   H4X19921   7.032   4.355  10.126 -2.0530 -0.0885  1.4186
  175SOPE   H4Y19922   7.207   4.318  10.145 -0.9688  0.3726  0.3436
  175SOPE   C3519923   7.148   4.518  10.186  0.0719 -0.2019  0.2790
  175SOPE   H5X19924   7.189   4.555  10.282  0.6076 -1.3832  0.5184
  175SOPE   H5Y19925   7.053   4.575  10.194 -0.2530 -0.6413 -0.3438
  175SOPE   C3619926   7.239   4.569  10.075 -0.1322  0.5413  0.8488
  175SOPE   H6X19927   7.344   4.549  10.108  0.6129  0.5682 -1.3235
  175SOPE   H6Y19928   7.236   4.680  10.079 -1.4028  0.7370 -2.3101
  175SOPE   C3719929   7.212   4.501   9.940  0.8233 -0.6364 -0.0696
  175SOPE   H7X19930   7.104   4.501   9.915  0.9014 -1.0522 -0.4200
  175SOPE   H7Y19931   7.244   4.394   9.938  0.4107 -0.7507 -1.0787
  175SOPE   C3819932   7.275   4.575   9.819  0.6416  0.0357 -0.2621
  175SOPE   H8X19933   7.385   4.574   9.835  0.4440 -0.0010  1.2589
  175SOPE   H8Y19934   7.237   4.679   9.830 -1.8447 -0.8915  0.7332
  175SOPE   C3919935   7.225   4.521   9.680  0.1995  0.6835 -0.4431
  175SOPE   H9X19936   7.114   4.522   9.683  0.2159  0.5226  0.7284
  175SOPE   H9Y19937   7.259   4.416   9.665 -0.6597  0.4744 -0.9620
  175SOPE  C31019938   7.285   4.598   9.562  0.3530  0.3059 -0.5635
  175SOPE  H10X19939   7.396   4.595   9.563  0.3810  1.0447 -0.6279
  175SOPE  H10Y19940   7.262   4.707   9.569 -1.9571 -0.1118 -0.9083
  175SOPE  C31119941   7.247   4.537   9.422 -0.6023  0.1199 -0.1241
  175SOPE  H11X19942   7.139   4.511   9.433 -0.5816  0.4080  0.8714
  175SOPE  H11Y19943   7.297   4.439   9.409 -0.3329 -0.1815  2.5570
  175SOPE  C31219944   7.296   4.617   9.300  0.2402 -1.2717  0.3204
  175SOPE  H12X19945   7.405   4.631   9.311 -0.2051  1.6398  2.3575
  175SOPE  H12Y19946   7.253   4.720   9.304  1.1644 -0.6439 -3.0579
  175SOPE  C31319947   7.260   4.556   9.164  0.2215 -0.2399 -0.6665
  175SOPE  H13X19948   7.151   4.532   9.163  0.0681  0.1333  1.4248
  175SOPE  H13Y19949   7.317   4.461   9.168 -0.5280 -0.6719  0.4875
  175SOPE  C31419950   7.306   4.643   9.041  0.2824  0.0844 -0.1548
  175SOPE  H14X19951   7.417   4.631   9.033  0.1821 -0.4397 -0.8560
  175SOPE  H14Y19952   7.284   4.751   9.050 -2.1262 -0.1959 -1.9125
  175SOPE  C31519953   7.231   4.598   8.911 -0.0374  0.4134  0.6109
  175SOPE  H15X19954   7.123   4.623   8.903  0.5607  2.5890 -2.6481
  175SOPE  H15Y19955   7.234   4.487   8.905 -0.1522  0.4613 -0.5494
  175SOPE  C31619956   7.288   4.653   8.783 -0.6394  0.8055 -0.0087
  175SOPE  H16X19957   7.285   4.764   8.779 -0.3370  0.7982 -2.8815
  175SOPE  H16Y19958   7.217   4.611   8.709 -1.5635 -0.1057  1.3421
  175SOPE  C31719959   7.438   4.611   8.772 -0.3845  0.3312  0.1779
  175SOPE  H17X19960   7.462   4.521   8.833  2.9942 -0.8335 -2.5968
  175SOPE  H17Y19961   7.506   4.695   8.798  0.6171 -0.2944 -0.3678
  175SOPE  C31819962   7.468   4.572   8.624 -0.2111  0.2181 -0.8528
  175SOPE  H18X19963   7.459   4.654   8.550 -1.3679 -0.6710 -1.7439
  175SOPE  H18Y19964   7.399   4.488   8.601 -2.1465  1.7079 -0.7235
  175SOPE  H18Z19965   7.562   4.520   8.598 -0.7862  0.0473 -2.7305
  176SOPE     N19966   1.729   2.762  11.169 -0.4962  0.0374  0.1665
  176SOPE   HN119967   1.677   2.819  11.239 -1.2080 -2.6177  1.9748
  176SOPE   HN219968   1.649   2.715  11.121 -0.1573 -0.5768  0.1973
  176SOPE   HN319969   1.794   2.701  11.223 -1.2073 -1.2329 -0.3717
  176SOPE   C1219970   1.820   2.818  11.061  0.3093  0.1982  0.1115
  176SOPE  H12A19971   1.892   2.880  11.119 -0.0124 -2.1915  3.3878
  176SOPE  H12B19972   1.765   2.879  10.986  0.9948  0.0172 -0.5505
  176SOPE   C1119973   1.898   2.706  10.992 -0.0140  0.4842  0.1727
  176SOPE  H11A19974   1.971   2.754  10.924  0.6739 -0.8260 -0.0592
  176SOPE  H11B19975   1.826   2.647  10.930 -0.4921  2.8616 -1.6709
  176SOPE     P19976   2.106   2.560  11.075 -0.1747  0.2357  0.5566
  176SOPE   O1319977   2.121   2.460  11.179  0.8270  0.2657 -0.1184
  176SOPE   O1419978   2.203   2.672  11.081 -0.5492 -0.2129  0.3299
  176SOPE   O1219979   1.954   2.616  11.083  0.0882  0.9294  0.0063
  176SOPE   O1119980   2.118   2.495  10.933 -0.2711  0.0490 -0.2238
  176SOPE    C119981   2.022   2.402  10.876 -0.3569 -0.8163 -0.2141
  176SOPE    HA19982   1.930   2.452  10.840 -0.4564 -1.4097 -0.7919
  176SOPE    HB19983   1.996   2.337  10.962 -0.1029 -1.6533 -0.7523
  176SOPE    C219984   2.082   2.320  10.758  0.1529  0.0449 -0.3166
  176SOPE    HS19985   2.189   2.320  10.787  0.6132 -1.7334 -1.8319
  176SOPE   O2119986   2.074   2.402  10.639  0.0369 -0.0610 -0.0528
  176SOPE   C2119987   2.163   2.355  10.554  0.5121 -0.5074  0.1421
  176SOPE   O2219988   2.240   2.263  10.569  0.6619  0.0348  0.0937
  176SOPE   C2219989   2.164   2.447  10.441  0.0355  0.0641  0.6246
  176SOPE   H2R19990   2.267   2.485  10.426 -0.0141 -0.3819 -1.0866
  176SOPE   H2S19991   2.104   2.538  10.464 -0.0070  0.1987 -0.0060
  176SOPE    C319992   2.026   2.172  10.740  0.3320  0.1959  0.1433
  176SOPE    HX19993   2.032   2.120  10.838 -0.2110 -1.0138 -0.4349
  176SOPE    HY19994   2.089   2.117  10.667  1.5113  1.3210  0.2754
  176SOPE   O3119995   1.883   2.181  10.713 -0.0564 -0.0870  0.6401
  176SOPE   C3119996   1.853   2.162  10.584  0.1477 -0.6809  0.6018
  176SOPE   O3219997   1.928   2.129  10.496  0.3866 -0.2848  0.0663
  176SOPE   C3219998   1.697   2.176  10.569 -0.0420 -0.5156  0.3984
  176SOPE   H2X19999   1.670   2.224  10.665  1.2053 -0.6505  0.8280
  176SOPE   H2Y20000   1.651   2.074  10.575  1.8189 -1.4113  0.0792
  176SOPE   C2320001   2.123   2.386  10.304 -0.4787 -0.1038 -0.2198
  176SOPE   H3R20002   2.019   2.346  10.305 -0.3891 -0.4040 -1.2592
  176SOPE   H3S20003   2.186   2.301  10.271 -0.4960  0.3098 -1.3564
  176SOPE   C2420004   2.134   2.494  10.204  0.4789  0.2028  0.0942
  176SOPE   H4R20005   2.071   2.577  10.242 -2.4831 -1.1620 -1.4596
  176SOPE   H4S20006   2.242   2.515  10.190  1.0137  0.3695  3.6427
  176SOPE   C2520007   2.048   2.453  10.080 -0.1340  0.0686  0.2788
  176SOPE   H5R20008   2.080   2.355  10.038  0.7259  0.2253  0.5429
  176SOPE   H5S20009   1.942   2.443  10.110 -0.2199 -1.7167 -0.5085
  176SOPE   C2620010   2.045   2.555   9.970 -0.3629  0.4608  0.3591
  176SOPE   H6R20011   2.009   2.656  10.001  0.1313  2.0479 -3.6343
  176SOPE   H6S20012   2.141   2.559   9.915 -0.1474 -1.0738  0.5908
  176SOPE   C2720013   1.943   2.510   9.866  0.4245 -0.2199  0.1452
  176SOPE   H7R20014   1.974   2.408   9.834  0.1311 -0.1111 -0.4877
  176SOPE   H7S20015   1.840   2.506   9.906  0.6020  1.6475  0.9006
  176SOPE   C2820016   1.928   2.595   9.736  0.0270  0.0665  0.3722
  176SOPE   H8R20017   2.025   2.597   9.682 -1.3480 -0.4721 -2.2856
  176SOPE   H8S20018   1.860   2.541   9.667  1.6621 -2.7092  0.8071
  176SOPE   C2920019   1.871   2.736   9.760  0.5071  0.3267 -1.0972
  176SOPE   H9120020   1.837   2.750   9.864 -0.3160 -0.7923 -1.1903
  176SOPE  C21020021   1.871   2.840   9.671 -0.1926 -0.3772 -0.7640
  176SOPE  H10120022   1.817   2.933   9.693 -0.1970 -0.3726 -0.7938
  176SOPE  C21120023   1.920   2.817   9.531 -0.1938  0.2187 -0.0049
  176SOPE  H11R20024   2.019   2.767   9.529  0.6230  1.8019 -2.2271
  176SOPE  H11S20025   1.936   2.918   9.489 -0.6673  0.8924  1.3842
  176SOPE  C21220026   1.835   2.731   9.431  0.4263  0.2310 -0.0230
  176SOPE  H12R20027   1.730   2.767   9.435  0.9618  1.8568  0.0755
  176SOPE  H12S20028   1.848   2.631   9.478 -1.0955  0.5947  1.2561
  176SOPE  C21320029   1.893   2.731   9.289  0.1962  0.2487  0.5814
  176SOPE  H13R20030   1.838   2.648   9.239  1.5399 -0.3621  0.0588
  176SOPE  H13S20031   2.000   2.702   9.288  0.4931  1.2624 -1.2551
  176SOPE  C21420032   1.861   2.859   9.203  0.8807  0.2149  0.0501
  176SOPE  H14R20033   1.937   2.937   9.223  0.5788  0.2924  0.9683
  176SOPE  H14S20034   1.765   2.903   9.238  1.9366  1.0696  2.0624
  176SOPE  C21520035   1.854   2.834   9.053 -0.0978  0.2374 -0.4091
  176SOPE  H15R20036   1.770   2.763   9.039  0.2120 -0.0521 -0.8147
  176SOPE  H15S20037   1.952   2.787   9.033 -0.3931 -0.3506 -0.4791
  176SOPE  C21620038   1.846   2.962   8.965  0.4909 -0.5541 -0.5809
  176SOPE  H16R20039   1.854   2.939   8.857 -0.4296  1.4254 -1.0931
  176SOPE  H16S20040   1.937   3.024   8.983  1.5227 -1.7183 -1.5527
  176SOPE  C21720041   1.713   3.042   8.997 -0.6853  0.1928  0.0872
  176SOPE  H17R20042   1.716   3.073   9.103  0.7027  0.4084  0.0167
  176SOPE  H17S20043   1.637   2.966   8.971 -0.3315  0.5163 -2.1057
  176SOPE  C21820044   1.704   3.169   8.914 -0.1328  0.0624 -0.2827
  176SOPE  H18R20045   1.703   3.142   8.806 -0.7605  0.7065 -0.4505
  176SOPE  H18S20046   1.794   3.232   8.933 -0.7619  0.4590  1.7059
  176SOPE  H18T20047   1.615   3.234   8.932  0.7964  1.5057 -0.6718
  176SOPE   C3320048   1.638   2.245  10.447  0.0423  0.2513  0.7773
  176SOPE   H3X20049   1.664   2.351  10.464  1.7381 -0.3625  2.4446
  176SOPE   H3Y20050   1.528   2.236  10.442  0.1098  0.0389 -2.1872
  176SOPE   C3420051   1.677   2.187  10.313 -0.3614  0.6736  0.5472
  176SOPE   H4X20052   1.658   2.080  10.292  1.1750  0.8513 -2.2744
  176SOPE   H4Y20053   1.786   2.203  10.298 -0.9369  3.1590 -2.0662
  176SOPE   C3520054   1.622   2.251  10.175 -0.0315 -0.8534  0.4996
  176SOPE   H5X20055   1.637   2.361  10.181  4.7846 -1.2975  0.7593
  176SOPE   H5Y20056   1.514   2.233  10.158 -0.0534 -0.2495 -0.0130
  176SOPE   C3620057   1.678   2.194  10.046  0.0314  0.1261 -0.7609
  176SOPE   H6X20058   1.650   2.086  10.046 -2.6762  0.7428  0.0055
  176SOPE   H6Y20059   1.788   2.203  10.038  0.0303  0.1618 -0.7351
  176SOPE   C3720060   1.626   2.277   9.918  0.5726 -0.3559 -0.7788
  176SOPE   H7X20061   1.634   2.385   9.943  0.4706 -0.3649 -0.7060
  176SOPE   H7Y20062   1.519   2.251   9.903 -0.0184  0.5649  1.4319
  176SOPE   C3820063   1.704   2.244   9.793  0.8988  0.2798  0.3213
  176SOPE   H8X20064   1.746   2.141   9.796  0.5503  0.1482  1.4986
  176SOPE   H8Y20065   1.795   2.306   9.786  1.3197 -0.4239 -0.5678
  176SOPE   C3920066   1.626   2.261   9.657 -0.0566 -0.3018 -0.5882
  176SOPE   H9X20067   1.699   2.266   9.573 -0.1106  0.1493 -0.6110
  176SOPE   H9Y20068   1.598   2.368   9.660  3.3162  0.6805  2.0456
  176SOPE  C31020069   1.510   2.160   9.629  0.5218  0.1038 -0.2814
  176SOPE  H10X20070   1.430   2.180   9.704 -0.4092 -1.5020 -0.8143
  176SOPE  H10Y20071   1.561   2.062   9.641 -0.9046 -0.4412  1.9578
  176SOPE  C31120072   1.474   2.173   9.487  0.5582  0.0061  0.2030
  176SOPE  H11X20073   1.428   2.081   9.447  1.2367  0.1214 -0.8819
  176SOPE  H11Y20074   1.566   2.185   9.426  1.0066  1.7354  1.1573
  176SOPE  C31220075   1.403   2.309   9.457  1.0076  0.8618  0.1792
  176SOPE  H12X20076   1.411   2.387   9.535 -2.1674  0.7063  0.7700
  176SOPE  H12Y20077   1.294   2.291   9.448  1.0579  1.4536 -2.5668
  176SOPE  C31320078   1.444   2.380   9.326  0.2407 -0.5673  0.3432
  176SOPE  H13X20079   1.550   2.397   9.354  0.6605 -1.8397 -0.3995
  176SOPE  H13Y20080   1.387   2.474   9.316 -1.6112 -1.6738 -0.0055
  176SOPE  C31420081   1.449   2.289   9.197  0.8993  0.2253  0.2489
  176SOPE  H14X20082   1.348   2.256   9.163  1.7428 -1.4732 -0.7646
  176SOPE  H14Y20083   1.501   2.191   9.213 -1.4666 -1.3569 -1.1087
  176SOPE  C31520084   1.515   2.356   9.076 -0.3912  0.2704 -0.1520
  176SOPE  H15X20085   1.617   2.379   9.115 -0.9054 -0.2903  1.5796
  176SOPE  H15Y20086   1.460   2.446   9.041 -2.7614 -0.1560  2.1675
  176SOPE  C31620087   1.524   2.262   8.955 -0.2926 -0.9944  0.3727
  176SOPE  H16X20088   1.518   2.340   8.876  1.0219  1.0499  2.1955
  176SOPE  H16Y20089   1.432   2.199   8.949 -1.1199  0.0005  1.9397
  176SOPE  C31720090   1.641   2.172   8.957 -0.2002  0.2942  0.1714
  176SOPE  H17X20091   1.614   2.105   8.873 -0.0555 -1.2417  1.2923
  176SOPE  H17Y20092   1.654   2.105   9.045  0.5139  0.1941 -0.0082
  176SOPE  C31820093   1.777   2.233   8.930  0.6786  0.2273 -0.2173
  176SOPE  H18X20094   1.830   2.254   9.026 -1.2828  2.0640  0.5498
  176SOPE  H18Y20095   1.767   2.329   8.874 -0.1746 -1.1849 -2.6070
  176SOPE  H18Z20096   1.838   2.171   8.861  0.9554  1.2533 -0.9247
  177SOPE     N20097   1.796   1.359  11.173  0.1356 -0.2191  0.1143
  177SOPE   HN120098   1.898   1.344  11.164 -0.0440 -0.3875 -2.0745
  177SOPE   HN220099   1.789   1.450  11.223  0.2791  0.4724 -1.0952
  177SOPE   HN320100   1.751   1.282  11.226  0.7840 -1.6044 -1.2768
  177SOPE   C1220101   1.720   1.360  11.042  0.3063  0.1564  0.2066
  177SOPE  H12A20102   1.792   1.393  10.964 -1.1414 -0.1681 -1.3171
  177SOPE  H12B20103   1.631   1.427  11.046 -0.9607 -1.3769 -0.8647
  177SOPE   C1120104   1.677   1.216  10.999  0.1747  0.2302 -0.1803
  177SOPE  H11A20105   1.764   1.149  11.019  2.3064  1.1006 -5.1630
  177SOPE  H11B20106   1.666   1.233  10.890  2.3186 -1.0282 -0.6556
  177SOPE     P20107   1.427   1.120  11.010  0.1906  0.3430  0.4325
  177SOPE   O1320108   1.321   1.224  11.002 -0.2304  0.1141  0.3090
  177SOPE   O1420109   1.400   0.996  11.082  0.1023 -0.2832 -0.3769
  177SOPE   O1220110   1.562   1.187  11.074 -0.2346  0.8597  0.5392
  177SOPE   O1120111   1.467   1.078  10.862  0.3077  0.0018  0.4516
  177SOPE    C120112   1.432   1.144  10.749 -0.5250  0.4027  0.5029
  177SOPE    HA20113   1.524   1.193  10.710  0.8124  0.1241  3.1320
  177SOPE    HB20114   1.357   1.225  10.762 -1.2042  0.1649 -1.5179
  177SOPE    C220115   1.386   1.045  10.636 -0.2645 -0.6436 -0.5979
  177SOPE    HS20116   1.477   0.986  10.612  0.9128  1.3018 -1.1340
  177SOPE   O2120117   1.334   1.110  10.517  0.9545  0.4164  0.1963
  177SOPE   C2120118   1.414   1.190  10.446 -0.2971  0.3714  0.1604
  177SOPE   O2220119   1.531   1.216  10.471  0.6182  0.3934 -0.5258
  177SOPE   C2220120   1.328   1.243  10.329  0.1168 -0.5661 -0.5436
  177SOPE   H2R20121   1.239   1.298  10.367  0.6332 -0.8274  1.1374
  177SOPE   H2S20122   1.291   1.155  10.273  1.1629 -0.4524 -1.4526
  177SOPE    C320123   1.279   0.941  10.698  0.1440 -0.3357  0.7546
  177SOPE    HX20124   1.186   0.991  10.733  1.4567 -0.5801  5.3604
  177SOPE    HY20125   1.316   0.902  10.796  0.4509 -0.7754  0.4685
  177SOPE   O3120126   1.255   0.834  10.602 -0.3497  0.2732  0.2119
  177SOPE   C3120127   1.165   0.867  10.516 -0.0853  0.0134 -0.4594
  177SOPE   O3220128   1.095   0.964  10.522  0.2929  0.3364 -0.0095
  177SOPE   C3220129   1.157   0.767  10.404  0.5135 -0.2326  0.1291
  177SOPE   H2X20130   1.127   0.670  10.449 -1.1992  0.8756  1.4905
  177SOPE   H2Y20131   1.259   0.752  10.362  0.9225 -0.1102  1.0437
  177SOPE   C2320132   1.405   1.342  10.234 -0.2803  0.1175 -0.1370
  177SOPE   H3R20133   1.495   1.285  10.203 -1.7411 -1.4204 -1.7947
  177SOPE   H3S20134   1.446   1.432  10.285 -0.2768  1.1985 -1.9558
  177SOPE   C2420135   1.333   1.381  10.100  0.0499 -1.0095 -0.8043
  177SOPE   H4R20136   1.314   1.295  10.032 -0.3018 -1.9536  0.4355
  177SOPE   H4S20137   1.227   1.404  10.127  1.0445 -0.0379  2.8775
  177SOPE   C2520138   1.397   1.512  10.035  0.2370 -0.3100  0.4911
  177SOPE   H5R20139   1.395   1.588  10.115 -1.8981  2.5820 -2.0659
  177SOPE   H5S20140   1.499   1.516   9.990 -0.7385  0.8019 -1.7874
  177SOPE   C2620141   1.317   1.562   9.911  0.3687  0.0786 -0.4640
  177SOPE   H6R20142   1.244   1.638   9.946  0.5900 -0.8858  2.3638
  177SOPE   H6S20143   1.385   1.600   9.832 -1.0441  0.0111 -1.7463
  177SOPE   C2720144   1.227   1.463   9.829 -0.1506 -0.4717  0.3004
  177SOPE   H7R20145   1.285   1.377   9.790  0.0179 -0.3564  0.2949
  177SOPE   H7S20146   1.138   1.426   9.884 -0.6956  1.0356  0.4715
  177SOPE   C2820147   1.163   1.538   9.711  0.2295  0.1239  0.3867
  177SOPE   H8R20148   1.083   1.474   9.668  0.5279 -0.1287  0.2004
  177SOPE   H8S20149   1.110   1.624   9.757 -2.3216 -1.6502  0.9878
  177SOPE   C2920150   1.269   1.584   9.606 -0.6379  1.0034 -0.2210
  177SOPE   H9120151   1.313   1.683   9.626 -2.4035  1.9067 -0.5783
  177SOPE  C21020152   1.306   1.527   9.491  0.4613  0.3650  0.3256
  177SOPE  H10120153   1.365   1.575   9.412 -0.4829  2.0739  0.6247
  177SOPE  C21120154   1.242   1.401   9.450  0.0943 -0.4057 -0.6821
  177SOPE  H11R20155   1.230   1.330   9.535  0.5407 -0.4061 -0.6169
  177SOPE  H11S20156   1.316   1.347   9.387  1.2684 -0.6108  0.8367
  177SOPE  C21220157   1.106   1.418   9.380  0.0195  0.6886 -0.4265
  177SOPE  H12R20158   1.034   1.454   9.456  0.2966 -1.1919  0.7939
  177SOPE  H12S20159   1.050   1.326   9.352 -1.3273  0.7542  1.8542
  177SOPE  C21320160   1.100   1.516   9.257 -0.0422  0.3588 -0.2144
  177SOPE  H13R20161   1.151   1.485   9.163 -0.9275 -1.0994 -0.2446
  177SOPE  H13S20162   1.149   1.610   9.290  0.5740  0.3033 -0.9424
  177SOPE  C21420163   0.958   1.554   9.218 -0.4170 -0.2544  0.8892
  177SOPE  H14R20164   0.896   1.566   9.310  0.6828  0.0132  1.6143
  177SOPE  H14S20165   0.905   1.474   9.163 -0.3326  0.1289  0.2302
  177SOPE  C21520166   0.958   1.669   9.109 -0.9226 -0.2961 -0.2967
  177SOPE  H15R20167   1.062   1.678   9.069 -0.7933  0.4470  0.1966
  177SOPE  H15S20168   0.942   1.767   9.159 -0.8681  0.5835 -1.9286
  177SOPE  C21620169   0.854   1.655   8.997  0.1286 -0.4862  0.4176
  177SOPE  H16R20170   0.751   1.663   9.038  0.6306  0.7480  1.4900
  177SOPE  H16S20171   0.889   1.566   8.940  2.1426  0.8583 -0.5652
  177SOPE  C21720172   0.858   1.771   8.891  0.2369 -0.0235  0.4059
  177SOPE  H17R20173   0.962   1.792   8.857 -0.5091 -0.1334 -2.1180
  177SOPE  H17S20174   0.816   1.858   8.947 -1.7344 -1.7145  1.6882
  177SOPE  C21820175   0.769   1.756   8.770  0.7610 -0.3350  0.5145
  177SOPE  H18R20176   0.811   1.682   8.699 -0.5286 -0.5948 -0.0142
  177SOPE  H18S20177   0.744   1.846   8.711  1.2756 -1.4425 -1.4776
  177SOPE  H18T20178   0.671   1.723   8.811  1.3723  0.7894  3.1060
  177SOPE   C3320179   1.062   0.802  10.290 -0.7315  0.6633  0.1450
  177SOPE   H3X20180   0.960   0.813  10.332 -0.0527  2.7018  1.4252
  177SOPE   H3Y20181   1.069   0.703  10.240 -0.8682  0.1998  1.0203
  177SOPE   C3420182   1.104   0.912  10.188 -0.2577  0.3336 -0.7415
  177SOPE   H4X20183   1.214   0.913  10.203 -0.2113 -0.3238 -1.0422
  177SOPE   H4Y20184   1.069   1.013  10.219 -3.7308 -1.5596  2.3236
  177SOPE   C3520185   1.053   0.886  10.048 -0.3871 -0.2067  0.3435
  177SOPE   H5X20186   0.942   0.881  10.041 -0.3645  0.7940 -1.6176
  177SOPE   H5Y20187   1.083   0.783  10.017 -0.0032  0.3986 -1.4155
  177SOPE   C3620188   1.111   0.978   9.942  0.2303 -0.1784 -0.0899
  177SOPE   H6X20189   1.220   0.998   9.952  0.4260  0.9553 -3.3051
  177SOPE   H6Y20190   1.054   1.073   9.944 -0.6059 -0.6697  1.6606
  177SOPE   C3720191   1.081   0.905   9.805  0.2366  0.4427  0.2792
  177SOPE   H7X20192   0.971   0.887   9.810  0.3180 -0.0655  0.2374
  177SOPE   H7Y20193   1.125   0.805   9.790  0.4159  0.8604 -2.3745
  177SOPE   C3820194   1.128   0.993   9.692  0.1844  0.5670 -0.6844
  177SOPE   H8X20195   1.230   1.030   9.718  1.6790 -0.4277 -4.4541
  177SOPE   H8Y20196   1.075   1.091   9.691 -0.3687  0.2691 -1.0762
  177SOPE   C3920197   1.123   0.929   9.553 -0.2064  0.2192 -0.0659
  177SOPE   H9X20198   1.028   0.876   9.530  0.6748 -0.4709 -2.4415
  177SOPE   H9Y20199   1.193   0.843   9.543  0.8715  1.0545  0.1325
  177SOPE  C31020200   1.147   1.037   9.443 -1.0613 -0.5580  0.1744
  177SOPE  H10X20201   1.245   1.088   9.454 -1.8761  1.2686 -0.5057
  177SOPE  H10Y20202   1.073   1.118   9.460 -0.1702  1.1170 -3.0695
  177SOPE  C31120203   1.137   0.984   9.307 -0.1392  0.2344  0.3847
  177SOPE  H11X20204   1.034   0.945   9.299 -0.6905  1.9311 -1.7382
  177SOPE  H11Y20205   1.205   0.899   9.285 -2.3863 -1.9920  1.6035
  177SOPE  C31220206   1.140   1.079   9.188  0.5506  0.7277  0.0983
  177SOPE  H12X20207   1.245   1.107   9.167  0.9033  1.2759  2.4200
  177SOPE  H12Y20208   1.094   1.176   9.217  0.5328  0.6762  0.2438
  177SOPE  C31320209   1.071   1.033   9.063 -0.1439 -0.0619 -0.5266
  177SOPE  H13X20210   1.082   1.120   8.995  1.0543  0.7137  0.6235
  177SOPE  H13Y20211   0.963   1.017   9.082 -0.2349 -0.5609 -1.3831
  177SOPE  C31420212   1.130   0.909   8.995  0.4072  0.7151  0.2621
  177SOPE  H14X20213   1.110   0.820   9.058 -0.1184  1.6159  1.4001
  177SOPE  H14Y20214   1.240   0.913   8.982  0.3163 -1.0127 -1.4330
  177SOPE  C31520215   1.074   0.880   8.862  0.4757 -0.4598 -0.1625
  177SOPE  H15X20216   1.108   0.970   8.806 -0.1206 -1.4725 -2.2473
  177SOPE  H15Y20217   0.963   0.880   8.856  0.4707 -2.2135 -0.7664
  177SOPE  C31620218   1.122   0.758   8.794  0.3778 -0.8897 -0.1484
  177SOPE  H16X20219   1.089   0.677   8.863 -0.3424  0.4010  1.0718
  177SOPE  H16Y20220   1.228   0.771   8.764  0.5865 -1.0381  0.5075
  177SOPE  C31720221   1.046   0.730   8.663 -0.1956  0.2663  0.1915
  177SOPE  H17X20222   0.937   0.710   8.664 -0.1585  0.0584  0.1373
  177SOPE  H17Y20223   1.086   0.632   8.626  0.3989 -0.1934  1.9271
  177SOPE  C31820224   1.064   0.834   8.553 -0.7530 -0.5203 -0.6256
  177SOPE  H18X20225   1.169   0.866   8.531 -0.9459  0.5391 -0.1017
  177SOPE  H18Y20226   1.002   0.925   8.569 -0.3788 -0.6606  2.1756
  177SOPE  H18Z20227   1.027   0.791   8.458 -1.5336  1.0834 -1.0843
  178SOPE     N20228   5.919   1.727  10.941 -0.3639 -0.6370  0.6284
  178SOPE   HN120229   5.891   1.801  11.008  3.3178 -1.0633  2.9410
  178SOPE   HN220230   5.880   1.750  10.847 -1.6078  1.9653  1.6816
  178SOPE   HN320231   5.887   1.632  10.969  1.3638 -0.8647  1.9634
  178SOPE   C1220232   6.072   1.734  10.934  0.1301 -0.1703  0.5243
  178SOPE  H12A20233   6.099   1.724  11.041 -1.1426 -4.5194  0.6152
  178SOPE  H12B20234   6.106   1.836  10.906 -1.3235  0.1104 -0.2935
  178SOPE   C1120235   6.119   1.613  10.847  0.4549  0.6648 -0.5443
  178SOPE  H11A20236   6.223   1.589  10.877  0.5056  2.1226  0.5812
  178SOPE  H11B20237   6.118   1.651  10.743  0.9892 -0.9316 -1.1553
  178SOPE     P20238   6.086   1.352  10.834  0.1544 -0.0382  0.1845
  178SOPE   O1320239   5.969   1.259  10.831 -0.1679 -0.0600  0.3071
  178SOPE   O1420240   6.186   1.323  10.940  0.8452  0.5381 -0.4528
  178SOPE   O1220241   6.023   1.497  10.844  0.0114  0.0520 -0.1232
  178SOPE   O1120242   6.157   1.346  10.692  0.1852  1.2028  0.3474
  178SOPE    C120243   6.079   1.380  10.574  0.1038  0.3662  0.0651
  178SOPE    HA20244   5.999   1.456  10.582  1.8148  2.5061 -1.6610
  178SOPE    HB20245   6.024   1.293  10.533  0.0955 -0.0825  1.0048
  178SOPE    C220246   6.175   1.417  10.456 -0.6211 -0.3914 -0.1075
  178SOPE    HS20247   6.237   1.503  10.490 -1.7997 -0.0355  1.2409
  178SOPE   O2120248   6.098   1.444  10.342 -0.1348  0.0394 -0.0955
  178SOPE   C2120249   6.153   1.545  10.263  0.1247  0.3812 -0.2166
  178SOPE   O2220250   6.235   1.621  10.304  0.1871  0.2969  0.1420
  178SOPE   C2220251   6.092   1.545  10.126  0.1296 -0.9380  0.1042
  178SOPE   H2R20252   6.012   1.622  10.125  1.6245  0.6815 -0.3444
  178SOPE   H2S20253   6.044   1.448  10.101  1.3358 -1.7300  0.7647
  178SOPE    C320254   6.276   1.301  10.422 -0.0817 -0.5866 -0.6627
  178SOPE    HX20255   6.219   1.206  10.429  0.3437 -0.8342 -0.4714
  178SOPE    HY20256   6.347   1.289  10.506  0.0346  0.0911 -0.6600
  178SOPE   O3120257   6.335   1.317  10.293 -0.6303 -0.3289  0.2607
  178SOPE   C3120258   6.414   1.214  10.264 -0.4778  0.2024  0.5928
  178SOPE   O3220259   6.457   1.131  10.338  0.3978  0.4454  0.2133
  178SOPE   C3220260   6.453   1.231  10.117  0.8512 -0.5169 -0.1643
  178SOPE   H2X20261   6.543   1.170  10.093  1.3746  0.6745 -1.4043
  178SOPE   H2Y20262   6.477   1.338  10.097  1.1453 -0.5800 -0.1532
  178SOPE   C2320263   6.193   1.590  10.014 -0.4592  1.3107 -0.2499
  178SOPE   H3R20264   6.265   1.505  10.004 -1.2696  0.5255  0.4225
  178SOPE   H3S20265   6.252   1.675  10.053  0.8176  1.0080 -1.4167
  178SOPE   C2420266   6.123   1.605   9.882 -0.3050  0.3306 -0.0894
  178SOPE   H4R20267   6.034   1.671   9.897 -1.8531 -1.6074 -0.3916
  178SOPE   H4S20268   6.191   1.650   9.807 -0.8722  1.9981  0.3501
  178SOPE   C2520269   6.069   1.468   9.816  0.0051  0.9170 -0.1245
  178SOPE   H5R20270   6.139   1.385   9.842 -1.0662 -0.1668 -0.6153
  178SOPE   H5S20271   5.976   1.426   9.859  0.3774 -2.3220 -2.1277
  178SOPE   C2620272   6.043   1.469   9.663 -0.6951 -0.1647  0.0897
  178SOPE   H6R20273   5.955   1.534   9.646 -0.1483  0.4460 -0.4657
  178SOPE   H6S20274   6.121   1.528   9.610 -0.5641 -0.2851  0.1473
  178SOPE   C2720275   6.034   1.336   9.594 -0.2115  1.2594 -0.4090
  178SOPE   H7R20276   6.130   1.281   9.601  0.3381  2.3333  1.2935
  178SOPE   H7S20277   5.963   1.273   9.652 -1.1516  3.6132  1.1712
  178SOPE   C2820278   5.995   1.325   9.449  1.0884  0.0049 -0.6074
  178SOPE   H8R20279   6.065   1.385   9.388  0.3334  2.3346  0.6698
  178SOPE   H8S20280   6.006   1.217   9.422 -0.0954  0.3191 -2.5576
  178SOPE   C2920281   5.853   1.373   9.417 -0.2856  0.4344 -0.0276
  178SOPE   H9120282   5.791   1.432   9.486  2.4586  1.6519  1.5554
  178SOPE  C21020283   5.777   1.320   9.310 -0.0605 -0.1255 -0.0585
  178SOPE  H10120284   5.674   1.354   9.291 -0.5220  0.3206  2.7116
  178SOPE  C21120285   5.816   1.225   9.196 -0.1700 -0.5628 -1.0514
  178SOPE  H11R20286   5.803   1.128   9.248  2.3091 -0.0001  0.7778
  178SOPE  H11S20287   5.923   1.234   9.168  0.5547 -3.2479  0.4885
  178SOPE  C21220288   5.714   1.234   9.082 -0.1700 -0.4839  0.5004
  178SOPE  H12R20289   5.607   1.219   9.108 -0.3145 -0.0865  0.1540
  178SOPE  H12S20290   5.731   1.152   9.009  1.1259 -1.1067  1.4781
  178SOPE  C21320291   5.725   1.374   9.012 -0.5622 -0.0013  0.1509
  178SOPE  H13R20292   5.829   1.383   8.975  0.3247 -0.5821  2.3643
  178SOPE  H13S20293   5.708   1.450   9.090  0.1453  0.9255 -0.5791
  178SOPE  C21420294   5.624   1.381   8.893  0.2106 -0.0976 -0.7871
  178SOPE  H14R20295   5.523   1.366   8.936  0.0127 -0.2964 -1.3119
  178SOPE  H14S20296   5.657   1.299   8.826  1.1892 -1.1211  0.8695
  178SOPE  C21520297   5.625   1.527   8.833 -0.2213  0.2682  0.3777
  178SOPE  H15R20298   5.732   1.552   8.823 -0.2155  0.2537  0.4048
  178SOPE  H15S20299   5.578   1.598   8.904 -3.0167  1.0007 -1.9824
  178SOPE  C21620300   5.560   1.541   8.692 -0.6237 -0.1124 -0.1373
  178SOPE  H16R20301   5.456   1.504   8.694 -0.7171  0.0190 -1.6636
  178SOPE  H16S20302   5.609   1.475   8.617 -0.2375  0.8590 -0.7616
  178SOPE  C21720303   5.573   1.681   8.641 -0.2724  0.3864 -0.3365
  178SOPE  H17R20304   5.680   1.709   8.636  0.3246 -1.2909  1.7105
  178SOPE  H17S20305   5.525   1.745   8.718  2.2281  0.5236  1.2230
  178SOPE  C21820306   5.513   1.703   8.502  0.1059  0.2230 -0.0005
  178SOPE  H18R20307   5.402   1.706   8.495  0.0677  0.1584  0.5298
  178SOPE  H18S20308   5.550   1.619   8.440 -0.6124  1.6921 -2.5580
  178SOPE  H18T20309   5.545   1.802   8.463  1.9047  0.6963  2.4349
  178SOPE   C3320310   6.342   1.170  10.029 -0.0145 -0.0876  0.6530
  178SOPE   H3X20311   6.238   1.209  10.038  0.2043  0.3479  1.3931
  178SOPE   H3Y20312   6.334   1.066  10.069 -0.4284 -0.5704 -0.6207
  178SOPE   C3420313   6.371   1.164   9.878 -0.2092 -0.1637  0.1571
  178SOPE   H4X20314   6.463   1.100   9.877 -1.6042 -2.3039  1.0614
  178SOPE   H4Y20315   6.381   1.265   9.833 -0.7237 -0.1450  0.0805
  178SOPE   C3520316   6.259   1.088   9.808 -0.6183  0.6463 -0.2077
  178SOPE   H5X20317   6.163   1.144   9.814 -1.3117 -0.5889  0.6605
  178SOPE   H5Y20318   6.244   0.989   9.856 -1.6048  1.3227  0.9507
  178SOPE   C3620319   6.287   1.071   9.652  0.9788  0.5356  0.2040
  178SOPE   H6X20320   6.390   1.030   9.642  0.9889  1.1384 -3.5829
  178SOPE   H6Y20321   6.299   1.170   9.604 -1.5031  0.7421 -0.1249
  178SOPE   C3720322   6.182   0.974   9.587 -0.3171  0.5913 -0.6841
  178SOPE   H7X20323   6.080   1.009   9.616 -2.0326 -3.0619 -1.6554
  178SOPE   H7Y20324   6.193   0.870   9.624 -1.8264  0.8012  0.4813
  178SOPE   C3820325   6.207   0.986   9.439  1.0773  0.4680 -0.7732
  178SOPE   H8X20326   6.316   0.977   9.417  0.8623  1.9350 -2.7453
  178SOPE   H8Y20327   6.190   1.091   9.406  1.1380  0.1084 -1.9841
  178SOPE   C3920328   6.109   0.898   9.363  0.3577  0.5585 -0.3825
  178SOPE   H9X20329   6.005   0.919   9.395  0.0365 -0.3852 -0.7546
  178SOPE   H9Y20330   6.127   0.792   9.391 -0.6259  0.2050 -1.0530
  178SOPE  C31020331   6.121   0.913   9.216  0.2617  0.0969 -0.1959
  178SOPE  H10X20332   6.021   0.885   9.178 -0.4163  1.7443  0.2669
  178SOPE  H10Y20333   6.195   0.836   9.185  1.6414  0.6067  1.6308
  178SOPE  C31120334   6.164   1.046   9.155 -0.0952 -0.4434 -0.1042
  178SOPE  H11X20335   6.269   1.065   9.185 -0.3864  3.5719 -1.0359
  178SOPE  H11Y20336   6.100   1.131   9.186 -0.1857  0.1330 -1.7633
  178SOPE  C31220337   6.175   1.030   9.002  0.1091 -0.6829 -0.0046
  178SOPE  H12X20338   6.217   0.929   8.980  0.2464 -0.8047  0.7849
  178SOPE  H12Y20339   6.231   1.119   8.966 -1.1039  1.3312  2.7486
  178SOPE  C31320340   6.040   1.024   8.924  0.1294 -1.1174 -0.5069
  178SOPE  H13X20341   6.004   1.128   8.910 -0.8173 -1.3755 -0.0586
  178SOPE  H13Y20342   5.972   0.961   8.986 -0.4455 -0.9054 -0.9138
  178SOPE  C31420343   6.057   0.956   8.786 -0.4974 -0.1984  0.6933
  178SOPE  H14X20344   6.112   0.860   8.801 -1.3329 -0.4631  2.2608
  178SOPE  H14Y20345   6.114   1.020   8.716  1.5793 -1.3024  1.2901
  178SOPE  C31520346   5.932   0.923   8.694 -0.3108 -0.7928 -0.5749
  178SOPE  H15X20347   5.872   0.837   8.730  0.8077 -0.5303  2.1202
  178SOPE  H15Y20348   5.976   0.894   8.596 -1.1519  1.9484 -1.8633
  178SOPE  C31620349   5.849   1.049   8.651 -0.1127  0.3999 -0.9670
  178SOPE  H16X20350   5.929   1.124   8.632 -1.2174  1.6817 -0.6446
  178SOPE  H16Y20351   5.790   1.078   8.740 -0.0704 -0.8635 -0.5050
  178SOPE  C31720352   5.752   1.021   8.536 -0.0523 -1.2001 -0.2276
  178SOPE  H17X20353   5.680   0.939   8.555  0.0385 -1.0016  1.0417
  178SOPE  H17Y20354   5.810   0.997   8.444  4.4947  1.4175  1.6142
  178SOPE  C31820355   5.660   1.139   8.491 -0.7535 -0.6319 -0.6162
  178SOPE  H18X20356   5.722   1.230   8.505  0.2361 -1.4512  0.5137
  178SOPE  H18Y20357   5.570   1.145   8.555 -2.3118  1.0621 -2.7892
  178SOPE  H18Z20358   5.624   1.128   8.386 -0.9691  4.1490 -1.2737
  179SOPE     N20359   3.014   2.018   6.373  0.8665  0.6506  0.2816
  179SOPE   HN120360   3.091   2.035   6.305 -0.0084 -1.4756 -1.3388
  179SOPE   HN220361   3.025   1.924   6.415 -0.6267 -1.2156 -3.1240
  179SOPE   HN320362   2.925   2.026   6.319  1.1307 -0.2265 -0.3039
  179SOPE   C1220363   3.028   2.112   6.485  0.3933 -0.1207 -0.0462
  179SOPE  H12A20364   2.956   2.194   6.464  0.7266 -0.2449 -1.8027
  179SOPE  H12B20365   3.128   2.159   6.490 -1.0332  3.1520  0.4683
  179SOPE   C1120366   2.989   2.048   6.621  0.1190  0.4225  0.6019
  179SOPE  H11A20367   2.879   2.055   6.635  0.0797 -2.8772  3.3866
  179SOPE  H11B20368   3.032   2.099   6.710  0.9078 -2.4870  2.0159
  179SOPE     P20369   3.172   1.854   6.641 -0.2373  0.1224 -0.3816
  179SOPE   O1320370   3.219   1.869   6.502 -0.8709  0.0556  0.2503
  179SOPE   O1420371   3.180   1.719   6.704  0.2020  0.3912  0.0234
  179SOPE   O1220372   3.024   1.907   6.634 -0.3641 -0.1531  0.5548
  179SOPE   O1120373   3.255   1.958   6.728 -0.0576 -0.2693 -0.3978
  179SOPE    C120374   3.247   1.969   6.870  0.0138  0.1322  0.1627
  179SOPE    HA20375   3.172   1.899   6.913  2.0063 -0.1609  3.5329
  179SOPE    HB20376   3.205   2.070   6.893  0.5768  0.9536 -2.1579
  179SOPE    C220377   3.385   1.949   6.944 -0.7120  0.1976 -0.3116
  179SOPE    HS20378   3.436   1.854   6.916 -0.0005  1.2701 -2.8644
  179SOPE   O2120379   3.362   1.971   7.084  0.5627 -0.1642 -0.1178
  179SOPE   C2120380   3.344   1.855   7.155 -0.4594  0.5055 -0.0250
  179SOPE   O2220381   3.352   1.744   7.107 -0.0384  0.7430  0.5857
  179SOPE   C2220382   3.337   1.880   7.307  0.7324 -0.2521 -0.1152
  179SOPE   H2R20383   3.303   1.985   7.320 -0.9986 -0.7996  0.0630
  179SOPE   H2S20384   3.441   1.875   7.345  0.6099  0.3882  0.3230
  179SOPE    C320385   3.477   2.054   6.880  0.0790  0.3925 -0.0076
  179SOPE    HX20386   3.425   2.152   6.875  2.2017  1.5725 -0.1066
  179SOPE    HY20387   3.494   2.034   6.772  1.6602  0.6881  0.1714
  179SOPE   O3120388   3.603   2.050   6.941 -0.2578  0.0999 -0.1907
  179SOPE   C3120389   3.643   2.156   7.015  0.3275  0.0888 -0.7019
  179SOPE   O3220390   3.584   2.263   7.012 -0.1931  0.7258 -0.3939
  179SOPE   C3220391   3.758   2.117   7.105 -0.1683 -0.5158 -0.1443
  179SOPE   H2X20392   3.854   2.155   7.063 -0.0735  1.5846  1.7515
  179SOPE   H2Y20393   3.763   2.006   7.105  0.1952 -0.5259 -1.5173
  179SOPE   C2320394   3.244   1.784   7.384  0.0567 -0.1314 -0.1380
  179SOPE   H3R20395   3.286   1.685   7.355  0.5187  0.2973 -0.9760
  179SOPE   H3S20396   3.143   1.801   7.343  0.1829  0.5884 -0.1561
  179SOPE   C2420397   3.259   1.813   7.532 -0.2645 -0.9612 -0.4919
  179SOPE   H4R20398   3.363   1.793   7.568  0.5022  2.3859 -0.5142
  179SOPE   H4S20399   3.251   1.922   7.550 -0.6393 -0.9935 -0.4685
  179SOPE   C2520400   3.141   1.751   7.622  0.1253  0.6724  1.2824
  179SOPE   H5R20401   3.046   1.775   7.569  1.1301 -0.1379 -1.0354
  179SOPE   H5S20402   3.137   1.640   7.615  0.6606  0.6886  0.6762
  179SOPE   C2620403   3.135   1.794   7.778 -0.1524  0.3725 -0.2040
  179SOPE   H6R20404   3.236   1.758   7.805 -1.0113  0.1505  3.0333
  179SOPE   H6S20405   3.128   1.905   7.783 -0.6954  0.3096  0.5829
  179SOPE   C2720406   3.009   1.729   7.846  0.0468 -0.0997 -0.1409
  179SOPE   H7R20407   2.921   1.776   7.798 -1.1620 -2.4258 -0.3290
  179SOPE   H7S20408   3.007   1.618   7.850  1.3716 -0.2902 -2.6946
  179SOPE   C2820409   3.003   1.774   7.992 -0.1437 -0.4446 -0.6154
  179SOPE   H8R20410   3.103   1.773   8.041 -1.1561  2.1010  1.8438
  179SOPE   H8S20411   2.973   1.880   7.976 -0.8529 -0.1934  1.8299
  179SOPE   C2920412   2.900   1.715   8.079 -0.1125  0.3261  0.3395
  179SOPE   H9120413   2.801   1.764   8.081 -0.9315 -1.2155 -0.0168
  179SOPE  C21020414   2.909   1.609   8.159 -0.3990  0.4091  0.6572
  179SOPE  H10120415   2.821   1.580   8.219 -0.7425  1.3986  0.6478
  179SOPE  C21120416   3.027   1.518   8.171 -1.4219  0.2264 -0.9096
  179SOPE  H11R20417   3.125   1.562   8.143  0.1750 -0.2705  3.1868
  179SOPE  H11S20418   3.018   1.427   8.107 -2.1231 -0.3237 -0.0560
  179SOPE  C21220419   3.049   1.462   8.315 -1.0649  0.0037  0.7192
  179SOPE  H12R20420   3.048   1.544   8.390 -1.2441  1.0953 -0.4564
  179SOPE  H12S20421   3.139   1.396   8.316 -1.4137 -0.6314 -2.1369
  179SOPE  C21320422   2.926   1.383   8.365  0.1768  0.4531  0.0219
  179SOPE  H13R20423   2.928   1.296   8.296  0.8191 -0.0614  0.6712
  179SOPE  H13S20424   2.833   1.440   8.343 -0.8565 -0.5177  1.7126
  179SOPE  C21420425   2.929   1.332   8.508 -0.0098 -0.1904 -0.3207
  179SOPE  H14R20426   2.849   1.258   8.531  2.3165 -3.2943 -1.4686
  179SOPE  H14S20427   2.933   1.419   8.576 -0.2461 -0.1320 -0.3802
  179SOPE  C21520428   3.060   1.260   8.537 -0.0280 -0.6012 -0.1077
  179SOPE  H15R20429   3.148   1.326   8.523  0.7247 -1.2537  1.2866
  179SOPE  H15S20430   3.064   1.183   8.457  3.4059  1.0948 -1.7714
  179SOPE  C21620431   3.064   1.208   8.684  0.6591 -0.0108 -0.1648
  179SOPE  H16R20432   2.977   1.144   8.712  1.0962 -1.4753 -1.9861
  179SOPE  H16S20433   3.076   1.289   8.760  0.3022 -1.2638  1.2579
  179SOPE  C21720434   3.188   1.117   8.711 -0.0810 -0.3866  0.4711
  179SOPE  H17R20435   3.218   1.134   8.816 -0.3455  1.2514  0.3046
  179SOPE  H17S20436   3.276   1.165   8.662  0.1980 -0.8530  0.5068
  179SOPE  C21820437   3.181   0.969   8.678  0.2302 -0.0741 -0.0578
  179SOPE  H18R20438   3.274   0.918   8.711  1.0163  1.6430  0.4742
  179SOPE  H18S20439   3.159   0.959   8.569 -0.0296 -1.1612  0.0759
  179SOPE  H18T20440   3.093   0.917   8.722  0.0862 -1.3847 -1.7733
  179SOPE   C3320441   3.743   2.177   7.249  0.6242 -0.1215  0.0859
  179SOPE   H3X20442   3.707   2.282   7.248 -3.5433 -1.2010  3.5006
  179SOPE   H3Y20443   3.848   2.174   7.285  0.5326 -0.9085  0.3139
  179SOPE   C3420444   3.638   2.107   7.340 -0.4943  0.0889 -0.3721
  179SOPE   H4X20445   3.661   1.998   7.346 -0.9641 -0.0104 -0.3365
  179SOPE   H4Y20446   3.537   2.125   7.296 -0.0539  1.1630 -0.9824
  179SOPE   C3520447   3.649   2.147   7.488 -0.4442 -0.2980  0.4283
  179SOPE   H5X20448   3.647   2.258   7.490  0.1692 -0.2238 -1.3631
  179SOPE   H5Y20449   3.754   2.125   7.520 -0.3817  0.8283  1.0415
  179SOPE   C3620450   3.550   2.084   7.583  0.4899  0.6846  0.1138
  179SOPE   H6X20451   3.576   1.977   7.590  0.1588  0.6123  0.2566
  179SOPE   H6Y20452   3.444   2.099   7.553  0.8660  0.5890 -1.3370
  179SOPE   C3720453   3.573   2.156   7.710 -0.5188  0.0993  0.5491
  179SOPE   H7X20454   3.557   2.265   7.691 -0.2701  0.0236 -0.1065
  179SOPE   H7Y20455   3.678   2.139   7.741  1.0212  0.1415 -3.9856
  179SOPE   C3820456   3.476   2.109   7.815  0.0678  0.1154  0.2659
  179SOPE   H8X20457   3.498   2.007   7.854  2.0290  0.5369  0.3372
  179SOPE   H8Y20458   3.372   2.113   7.774  0.8012  0.8462 -1.6380
  179SOPE   C3920459   3.488   2.194   7.938 -0.2011 -0.0066  0.6556
  179SOPE   H9X20460   3.508   2.302   7.924 -0.5962 -0.0428 -0.2425
  179SOPE   H9Y20461   3.578   2.158   7.994 -0.3498  0.1229  0.9835
  179SOPE  C31020462   3.373   2.152   8.031  0.5119  0.2622 -0.5100
  179SOPE  H10X20463   3.365   2.042   8.020 -0.9847 -0.0133  2.4919
  179SOPE  H10Y20464   3.276   2.191   7.992  2.0388  1.8317 -3.0613
  179SOPE  C31120465   3.395   2.187   8.173 -0.0438 -0.9597 -0.4583
  179SOPE  H11X20466   3.412   2.295   8.193 -2.0124 -0.7090  0.1441
  179SOPE  H11Y20467   3.483   2.125   8.200  1.0344  0.4537 -0.5864
  179SOPE  C31220468   3.276   2.152   8.265  0.0822 -0.6845  0.2142
  179SOPE  H12X20469   3.280   2.041   8.270 -0.2387 -0.7186 -0.2394
  179SOPE  H12Y20470   3.183   2.189   8.217  0.7618  3.0125  1.3885
  179SOPE  C31320471   3.297   2.222   8.397 -0.1973 -0.4886 -0.0044
  179SOPE  H13X20472   3.308   2.328   8.366 -0.1604 -0.1052  1.2462
  179SOPE  H13Y20473   3.392   2.201   8.451 -0.5305  0.5327  1.0309
  179SOPE  C31420474   3.179   2.198   8.493 -0.9540  1.0009  0.1868
  179SOPE  H14X20475   3.164   2.089   8.512  2.0953  0.3714 -0.4455
  179SOPE  H14Y20476   3.092   2.234   8.434 -1.5910 -2.4568 -1.2249
  179SOPE  C31520477   3.197   2.278   8.625  0.2914 -0.6236 -0.0361
  179SOPE  H15X20478   3.243   2.376   8.602 -1.0127 -0.1546 -0.7292
  179SOPE  H15Y20479   3.273   2.229   8.689 -0.1091 -0.0877  0.8586
  179SOPE  C31620480   3.070   2.292   8.715 -0.7833 -0.5585 -0.1873
  179SOPE  H16X20481   3.024   2.191   8.704 -0.0534 -0.9352  0.1919
  179SOPE  H16Y20482   3.006   2.378   8.685  0.2926  0.8882  1.5057
  179SOPE  C31720483   3.094   2.317   8.868  1.0258  0.0583  0.2868
  179SOPE  H17X20484   3.141   2.418   8.870 -0.6843  0.8837  1.3452
  179SOPE  H17Y20485   3.177   2.258   8.912 -0.3274  0.5967  4.0010
  179SOPE  C31820486   2.976   2.334   8.955 -0.5396 -0.2729 -0.2100
  179SOPE  H18X20487   2.927   2.234   8.950 -0.7674 -0.2712  1.3668
  179SOPE  H18Y20488   2.904   2.408   8.913 -0.5386  0.0554  0.3443
  179SOPE  H18Z20489   3.006   2.372   9.055 -1.2998  2.7057 -0.9983
  180SOPE     N20490   0.711   0.652   6.295  0.1548  0.0799  0.5039
  180SOPE   HN120491   0.666   0.656   6.201  2.5496 -1.5458 -0.8254
  180SOPE   HN220492   0.766   0.564   6.295  0.3827  0.2021  1.6629
  180SOPE   HN320493   0.629   0.650   6.359  0.8239  1.5223  1.4381
  180SOPE   C1220494   0.800   0.771   6.327  0.1880 -0.1712  0.1468
  180SOPE  H12A20495   0.813   0.831   6.234  1.0645  0.3336  0.5856
  180SOPE  H12B20496   0.899   0.728   6.350  0.1054 -0.2130  0.4230
  180SOPE   C1120497   0.747   0.864   6.435  0.4735 -0.1864  0.0425
  180SOPE  H11A20498   0.816   0.950   6.446  1.6176 -0.7791 -2.0318
  180SOPE  H11B20499   0.749   0.816   6.535  3.9665  1.3955  0.9041
  180SOPE     P20500   0.532   1.014   6.482  0.2143  0.7439 -0.0509
  180SOPE   O1320501   0.410   0.945   6.532  0.1888  0.3174  0.3158
  180SOPE   O1420502   0.513   1.143   6.411  0.0540 -0.1497  0.5140
  180SOPE   O1220503   0.614   0.912   6.396 -0.3807 -1.0404  0.1924
  180SOPE   O1120504   0.633   1.040   6.605  0.5726  0.4388 -0.3160
  180SOPE    C120505   0.709   1.155   6.629 -0.8798  0.1467 -0.3069
  180SOPE    HA20506   0.711   1.234   6.551  0.1751  2.3647  1.7771
  180SOPE    HB20507   0.810   1.110   6.643 -1.2973 -0.0593  2.9335
  180SOPE    C220508   0.678   1.219   6.770  0.1285 -0.0820 -0.4683
  180SOPE    HS20509   0.763   1.281   6.806  0.2061 -0.5870  0.2559
  180SOPE   O2120510   0.642   1.116   6.867 -0.1034 -0.3252 -0.0295
  180SOPE   C2120511   0.679   1.139   6.992 -0.3723 -0.7421  0.1186
  180SOPE   O2220512   0.756   1.227   7.031  0.1059 -0.2230  0.3062
  180SOPE   C2220513   0.580   1.057   7.086  0.0535  0.2832  0.4181
  180SOPE   H2R20514   0.499   1.024   7.017  1.9499 -1.4216 -1.1173
  180SOPE   H2S20515   0.541   1.122   7.167  2.0982  1.5502  0.4537
  180SOPE    C320516   0.559   1.316   6.760 -0.3006  0.2547  0.2162
  180SOPE    HX20517   0.477   1.246   6.733  0.3753 -1.4421  2.3418
  180SOPE    HY20518   0.573   1.396   6.684  1.4476 -0.3262 -0.1205
  180SOPE   O3120519   0.530   1.373   6.887 -0.1089  0.0375 -0.7732
  180SOPE   C3120520   0.618   1.465   6.935 -0.0177  0.0509  0.4972
  180SOPE   O3220521   0.709   1.511   6.862 -0.0790  0.4495 -0.1796
  180SOPE   C3220522   0.581   1.492   7.083  0.9663  0.3263  0.0293
  180SOPE   H2X20523   0.548   1.401   7.138 -1.9285  2.1765  1.6188
  180SOPE   H2Y20524   0.501   1.568   7.082  0.3670 -0.2435  1.5419
  180SOPE   C2320525   0.659   0.941   7.146 -0.5052 -0.1811 -0.3332
  180SOPE   H3R20526   0.733   0.981   7.218  1.6244  0.3622 -2.6690
  180SOPE   H3S20527   0.716   0.888   7.067  2.4410 -0.1460  1.6141
  180SOPE   C2420528   0.573   0.837   7.209  0.1004 -0.5708 -0.4448
  180SOPE   H4R20529   0.467   0.827   7.177 -0.8047  0.7339  1.8903
  180SOPE   H4S20530   0.616   0.740   7.176 -1.3316 -0.6060 -2.3766
  180SOPE   C2520531   0.552   0.864   7.351 -0.6089 -0.4976 -1.1925
  180SOPE   H5R20532   0.510   0.964   7.374  0.5356 -0.2804  0.0555
  180SOPE   H5S20533   0.489   0.783   7.393  2.0823 -2.0340  0.1283
  180SOPE   C2620534   0.688   0.846   7.432  0.3555 -0.2472  0.2836
  180SOPE   H6R20535   0.751   0.937   7.425 -0.5174  0.2149 -2.7324
  180SOPE   H6S20536   0.660   0.821   7.537  3.6242 -2.3743  0.8242
  180SOPE   C2720537   0.775   0.727   7.386  0.1714 -0.1919  0.4979
  180SOPE   H7R20538   0.717   0.632   7.389  0.0622 -0.1096  1.4548
  180SOPE   H7S20539   0.830   0.749   7.292 -0.4961  1.0228  0.3711
  180SOPE   C2820540   0.905   0.718   7.466  0.0316 -0.5311 -0.6526
  180SOPE   H8R20541   0.973   0.654   7.406  0.5983 -1.0776  0.5385
  180SOPE   H8S20542   0.954   0.817   7.474 -1.5940  0.2432  0.2026
  180SOPE   C2920543   0.876   0.646   7.600  0.0554  0.1338  1.2963
  180SOPE   H9120544   0.825   0.550   7.586  1.6505 -0.6942  0.8767
  180SOPE  C21020545   0.891   0.697   7.722  0.1707  0.3901 -0.0741
  180SOPE  H10120546   0.874   0.632   7.810  1.5240 -0.2283 -0.2458
  180SOPE  C21120547   0.954   0.832   7.751  0.3411  0.0063  0.0686
  180SOPE  H11R20548   0.884   0.913   7.722 -0.4130 -1.0093 -1.0583
  180SOPE  H11S20549   1.056   0.849   7.709  0.0638  1.5269 -0.0568
  180SOPE  C21220550   0.993   0.839   7.901 -0.1899  0.1991  0.9323
  180SOPE  H12R20551   1.050   0.933   7.915  1.8910 -1.1066  1.6132
  180SOPE  H12S20552   1.059   0.756   7.931  3.0461  1.5501 -1.8058
  180SOPE  C21320553   0.861   0.846   7.984  0.3913 -0.0319  0.2075
  180SOPE  H13R20554   0.819   0.746   8.009  1.6202 -0.2247  1.6872
  180SOPE  H13S20555   0.793   0.903   7.918 -0.1671  2.4411  2.7197
  180SOPE  C21420556   0.891   0.901   8.124  0.0851 -0.0054 -0.1806
  180SOPE  H14R20557   0.899   1.012   8.116 -0.0836  0.1332  1.2782
  180SOPE  H14S20558   0.980   0.854   8.170  2.0203  1.9588 -1.7179
  180SOPE  C21520559   0.788   0.862   8.234 -0.6066  0.3346  1.0123
  180SOPE  H15R20560   0.824   0.886   8.336  0.6255  0.6571  0.5184
  180SOPE  H15S20561   0.787   0.751   8.238  0.4136  0.3505  2.2189
  180SOPE  C21620562   0.648   0.916   8.210  0.2384  0.5247  0.0287
  180SOPE  H16R20563   0.572   0.865   8.273  1.3112 -1.9521 -0.5582
  180SOPE  H16S20564   0.622   0.893   8.105  1.0991 -0.4788  0.0104
  180SOPE  C21720565   0.632   1.072   8.220 -1.2756 -0.1259 -1.1974
  180SOPE  H17R20566   0.526   1.086   8.192 -1.1537 -1.4516 -2.4320
  180SOPE  H17S20567   0.704   1.112   8.146  0.3609 -0.6056  0.0629
  180SOPE  C21820568   0.649   1.130   8.358 -0.3736  1.0408 -0.1947
  180SOPE  H18R20569   0.655   1.241   8.368  1.5666  0.7677  2.8979
  180SOPE  H18S20570   0.741   1.095   8.410 -1.9350  2.3716  3.9447
  180SOPE  H18T20571   0.565   1.106   8.427  0.5932 -1.7474  0.1370
  180SOPE   C3320572   0.708   1.539   7.155 -0.2815  0.6707 -0.0836
  180SOPE   H3X20573   0.759   1.619   7.098 -0.0023  0.9913  0.6137
  180SOPE   H3Y20574   0.771   1.448   7.155 -0.5623  0.4412 -1.6957
  180SOPE   C3420575   0.686   1.598   7.293  0.3657  0.2088 -0.0380
  180SOPE   H4X20576   0.616   1.532   7.349  1.5092 -2.1929 -1.2829
  180SOPE   H4Y20577   0.649   1.702   7.283  3.0887  1.4651  1.7235
  180SOPE   C3520578   0.819   1.610   7.368  0.1819  0.5382 -0.8760
  180SOPE   H5X20579   0.819   1.691   7.444  0.2325  1.2819 -1.6493
  180SOPE   H5Y20580   0.903   1.626   7.297  1.1200 -1.2691 -0.2353
  180SOPE   C3620581   0.860   1.478   7.445  0.3530 -0.7485 -0.7271
  180SOPE   H6X20582   0.955   1.499   7.499 -1.2729  0.4331  1.8296
  180SOPE   H6Y20583   0.882   1.404   7.364  0.2331 -0.8453 -0.6704
  180SOPE   C3720584   0.770   1.440   7.555 -0.2841  0.7117 -0.8094
  180SOPE   H7X20585   0.667   1.416   7.522 -1.4594  1.5289  1.9571
  180SOPE   H7Y20586   0.760   1.537   7.609 -2.2938 -0.0488  0.3236
  180SOPE   C3820587   0.822   1.327   7.652 -0.3928 -0.3777  0.8386
  180SOPE   H8X20588   0.913   1.373   7.697  1.5461 -0.9219 -2.2277
  180SOPE   H8Y20589   0.860   1.246   7.586 -0.1308 -0.6757  1.3490
  180SOPE   C3920590   0.715   1.285   7.756  0.4084 -0.1568  0.7406
  180SOPE   H9X20591   0.760   1.227   7.839  1.5469 -0.0535  0.2109
  180SOPE   H9Y20592   0.651   1.219   7.693 -0.5113  2.1177 -0.8123
  180SOPE  C31020593   0.619   1.394   7.816  0.1173 -0.7895  0.3496
  180SOPE  H10X20594   0.559   1.434   7.732  1.7453 -1.1711 -1.0612
  180SOPE  H10Y20595   0.670   1.479   7.866 -2.0795  0.9635 -0.2298
  180SOPE  C31120596   0.511   1.345   7.915 -0.0051  0.2330  0.4314
  180SOPE  H11X20597   0.549   1.244   7.942  2.3402  1.4634  2.1102
  180SOPE  H11Y20598   0.412   1.337   7.865  1.0081  2.0983 -2.1391
  180SOPE  C31220599   0.486   1.443   8.043  0.1011  0.0746 -0.2711
  180SOPE  H12X20600   0.393   1.405   8.089  0.2512  0.7597  0.6328
  180SOPE  H12Y20601   0.463   1.546   8.006 -0.0078  0.1001 -0.1329
  180SOPE  C31320602   0.590   1.436   8.150 -0.2840 -0.4489  0.0854
  180SOPE  H13X20603   0.682   1.391   8.108  0.6586  0.4793  1.0881
  180SOPE  H13Y20604   0.558   1.362   8.227  2.8827 -1.4657  0.5559
  180SOPE  C31420605   0.603   1.574   8.211  0.2378  0.2678  0.3565
  180SOPE  H14X20606   0.507   1.600   8.258  0.0653  0.6611 -0.2003
  180SOPE  H14Y20607   0.620   1.643   8.126 -1.5035  0.5316  0.1995
  180SOPE  C31520608   0.721   1.579   8.299 -0.2542  0.1469 -0.2328
  180SOPE  H15X20609   0.808   1.548   8.238 -0.0791  3.0367 -1.6027
  180SOPE  H15Y20610   0.711   1.513   8.388  0.6216  0.0025 -0.2330
  180SOPE  C31620611   0.745   1.720   8.346  0.3558  0.4313  0.6014
  180SOPE  H16X20612   0.700   1.722   8.448  1.1424 -1.4658  1.0403
  180SOPE  H16Y20613   0.691   1.791   8.280 -2.3951 -0.9134  1.2607
  180SOPE  C31720614   0.897   1.740   8.342  0.2746 -0.4356  0.2762
  180SOPE  H17X20615   0.929   1.702   8.243 -0.0046 -1.4475  0.5707
  180SOPE  H17Y20616   0.944   1.694   8.431 -1.0157  2.3423  2.5487
  180SOPE  C31820617   0.933   1.894   8.358  0.6828  1.0143 -0.8948
  180SOPE  H18X20618   1.038   1.915   8.328  1.9189 -0.8308  1.7694
  180SOPE  H18Y20619   0.933   1.921   8.465 -0.7657 -1.2643 -0.2432
  180SOPE  H18Z20620   0.876   1.958   8.288 -0.0073 -1.1957 -2.4798
  181SOPE     N20621   0.970   5.491   5.970 -0.0693 -0.1326  0.0299
  181SOPE   HN120622   0.918   5.440   5.896 -0.9801  0.4452  0.2517
  181SOPE   HN220623   1.054   5.434   5.993 -0.1178 -0.6074 -0.9281
  181SOPE   HN320624   0.914   5.506   6.056  1.9414 -1.3423  1.6305
  181SOPE   C1220625   1.022   5.627   5.929 -0.5897 -0.0653 -0.7264
  181SOPE  H12A20626   1.098   5.598   5.854  1.3545 -0.0617  1.1379
  181SOPE  H12B20627   1.069   5.676   6.017 -1.0714  3.9258 -2.4798
  181SOPE   C1120628   0.915   5.712   5.880  0.2903 -0.0602 -0.3679
  181SOPE  H11A20629   0.858   5.649   5.808  0.2303 -0.3930 -0.0327
  181SOPE  H11B20630   0.961   5.798   5.826  1.3226 -1.3376 -1.6152
  181SOPE     P20631   0.826   5.877   6.064 -0.1849 -0.1943  0.4175
  181SOPE   O1320632   0.685   5.900   6.104  0.6572 -0.2092 -0.0295
  181SOPE   O1420633   0.884   5.987   5.986 -0.0301  0.0459 -0.3072
  181SOPE   O1220634   0.825   5.742   5.989  0.1981  0.9124 -0.1730
  181SOPE   O1120635   0.922   5.849   6.183  0.1801 -0.1280 -0.4548
  181SOPE    C120636   0.877   5.766   6.298  0.1086 -0.4460  0.7984
  181SOPE    HA20637   0.938   5.674   6.303 -1.8455 -1.9401 -0.8047
  181SOPE    HB20638   0.774   5.725   6.284  0.0848  0.0619 -0.7948
  181SOPE    C220639   0.876   5.851   6.424 -0.4210 -0.0144  0.3809
  181SOPE    HS20640   0.897   5.957   6.398  1.0951 -0.5976 -0.9285
  181SOPE   O2120641   0.972   5.800   6.519 -0.2240 -0.3333  0.3130
  181SOPE   C2120642   1.010   5.887   6.614 -0.1130  0.0641  0.2354
  181SOPE   O2220643   1.005   6.006   6.605 -0.2542 -0.1517  0.0459
  181SOPE   C2220644   1.064   5.803   6.730 -0.0861 -0.9651 -0.4094
  181SOPE   H2R20645   1.173   5.791   6.710  0.8880  3.0715  1.3346
  181SOPE   H2S20646   1.004   5.711   6.745 -0.4751 -0.4419  1.4849
  181SOPE    C320647   0.732   5.845   6.494  0.1245 -0.7499  0.6040
  181SOPE    HX20648   0.720   5.745   6.541 -1.1067 -0.2600  1.3851
  181SOPE    HY20649   0.652   5.868   6.420  1.1798  2.3259  0.2659
  181SOPE   O3120650   0.705   5.926   6.606 -0.4216 -0.5522 -0.1507
  181SOPE   C3120651   0.678   6.062   6.579 -0.2621  0.5653  0.4641
  181SOPE   O3220652   0.701   6.112   6.467  0.8594 -0.6976 -0.2178
  181SOPE   C3220653   0.636   6.141   6.698  0.3298  0.2938 -0.1535
  181SOPE   H2X20654   0.568   6.076   6.758  0.8501 -1.8618 -1.7713
  181SOPE   H2Y20655   0.581   6.230   6.659  0.9602  1.0772  0.7039
  181SOPE   C2320656   1.062   5.884   6.866  0.5193 -0.3818  0.5306
  181SOPE   H3R20657   0.962   5.925   6.892 -0.1539 -1.1247 -0.7878
  181SOPE   H3S20658   1.131   5.969   6.847 -0.3844  0.4953  1.0452
  181SOPE   C2420659   1.118   5.805   6.986  0.0322 -0.4480 -0.2270
  181SOPE   H4R20660   1.052   5.719   7.013  0.0477  0.3166  2.4681
  181SOPE   H4S20661   1.223   5.780   6.958 -0.7986 -0.8125 -3.4707
  181SOPE   C2520662   1.126   5.893   7.110  0.1370 -0.4900 -0.6702
  181SOPE   H5R20663   1.154   5.996   7.079  0.0797  0.3412  1.8456
  181SOPE   H5S20664   1.021   5.900   7.145  0.4974  0.0408  0.3257
  181SOPE   C2620665   1.235   5.851   7.217  0.2702  0.1452  0.0244
  181SOPE   H6R20666   1.333   5.832   7.168  0.3612  1.6814 -0.4423
  181SOPE   H6S20667   1.249   5.939   7.284 -1.4974 -0.3348  1.0740
  181SOPE   C2720668   1.201   5.722   7.297 -0.3363 -0.0248 -0.5430
  181SOPE   H7R20669   1.100   5.731   7.342  0.1105 -0.9271  0.7007
  181SOPE   H7S20670   1.209   5.638   7.224 -3.2909 -0.8612 -0.0207
  181SOPE   C2820671   1.314   5.691   7.401 -0.2244  0.1495  0.0296
  181SOPE   H8R20672   1.311   5.583   7.430 -0.5025  0.0364 -0.4151
  181SOPE   H8S20673   1.411   5.702   7.348 -0.0247 -0.2178  0.3148
  181SOPE   C2920674   1.317   5.772   7.531  0.4425  0.1357  0.1811
  181SOPE   H9120675   1.358   5.874   7.520 -1.8366  0.8555 -2.6484
  181SOPE  C21020676   1.287   5.724   7.654 -1.1365 -0.0027 -0.4704
  181SOPE  H10120677   1.277   5.794   7.738 -3.8794  0.6296 -1.2188
  181SOPE  C21120678   1.248   5.587   7.707  0.8688 -0.6017 -0.1249
  181SOPE  H11R20679   1.331   5.521   7.673  0.8236 -0.5790 -0.2819
  181SOPE  H11S20680   1.161   5.547   7.650 -0.0592 -1.9993  2.1613
  181SOPE  C21220681   1.234   5.594   7.862 -0.3700 -0.2745  0.6908
  181SOPE  H12R20682   1.339   5.604   7.896 -1.2431 -1.2205  4.1260
  181SOPE  H12S20683   1.188   5.495   7.883 -1.8375  0.0232 -0.8586
  181SOPE  C21320684   1.146   5.700   7.930  0.3722  0.6301  1.1438
  181SOPE  H13R20685   1.053   5.690   7.871  0.2159 -0.4623  1.5660
  181SOPE  H13S20686   1.190   5.802   7.925 -0.0722  1.1217  4.8013
  181SOPE  C21420687   1.100   5.659   8.067 -0.5653  0.1772 -0.7209
  181SOPE  H14R20688   1.177   5.686   8.143 -3.3722 -1.6563  3.1263
  181SOPE  H14S20689   1.105   5.548   8.058 -0.1715  0.2656 -1.7027
  181SOPE  C21520690   0.971   5.726   8.116 -0.5159 -0.5021 -0.1373
  181SOPE  H15R20691   0.952   5.695   8.222  3.0547 -0.3456  0.6580
  181SOPE  H15S20692   0.889   5.703   8.045 -1.1942 -1.8661  1.0156
  181SOPE  C21620693   0.979   5.878   8.123 -0.1574 -0.0287  0.3167
  181SOPE  H16R20694   0.955   5.917   8.022 -2.0281  0.4886  0.9298
  181SOPE  H16S20695   1.085   5.900   8.149  0.0476 -1.0750  0.3939
  181SOPE  C21720696   0.879   5.945   8.216  0.0725 -0.3360  0.4245
  181SOPE  H17R20697   0.888   6.056   8.215  1.8831 -0.4520  0.5866
  181SOPE  H17S20698   0.904   5.896   8.313  3.1268  0.8128  0.3254
  181SOPE  C21820699   0.731   5.917   8.191  0.4518  0.3674 -0.3142
  181SOPE  H18R20700   0.716   5.808   8.178  3.1586 -0.2008  0.7176
  181SOPE  H18S20701   0.694   5.970   8.100 -3.1731 -1.1740  0.1214
  181SOPE  H18T20702   0.663   5.946   8.273 -0.8354  2.3502 -1.9748
  181SOPE   C3320703   0.753   6.176   6.790  0.5370 -0.2553 -0.1111
  181SOPE   H3X20704   0.828   6.227   6.725  0.5874  0.4640  0.4930
  181SOPE   H3Y20705   0.802   6.088   6.838 -0.9609 -0.9005  0.2912
  181SOPE   C3420706   0.725   6.259   6.913  0.4092  0.0665  0.6488
  181SOPE   H4X20707   0.616   6.269   6.929  0.0799  0.1550 -1.3400
  181SOPE   H4Y20708   0.762   6.361   6.893  0.3620 -0.0719 -0.1869
  181SOPE   C3520709   0.790   6.201   7.035 -0.4349  0.9493  0.3117
  181SOPE   H5X20710   0.899   6.184   7.023 -0.2113  3.2577 -1.5608
  181SOPE   H5Y20711   0.740   6.103   7.051 -0.4690  0.9164  0.0086
  181SOPE   C3620712   0.768   6.290   7.154 -0.2758 -0.4437 -0.5396
  181SOPE   H6X20713   0.665   6.331   7.159  0.6427  2.1904 -1.3672
  181SOPE   H6Y20714   0.832   6.381   7.151  0.4033 -0.8958 -0.0996
  181SOPE   C3720715   0.799   6.220   7.283  0.7561 -0.1441  0.4481
  181SOPE   H7X20716   0.734   6.130   7.291  1.1306 -0.3991  0.6864
  181SOPE   H7Y20717   0.763   6.288   7.363  0.0286 -1.8690  1.6549
  181SOPE   C3820718   0.950   6.190   7.302 -0.1716 -0.0436 -0.1985
  181SOPE   H8X20719   1.012   6.279   7.328  3.9098 -3.0936  1.7100
  181SOPE   H8Y20720   0.990   6.143   7.210 -0.2912  1.8648 -1.2851
  181SOPE   C3920721   0.970   6.088   7.415  0.2456 -0.0303 -0.2440
  181SOPE   H9X20722   1.073   6.048   7.401 -0.2161 -1.5174  0.3990
  181SOPE   H9Y20723   0.903   6.000   7.404 -2.6672  1.9817  0.2002
  181SOPE  C31020724   0.937   6.158   7.553 -0.4173 -0.2433 -0.0967
  181SOPE  H10X20725   0.831   6.189   7.567 -0.6073 -1.3035  0.9908
  181SOPE  H10Y20726   0.996   6.252   7.554 -1.5079  0.5247 -1.9204
  181SOPE  C31120727   0.963   6.072   7.675 -0.0974  0.2257 -0.1223
  181SOPE  H11X20728   0.950   6.138   7.763  3.4252  0.8538  0.0707
  181SOPE  H11Y20729   1.067   6.035   7.670 -0.3033 -0.2637 -0.9711
  181SOPE  C31220730   0.873   5.947   7.677 -0.5656  0.1666  0.0201
  181SOPE  H12X20731   0.892   5.897   7.775 -2.5736 -1.1076 -0.1767
  181SOPE  H12Y20732   0.911   5.884   7.594 -0.9097  0.5391 -0.4241
  181SOPE  C31320733   0.718   5.963   7.669  0.1580 -0.6411  0.1041
  181SOPE  H13X20734   0.671   5.863   7.681  1.4982 -1.5477 -1.6377
  181SOPE  H13Y20735   0.689   5.987   7.565 -2.4397 -0.7409  0.7532
  181SOPE  C31420736   0.659   6.057   7.774  0.2363 -0.8099 -0.2619
  181SOPE  H14X20737   0.686   6.163   7.760 -0.8162 -0.4636  0.2606
  181SOPE  H14Y20738   0.679   6.023   7.878 -2.6641  1.2116  1.0714
  181SOPE  C31520739   0.510   6.054   7.761  0.5502 -0.3421 -1.0609
  181SOPE  H15X20740   0.474   6.072   7.865 -1.3426  0.1266 -1.7571
  181SOPE  H15Y20741   0.477   5.949   7.747 -0.2904 -0.2758  0.2473
  181SOPE  C31620742   0.436   6.147   7.661  0.1088 -0.4587  0.2872
  181SOPE  H16X20743   0.326   6.134   7.666 -0.1124  1.3557  0.9439
  181SOPE  H16Y20744   0.479   6.106   7.567 -0.3239 -0.1372 -0.0550
  181SOPE  C31720745   0.485   6.292   7.655  0.5796  0.2705 -0.1286
  181SOPE  H17X20746   0.588   6.314   7.621  0.1803 -1.8056 -3.1023
  181SOPE  H17Y20747   0.469   6.338   7.755 -0.1202 -0.2447  0.0048
  181SOPE  C31820748   0.406   6.374   7.551 -0.2556  0.3937 -0.4341
  181SOPE  H18X20749   0.312   6.399   7.605  0.6052 -0.0543  1.3457
  181SOPE  H18Y20750   0.388   6.336   7.448 -1.0371  1.4818 -0.7152
  181SOPE  H18Z20751   0.458   6.470   7.534 -1.4280  0.7406 -2.5115
  182SOPE     N20752   5.538   2.312   6.109  0.4497 -0.3423  0.2213
  182SOPE   HN120753   5.448   2.329   6.058  0.6996 -1.5918 -0.6888
  182SOPE   HN220754   5.593   2.252   6.044  0.9990  2.1339 -1.7543
  182SOPE   HN320755   5.518   2.252   6.191 -0.3862 -1.8158 -0.9961
  182SOPE   C1220756   5.612   2.434   6.150 -0.2058 -0.2862 -0.2982
  182SOPE  H12A20757   5.549   2.472   6.233 -0.7591  0.9020 -1.2316
  182SOPE  H12B20758   5.616   2.507   6.066 -1.6529 -0.1939 -0.3199
  182SOPE   C1120759   5.747   2.380   6.200  0.5043  0.2306 -0.0940
  182SOPE  H11A20760   5.808   2.464   6.238  1.5600 -0.9014  0.7810
  182SOPE  H11B20761   5.809   2.346   6.114  0.9568  1.4282 -0.2541
  182SOPE     P20762   5.857   2.177   6.320 -0.2469  0.2171  0.1818
  182SOPE   O1320763   5.939   2.184   6.198  0.2013  0.3775 -0.5443
  182SOPE   O1420764   5.804   2.050   6.365 -0.1527 -0.2912 -0.6231
  182SOPE   O1220765   5.736   2.277   6.299  0.0553 -0.4406 -0.0110
  182SOPE   O1120766   5.935   2.242   6.433  0.4503 -0.5666 -0.0571
  182SOPE    C120767   5.879   2.350   6.513 -0.6347 -0.2675  0.9846
  182SOPE    HA20768   5.801   2.412   6.465  0.4977 -0.6579 -1.5528
  182SOPE    HB20769   5.967   2.412   6.538  0.2941 -0.5914 -1.1993
  182SOPE    C220770   5.825   2.301   6.648 -0.8018  0.1939  0.7399
  182SOPE    HS20771   5.819   2.390   6.714 -1.9903 -1.3567  2.8359
  182SOPE   O2120772   5.908   2.207   6.718 -0.3652 -0.4019  0.3558
  182SOPE   C2120773   6.025   2.249   6.750  0.3648  0.6125  0.4135
  182SOPE   O2220774   6.068   2.364   6.740  0.5495 -1.1430 -0.8449
  182SOPE   C2220775   6.104   2.125   6.806 -0.5587 -0.0648 -0.0542
  182SOPE   H2R20776   6.147   2.066   6.722  0.7953 -2.4548  2.1500
  182SOPE   H2S20777   6.021   2.062   6.846 -1.6430  0.9129 -0.6834
  182SOPE    C320778   5.689   2.234   6.637  0.3669  0.2420  0.9465
  182SOPE    HX20779   5.710   2.134   6.593  0.5212  0.5230  0.3745
  182SOPE    HY20780   5.619   2.287   6.569  1.6527  1.3653  0.4530
  182SOPE   O3120781   5.622   2.236   6.762  0.1138  0.1264 -0.7869
  182SOPE   C3120782   5.605   2.116   6.823  0.0054 -0.1924 -0.0576
  182SOPE   O3220783   5.647   2.015   6.780 -0.7203  0.2479  0.5206
  182SOPE   C3220784   5.529   2.133   6.952 -0.2621  0.4999  0.3855
  182SOPE   H2X20785   5.440   2.068   6.946  0.3833 -0.7932  3.3973
  182SOPE   H2Y20786   5.513   2.242   6.966  2.4824  1.0266  0.0248
  182SOPE   C2320787   6.207   2.160   6.911 -0.5220 -0.1592 -0.3419
  182SOPE   H3R20788   6.162   2.230   6.986 -0.5853 -1.2539  0.6619
  182SOPE   H3S20789   6.292   2.218   6.870 -0.0793 -0.8890 -0.4648
  182SOPE   C2420790   6.272   2.033   6.975 -0.0088  0.2979  0.5131
  182SOPE   H4R20791   6.193   1.976   7.028  0.1513 -0.7059 -0.3016
  182SOPE   H4S20792   6.292   1.964   6.891 -2.7541 -1.6462  1.3429
  182SOPE   C2520793   6.385   2.053   7.074 -0.4789 -0.9934 -0.0939
  182SOPE   H5R20794   6.439   1.956   7.082 -0.3604 -0.9924 -0.7748
  182SOPE   H5S20795   6.461   2.128   7.042 -2.3552  1.5770  1.0730
  182SOPE   C2620796   6.325   2.103   7.209  0.0237 -0.1082 -0.3870
  182SOPE   H6R20797   6.288   2.207   7.200 -1.1813 -0.4463  0.3528
  182SOPE   H6S20798   6.236   2.040   7.231 -0.8633  0.1822 -2.8123
  182SOPE   C2720799   6.434   2.090   7.325  0.4087  0.3675  0.0000
  182SOPE   H7R20800   6.479   1.988   7.329 -1.2539 -0.3942  0.2100
  182SOPE   H7S20801   6.510   2.165   7.292  0.0720  0.2544 -1.0893
  182SOPE   C2820802   6.386   2.135   7.463 -0.0419  0.1519 -0.2361
  182SOPE   H8R20803   6.477   2.145   7.526  1.6163  1.2192 -2.6756
  182SOPE   H8S20804   6.348   2.238   7.450 -0.7531 -0.2299 -1.3335
  182SOPE   C2920805   6.284   2.039   7.518 -0.1576  0.3155 -0.1277
  182SOPE   H9120806   6.219   1.986   7.447 -0.1239 -0.3539  0.3264
  182SOPE  C21020807   6.266   2.014   7.654  0.0690  0.1165  0.2658
  182SOPE  H10120808   6.200   1.942   7.704 -1.6074  2.7628  2.0913
  182SOPE  C21120809   6.340   2.078   7.761 -0.2300  0.2882  0.0588
  182SOPE  H11R20810   6.270   2.111   7.841 -1.1066 -1.6080  0.1256
  182SOPE  H11S20811   6.381   2.176   7.730  0.5009  0.4501  1.4467
  182SOPE  C21220812   6.459   1.991   7.815 -0.8757 -0.2782  0.7344
  182SOPE  H12R20813   6.507   2.059   7.889 -1.2593 -1.3804  2.0454
  182SOPE  H12S20814   6.530   1.990   7.730  0.3149  1.1591  1.6526
  182SOPE  C21320815   6.429   1.857   7.875 -0.5187  0.5588  0.1294
  182SOPE  H13R20816   6.510   1.787   7.845 -3.3609 -2.6465 -0.7217
  182SOPE  H13S20817   6.335   1.818   7.832  0.7587 -1.9738 -0.5615
  182SOPE  C21420818   6.418   1.862   8.029  0.1346  1.3606  0.4907
  182SOPE  H14R20819   6.502   1.926   8.062  0.0663  2.1814 -0.8370
  182SOPE  H14S20820   6.418   1.755   8.059 -3.6115  0.8355 -0.8655
  182SOPE  C21520821   6.281   1.914   8.086 -0.2332 -0.4586 -0.3795
  182SOPE  H15R20822   6.190   1.869   8.040 -1.2241  0.3491  0.7451
  182SOPE  H15S20823   6.274   2.023   8.067  0.3767 -0.1598  1.0507
  182SOPE  C21620824   6.267   1.892   8.235  0.2072 -0.2959  0.6180
  182SOPE  H16R20825   6.353   1.930   8.294  0.3625 -2.0296  1.5931
  182SOPE  H16S20826   6.261   1.782   8.248 -0.5772 -0.3968 -0.4933
  182SOPE  C21720827   6.136   1.963   8.283 -0.3120  0.1783 -0.2518
  182SOPE  H17R20828   6.048   1.930   8.223 -0.1629 -0.2181 -0.2575
  182SOPE  H17S20829   6.136   2.067   8.243 -2.1346 -0.3881 -1.8968
  182SOPE  C21820830   6.098   1.955   8.435 -0.3513  0.2260  0.6205
  182SOPE  H18R20831   6.088   1.849   8.467  3.1023 -0.6952 -0.8791
  182SOPE  H18S20832   6.009   2.016   8.461 -0.5102  0.6282 -0.7495
  182SOPE  H18T20833   6.185   1.995   8.491  0.4513 -2.5201  1.5028
  182SOPE   C3320834   5.623   2.096   7.069 -0.3638  0.0806  0.1827
  182SOPE   H3X20835   5.663   1.993   7.056 -2.2054 -0.9433  2.0898
  182SOPE   H3Y20836   5.557   2.088   7.158  0.6494  0.2864  0.9638
  182SOPE   C3420837   5.730   2.207   7.090  0.1836  0.2293  0.2213
  182SOPE   H4X20838   5.664   2.294   7.107  0.6247  0.8618 -1.1944
  182SOPE   H4Y20839   5.774   2.228   6.990 -1.0854 -1.6636 -0.7918
  182SOPE   C3520840   5.823   2.191   7.206  0.2121  0.4028 -0.7034
  182SOPE   H5X20841   5.905   2.265   7.219 -0.6640  0.9355  2.8822
  182SOPE   H5Y20842   5.880   2.098   7.185  2.2510  1.4066  0.1022
  182SOPE   C3620843   5.756   2.164   7.347  0.2292  0.0892  0.9193
  182SOPE   H6X20844   5.699   2.069   7.338 -1.0175  0.9298 -0.5408
  182SOPE   H6Y20845   5.695   2.254   7.370  0.0423  0.2233 -0.0599
  182SOPE   C3720846   5.861   2.142   7.460  0.9005 -0.2328  1.0517
  182SOPE   H7X20847   5.913   2.236   7.489  0.0540  0.9169 -0.9252
  182SOPE   H7Y20848   5.938   2.072   7.421  1.6220  0.9339  0.3114
  182SOPE   C3820849   5.781   2.079   7.578  0.1833  0.1546  0.8452
  182SOPE   H8X20850   5.746   1.979   7.545 -0.6643  0.7051  0.0315
  182SOPE   H8Y20851   5.689   2.140   7.587 -1.1187 -1.4438 -0.9334
  182SOPE   C3920852   5.847   2.093   7.717 -0.2336  0.4073  0.1164
  182SOPE   H9X20853   5.900   2.190   7.720  0.2845  0.1191  0.4683
  182SOPE   H9Y20854   5.928   2.017   7.723 -0.6992 -0.0547  0.6542
  182SOPE  C31020855   5.752   2.077   7.830 -0.3941 -0.0533 -0.5306
  182SOPE  H10X20856   5.687   1.988   7.818 -0.1575  0.0115 -2.4990
  182SOPE  H10Y20857   5.686   2.166   7.818 -3.1420 -2.1690 -2.3106
  182SOPE  C31120858   5.816   2.076   7.975  1.1116  0.1904 -0.1139
  182SOPE  H11X20859   5.852   2.181   7.982 -1.5297  1.3801 -2.4780
  182SOPE  H11Y20860   5.891   1.996   7.991 -0.3437 -1.1959  0.0120
  182SOPE  C31220861   5.702   2.046   8.084 -0.2850 -0.3467  0.3203
  182SOPE  H12X20862   5.657   1.946   8.065 -0.1794  0.0496 -2.4690
  182SOPE  H12Y20863   5.631   2.130   8.072  0.4606  0.2766  0.1413
  182SOPE  C31320864   5.763   2.057   8.229  0.7313  0.2589  0.3014
  182SOPE  H13X20865   5.792   2.161   8.252 -0.3183  1.2909 -2.6212
  182SOPE  H13Y20866   5.850   1.989   8.241 -0.3085 -1.4635 -1.3096
  182SOPE  C31420867   5.665   2.021   8.333  0.8300  0.1830  0.2196
  182SOPE  H14X20868   5.718   1.978   8.420  0.4905 -2.4681 -0.8020
  182SOPE  H14Y20869   5.599   1.936   8.307  1.7544 -0.9182  1.3712
  182SOPE  C31520870   5.575   2.136   8.385  0.0047  0.1990  0.1637
  182SOPE  H15X20871   5.537   2.194   8.299 -1.1694  0.7169  1.0044
  182SOPE  H15Y20872   5.634   2.210   8.442  2.3652 -1.0097 -0.5566
  182SOPE  C31620873   5.450   2.091   8.458  0.0415  0.3968 -0.4288
  182SOPE  H16X20874   5.472   2.036   8.552 -1.0218 -0.2230 -0.5265
  182SOPE  H16Y20875   5.395   2.010   8.406  1.3577 -2.0130  1.7018
  182SOPE  C31720876   5.358   2.210   8.511 -0.3401  0.5866  0.4103
  182SOPE  H17X20877   5.254   2.173   8.505 -0.3560  0.6612  0.2188
  182SOPE  H17Y20878   5.363   2.306   8.455  0.8385 -0.6623 -1.7595
  182SOPE  C31820879   5.397   2.245   8.655  0.3340 -0.4977  0.5526
  182SOPE  H18X20880   5.499   2.290   8.651  1.1507 -2.4044 -1.6676
  182SOPE  H18Y20881   5.411   2.158   8.723  3.0964 -0.5848 -0.0184
  182SOPE  H18Z20882   5.339   2.328   8.702 -0.0768 -0.8994  0.7685
  183SOPE     N20883   4.756   4.049   6.406  0.3871  0.6694 -0.2920
  183SOPE   HN120884   4.812   4.124   6.361 -1.5615  2.0673 -0.5123
  183SOPE   HN220885   4.810   3.962   6.425 -0.9737 -0.2817 -0.6241
  183SOPE   HN320886   4.675   4.022   6.346  0.7406  0.2184 -0.5689
  183SOPE   C1220887   4.692   4.105   6.535  0.2230 -0.0224  0.1252
  183SOPE  H12A20888   4.768   4.157   6.597  0.4162  1.7670 -1.4719
  183SOPE  H12B20889   4.636   4.016   6.569  0.8878 -0.2793  0.5575
  183SOPE   C1120890   4.601   4.222   6.490 -0.1945  0.0630 -0.3361
  183SOPE  H11A20891   4.662   4.293   6.430  0.5914 -1.1815 -1.0634
  183SOPE  H11B20892   4.566   4.268   6.585 -0.4625 -1.5134  0.3716
  183SOPE     P20893   4.349   4.246   6.401  0.0238  0.4598  0.2983
  183SOPE   O1320894   4.286   4.176   6.285 -0.5174  0.4711 -0.1494
  183SOPE   O1420895   4.368   4.388   6.393  0.2481 -0.7747 -0.0962
  183SOPE   O1220896   4.486   4.177   6.410 -0.0086 -0.2902  0.7222
  183SOPE   O1120897   4.283   4.209   6.534 -0.4673 -0.2313  0.1114
  183SOPE    C120898   4.308   4.092   6.614 -0.0869 -0.8252 -0.2822
  183SOPE    HA20899   4.417   4.077   6.632 -0.2654 -0.2570  1.5675
  183SOPE    HB20900   4.255   4.004   6.571  0.7183 -1.8202  0.6943
  183SOPE    C220901   4.243   4.111   6.757  0.1887  0.1374 -0.0260
  183SOPE    HS20902   4.140   4.145   6.735 -0.5649 -0.7827  1.8830
  183SOPE   O2120903   4.317   4.203   6.831 -0.2771 -0.0155 -0.0120
  183SOPE   C2120904   4.259   4.307   6.883 -0.6438  0.0303  0.6013
  183SOPE   O2220905   4.142   4.344   6.866 -0.3613 -0.5340  0.6241
  183SOPE   C2220906   4.353   4.388   6.969 -0.5032  0.5921 -0.6797
  183SOPE   H2R20907   4.402   4.469   6.911  2.2184  0.4815  1.2708
  183SOPE   H2S20908   4.441   4.324   6.991 -2.6218 -2.4134 -0.3159
  183SOPE    C320909   4.239   3.979   6.843 -0.2023  0.3834  0.0441
  183SOPE    HX20910   4.345   3.945   6.842 -0.1546  0.5392 -0.9100
  183SOPE    HY20911   4.177   3.911   6.780 -2.5985  1.6293  0.9365
  183SOPE   O3120912   4.171   3.996   6.972  0.3445 -0.2050 -0.6369
  183SOPE   C3120913   4.210   3.909   7.068 -0.3944 -0.6079  0.1190
  183SOPE   O3220914   4.292   3.820   7.069  0.1673 -0.6167  0.2478
  183SOPE   C3220915   4.123   3.939   7.187 -0.6458 -0.4624  0.2729
  183SOPE   H2X20916   4.016   3.912   7.174 -1.6349  2.7556  0.7476
  183SOPE   H2Y20917   4.126   4.050   7.197  1.3338 -0.6070  1.7912
  183SOPE   C2320918   4.302   4.456   7.103 -0.9758  0.3072  0.6001
  183SOPE   H3R20919   4.195   4.487   7.101 -1.2656 -0.5186  1.9203
  183SOPE   H3S20920   4.373   4.540   7.117 -0.1658  0.0541 -1.5820
  183SOPE   C2420921   4.307   4.358   7.225  0.0541 -0.0625  0.3133
  183SOPE   H4R20922   4.273   4.257   7.196 -2.6327  1.0921 -0.8750
  183SOPE   H4S20923   4.414   4.343   7.252  0.9030  1.0000 -2.1607
  183SOPE   C2520924   4.239   4.424   7.347  0.3545 -0.9724 -0.6903
  183SOPE   H5R20925   4.268   4.531   7.349 -2.2283 -0.1896 -1.1310
  183SOPE   H5S20926   4.129   4.429   7.330  0.2466 -1.4598 -0.1323
  183SOPE   C2620927   4.254   4.343   7.478 -0.1342 -0.2838  0.2317
  183SOPE   H6R20928   4.208   4.245   7.452 -1.0629 -0.0992  1.0713
  183SOPE   H6S20929   4.362   4.338   7.504 -0.1959  1.7080  1.0935
  183SOPE   C2720930   4.187   4.405   7.603  0.1174  0.6641  0.3690
  183SOPE   H7R20931   4.255   4.490   7.626  1.4490 -0.8089  2.1578
  183SOPE   H7S20932   4.081   4.429   7.580  0.2342 -0.3875 -1.4875
  183SOPE   C2820933   4.186   4.307   7.730  0.0782 -0.0623  0.0382
  183SOPE   H8R20934   4.131   4.215   7.700  0.2116  0.0896 -0.6957
  183SOPE   H8S20935   4.294   4.287   7.747  0.2868  0.8199 -0.1852
  183SOPE   C2920936   4.128   4.370   7.854 -0.3368  0.2596 -0.5368
  183SOPE   H9120937   4.018   4.374   7.852 -0.3808 -0.7665 -0.5269
  183SOPE  C21020938   4.203   4.420   7.953  0.4366 -0.2018  0.0419
  183SOPE  H10120939   4.155   4.488   8.025  2.4739  4.2343 -2.4128
  183SOPE  C21120940   4.352   4.433   7.956 -0.3650  0.2082 -0.4585
  183SOPE  H11R20941   4.407   4.386   7.872 -1.1857 -1.4481 -0.1193
  183SOPE  H11S20942   4.387   4.371   8.041  1.7510  0.0137 -1.3948
  183SOPE  C21220943   4.400   4.577   7.973  0.2033  0.1288 -0.1993
  183SOPE  H12R20944   4.383   4.628   8.070  2.1531 -1.2971  0.9801
  183SOPE  H12S20945   4.352   4.638   7.894 -0.0157  1.3131  0.8235
  183SOPE  C21320946   4.551   4.599   7.945  0.2903  0.5938  0.5158
  183SOPE  H13R20947   4.567   4.708   7.931  0.5179  0.8298  2.3849
  183SOPE  H13S20948   4.575   4.544   7.852 -0.8964 -3.0335  2.1868
  183SOPE  C21420949   4.642   4.553   8.061 -1.4694  0.2928  0.2027
  183SOPE  H14R20950   4.642   4.445   8.085 -1.4376  0.1940 -0.2313
  183SOPE  H14S20951   4.610   4.619   8.144  1.1643  1.0099  0.7386
  183SOPE  C21520952   4.791   4.599   8.039  0.2121  0.0038  0.5606
  183SOPE  H15R20953   4.847   4.582   8.134 -0.9975 -0.6983  1.1798
  183SOPE  H15S20954   4.794   4.709   8.030 -0.4176  0.2922  2.9740
  183SOPE  C21620955   4.866   4.535   7.920  0.0154 -0.0870 -0.6180
  183SOPE  H16R20956   4.809   4.576   7.834 -2.7640 -1.1319  0.6029
  183SOPE  H16S20957   4.855   4.424   7.925 -3.5098  0.2053  1.3187
  183SOPE  C21720958   5.012   4.572   7.925  1.1086 -0.1867  0.6333
  183SOPE  H17R20959   5.057   4.548   8.024  0.2401  1.4147  1.4397
  183SOPE  H17S20960   5.026   4.681   7.909 -1.2865  0.0353 -0.4214
  183SOPE  C21820961   5.101   4.496   7.824  0.4032 -0.8336 -0.6339
  183SOPE  H18R20962   5.209   4.489   7.851  0.6103 -1.1305 -1.5117
  183SOPE  H18S20963   5.095   4.529   7.718 -0.4103 -0.7260 -0.5611
  183SOPE  H18T20964   5.055   4.395   7.826 -0.2019 -0.5614  0.7546
  183SOPE   C3320965   4.173   3.885   7.324 -0.2487  0.0011  0.0003
  183SOPE   H3X20966   4.275   3.929   7.332 -0.7243  1.2841 -0.6085
  183SOPE   H3Y20967   4.175   3.774   7.322  0.3973 -0.0421  1.7326
  183SOPE   C3420968   4.080   3.921   7.436 -0.3545 -0.3895 -0.8559
  183SOPE   H4X20969   3.992   3.854   7.429 -0.4583 -0.1937 -1.5140
  183SOPE   H4Y20970   4.045   4.027   7.438  0.6555 -0.0593 -0.0422
  183SOPE   C3520971   4.133   3.894   7.571 -0.5876 -0.0737 -0.4380
  183SOPE   H5X20972   4.234   3.940   7.581 -0.3896 -0.2732 -1.4485
  183SOPE   H5Y20973   4.144   3.784   7.562  2.6551  0.3637 -3.6277
  183SOPE   C3620974   4.041   3.934   7.693  0.6602 -0.6425 -0.6346
  183SOPE   H6X20975   3.936   3.904   7.672 -0.1180  0.5374  1.2494
  183SOPE   H6Y20976   4.033   4.045   7.701  1.9077 -0.6060  0.3849
  183SOPE   C3720977   4.081   3.886   7.836 -0.2881  0.2088 -0.1769
  183SOPE   H7X20978   4.084   3.776   7.852  1.4850  0.1646 -0.6166
  183SOPE   H7Y20979   3.994   3.912   7.900 -0.6263 -0.5904 -0.3020
  183SOPE   C3820980   4.211   3.948   7.897  0.1636  0.2310  0.5124
  183SOPE   H8X20981   4.212   4.059   7.895 -0.5422  0.2286 -0.4947
  183SOPE   H8Y20982   4.296   3.921   7.831  0.0342  1.2809 -0.0975
  183SOPE   C3920983   4.241   3.914   8.043  0.1386  0.0062 -0.5109
  183SOPE   H9X20984   4.273   3.807   8.042  0.6922  0.1539  0.1691
  183SOPE   H9Y20985   4.142   3.931   8.091 -0.8831  0.6963 -2.7237
  183SOPE  C31020986   4.358   3.994   8.100 -0.7385  0.0055 -0.6128
  183SOPE  H10X20987   4.351   4.103   8.079 -2.9311  1.0555  4.1789
  183SOPE  H10Y20988   4.452   3.951   8.061 -0.3211 -1.0691  1.4275
  183SOPE  C31120989   4.354   3.986   8.250  0.1021 -0.4618 -0.1301
  183SOPE  H11X20990   4.329   3.885   8.291  0.9399 -0.3721  0.6566
  183SOPE  H11Y20991   4.274   4.051   8.290  0.8669  1.4720 -1.6147
  183SOPE  C31220992   4.480   4.031   8.326  0.1082  0.3367 -0.2875
  183SOPE  H12X20993   4.566   3.961   8.322 -2.0085 -2.4100 -0.8636
  183SOPE  H12Y20994   4.462   4.024   8.435 -2.7019 -2.0510 -0.7770
  183SOPE  C31320995   4.514   4.183   8.321  0.6310 -0.2869 -1.2484
  183SOPE  H13X20996   4.555   4.201   8.220  0.5659  0.0401 -1.2170
  183SOPE  H13Y20997   4.603   4.190   8.387  0.2614 -0.2949 -0.7440
  183SOPE  C31420998   4.399   4.283   8.367  0.3778  0.7256 -0.0134
  183SOPE  H14X20999   4.368   4.245   8.466  2.3804 -0.4248  0.2279
  183SOPE  H14Y21000   4.312   4.264   8.300 -0.1066  1.3746  0.4204
  183SOPE  C31521001   4.443   4.430   8.385 -0.4546 -0.0508  0.5078
  183SOPE  H15X21002   4.358   4.473   8.442 -2.0649 -0.7360 -1.2452
  183SOPE  H15Y21003   4.455   4.483   8.288 -0.7785 -0.7939  0.0528
  183SOPE  C31621004   4.584   4.442   8.448 -1.2803  0.3872 -0.0131
  183SOPE  H16X21005   4.648   4.382   8.380 -1.1752  0.8788 -0.3513
  183SOPE  H16Y21006   4.587   4.388   8.544  1.5461 -0.1596 -0.3392
  183SOPE  C31721007   4.642   4.583   8.469 -0.6889  0.1242  0.5401
  183SOPE  H17X21008   4.627   4.611   8.576  1.2125  0.4607  0.7661
  183SOPE  H17Y21009   4.603   4.663   8.403 -1.1270 -0.9752 -0.5599
  183SOPE  C31821010   4.788   4.589   8.466 -0.5159  0.1557  0.0094
  183SOPE  H18X21011   4.813   4.698   8.468  1.1970 -0.1966 -0.7022
  183SOPE  H18Y21012   4.831   4.539   8.377 -3.0913 -1.4420 -0.4329
  183SOPE  H18Z21013   4.834   4.543   8.556 -0.0793 -0.7764 -0.6775
  184SOPE     N21014   3.363   5.514   6.067 -0.9580  0.3608 -0.8951
  184SOPE   HN121015   3.290   5.451   6.106  1.6922 -1.2118  1.9738
  184SOPE   HN221016   3.320   5.589   6.010 -2.3896  0.1293 -0.1839
  184SOPE   HN321017   3.431   5.461   6.009 -1.2129  0.0323 -0.8996
  184SOPE   C1221018   3.449   5.578   6.170 -0.9220  0.7255 -0.1634
  184SOPE  H12A21019   3.381   5.584   6.257 -1.6587  0.0672 -0.6880
  184SOPE  H12B21020   3.472   5.686   6.153  0.9909  0.3319 -0.2908
  184SOPE   C1121021   3.580   5.500   6.201 -0.8437 -0.5810  0.5393
  184SOPE  H11A21022   3.645   5.554   6.273  0.3141 -0.8847 -0.2418
  184SOPE  H11B21023   3.640   5.490   6.107 -0.7036  0.1050  0.5504
  184SOPE     P21024   3.637   5.254   6.255 -0.0046  0.0639 -0.3458
  184SOPE   O1321025   3.713   5.258   6.126 -0.7973 -0.0849 -0.2053
  184SOPE   O1421026   3.558   5.125   6.274 -0.3583 -0.3912  0.9689
  184SOPE   O1221027   3.541   5.379   6.265  0.4675 -0.2901  0.0906
  184SOPE   O1121028   3.750   5.277   6.363 -0.4838 -0.1926  0.1427
  184SOPE    C121029   3.736   5.345   6.492  0.1622  0.3450  0.6368
  184SOPE    HA21030   3.630   5.378   6.504 -0.5599 -1.7151  0.2814
  184SOPE    HB21031   3.805   5.432   6.486  1.8901 -0.9876  0.7120
  184SOPE    C221032   3.778   5.250   6.608  0.3062  0.1619  0.2196
  184SOPE    HS21033   3.860   5.200   6.552  0.4246  0.4170  0.1624
  184SOPE   O2121034   3.663   5.176   6.636  0.0346 -0.2599  0.0629
  184SOPE   C2121035   3.680   5.062   6.699 -0.0699  0.0509  0.9994
  184SOPE   O2221036   3.793   5.019   6.719 -0.2974 -0.4598 -0.1171
  184SOPE   C2221037   3.552   4.988   6.729 -0.5537 -0.1049  0.4353
  184SOPE   H2R21038   3.552   4.882   6.695 -0.1533 -0.1242  0.4819
  184SOPE   H2S21039   3.471   5.045   6.679  0.0476 -0.4042 -0.9411
  184SOPE    C321040   3.840   5.313   6.730  0.0951 -0.9556 -0.7465
  184SOPE    HX21041   3.936   5.355   6.693 -0.3298  3.3298  2.2444
  184SOPE    HY21042   3.859   5.234   6.806 -1.5331  0.0565  0.7882
  184SOPE   O3121043   3.763   5.419   6.778  0.2194  0.1658 -0.0997
  184SOPE   C3121044   3.682   5.387   6.887 -0.1538 -0.1756  0.8599
  184SOPE   O3221045   3.688   5.278   6.937  0.4578  1.0260  0.5087
  184SOPE   C3221046   3.584   5.500   6.913  0.0625  1.0875 -0.5374
  184SOPE   H2X21047   3.482   5.456   6.920  1.1410 -1.4466  0.1386
  184SOPE   H2Y21048   3.584   5.570   6.827 -0.1171  1.7254 -0.0254
  184SOPE   C2321049   3.524   4.983   6.881  0.0955  0.6270 -0.3559
  184SOPE   H3R21050   3.420   4.948   6.899  0.4315 -1.1092 -1.5656
  184SOPE   H3S21051   3.528   5.088   6.919  0.1662  0.8662 -1.0166
  184SOPE   C2421052   3.622   4.891   6.952  0.8493 -0.3520  0.4238
  184SOPE   H4R21053   3.634   4.796   6.897 -1.3855 -0.8904  0.7413
  184SOPE   H4S21054   3.725   4.931   6.958  0.6366  0.1011  1.3379
  184SOPE   C2521055   3.585   4.858   7.104 -0.2508  0.6109  0.1297
  184SOPE   H5R21056   3.474   4.871   7.103 -0.0446  2.6888 -0.7897
  184SOPE   H5S21057   3.604   4.751   7.125 -0.2205 -0.1444 -3.2683
  184SOPE   C2621058   3.650   4.957   7.196 -0.3080  0.1764  0.1879
  184SOPE   H6R21059   3.754   4.934   7.226 -0.2011 -0.2191 -0.4604
  184SOPE   H6S21060   3.666   5.057   7.149 -1.1197  0.2275  0.0018
  184SOPE   C2721061   3.560   4.982   7.305  0.2953  0.2203 -1.1195
  184SOPE   H7R21062   3.459   4.997   7.262 -0.1933 -1.0935 -0.5066
  184SOPE   H7S21063   3.556   4.896   7.376  0.5828  0.2233 -1.0953
  184SOPE   C2821064   3.599   5.105   7.392 -0.3490  0.0609 -0.0717
  184SOPE   H8R21065   3.597   5.191   7.322 -1.8101 -1.6414 -2.2860
  184SOPE   H8S21066   3.510   5.118   7.457  0.6800  0.1976  1.3369
  184SOPE   C2921067   3.726   5.088   7.467 -0.2084 -0.0759 -0.0879
  184SOPE   H9121068   3.806   5.060   7.396 -2.1708  0.1108 -2.5124
  184SOPE  C21021069   3.759   5.119   7.589  0.1491 -0.6596 -1.1317
  184SOPE  H10121070   3.865   5.104   7.614  0.7254  1.0165 -2.4279
  184SOPE  C21121071   3.679   5.174   7.703  0.1961  0.6677 -0.3690
  184SOPE  H11R21072   3.598   5.101   7.724  0.4342  0.0994 -1.3796
  184SOPE  H11S21073   3.621   5.267   7.687 -1.6436 -0.4876 -0.7638
  184SOPE  C21221074   3.759   5.190   7.833 -1.0883 -0.4807  0.2981
  184SOPE  H12R21075   3.820   5.283   7.824  0.3718 -1.4283 -0.1510
  184SOPE  H12S21076   3.831   5.105   7.834  0.0163  0.4196  0.0431
  184SOPE  C21321077   3.676   5.193   7.952  0.2956 -0.9028  0.1859
  184SOPE  H13R21078   3.608   5.106   7.954  0.2554 -0.9143 -1.1218
  184SOPE  H13S21079   3.604   5.278   7.953  1.1245 -0.1162 -1.7410
  184SOPE  C21421080   3.770   5.182   8.072 -0.9051 -0.2870 -0.6751
  184SOPE  H14R21081   3.851   5.258   8.065  0.5755 -1.5118  1.8577
  184SOPE  H14S21082   3.817   5.082   8.065 -0.1264 -0.0311  0.5726
  184SOPE  C21521083   3.716   5.180   8.218 -0.1363 -0.8382  0.2675
  184SOPE  H15R21084   3.803   5.177   8.287 -0.5949 -0.4170  0.8710
  184SOPE  H15S21085   3.657   5.088   8.236  0.5799 -1.5971 -1.0734
  184SOPE  C21621086   3.625   5.298   8.240  0.0930 -0.3759  0.0767
  184SOPE  H16R21087   3.560   5.327   8.155  1.4324  2.9741  0.0387
  184SOPE  H16S21088   3.696   5.384   8.241  0.0301 -0.2223 -2.2652
  184SOPE  C21721089   3.553   5.291   8.376 -0.3677 -0.5850 -0.3061
  184SOPE  H17R21090   3.634   5.278   8.450 -1.0520  1.3335  0.8376
  184SOPE  H17S21091   3.499   5.194   8.367  0.3491 -1.3193  2.5017
  184SOPE  C21821092   3.465   5.416   8.404 -0.3810  0.1450  0.6667
  184SOPE  H18R21093   3.401   5.399   8.494 -2.3402 -1.2854 -0.9036
  184SOPE  H18S21094   3.386   5.415   8.325  0.6832 -0.5031 -0.4184
  184SOPE  H18T21095   3.508   5.516   8.426 -0.9170  1.1041 -2.1685
  184SOPE   C3321096   3.617   5.565   7.053 -0.0378 -0.5928 -0.2495
  184SOPE   H3X21097   3.711   5.624   7.058 -0.7393  0.9239 -3.0508
  184SOPE   H3Y21098   3.619   5.476   7.120  0.4549 -0.2419  0.2081
  184SOPE   C3421099   3.506   5.665   7.091 -0.4753  1.0993 -0.5723
  184SOPE   H4X21100   3.413   5.606   7.078 -0.0861 -0.3343  2.3358
  184SOPE   H4Y21101   3.504   5.746   7.015 -1.3419 -0.0904 -1.8793
  184SOPE   C3521102   3.523   5.730   7.229 -0.2838  0.3530 -0.4687
  184SOPE   H5X21103   3.460   5.820   7.232  1.7629  1.8750 -0.8112
  184SOPE   H5Y21104   3.628   5.758   7.253 -0.0509 -0.8926  0.0765
  184SOPE   C3621105   3.467   5.622   7.332  0.2166  0.2927 -0.2865
  184SOPE   H6X21106   3.516   5.522   7.322  1.5262  0.6629  1.7051
  184SOPE   H6Y21107   3.360   5.607   7.307 -0.1481  2.5617 -0.2519
  184SOPE   C3721108   3.487   5.672   7.473 -0.0070 -0.4464  0.2591
  184SOPE   H7X21109   3.445   5.774   7.484  0.2171  0.2458 -3.6979
  184SOPE   H7Y21110   3.598   5.665   7.484  0.2331  0.7365 -1.1080
  184SOPE   C3821111   3.433   5.581   7.577  0.3207  0.2349 -1.1772
  184SOPE   H8X21112   3.480   5.480   7.573  0.9522  0.3955  0.9736
  184SOPE   H8Y21113   3.323   5.573   7.564  0.2975  1.0727 -1.5198
  184SOPE   C3921114   3.458   5.640   7.717 -0.0064  0.1403 -0.1496
  184SOPE   H9X21115   3.419   5.744   7.712 -1.0716 -0.3144 -3.5073
  184SOPE   H9Y21116   3.565   5.659   7.738  0.2915 -1.5448 -0.0181
  184SOPE  C31021117   3.395   5.555   7.824 -0.8017 -0.2302 -0.7581
  184SOPE  H10X21118   3.415   5.446   7.830 -0.9359 -0.1750  1.0277
  184SOPE  H10Y21119   3.288   5.576   7.802 -0.7749  2.0623  0.9083
  184SOPE  C31121120   3.432   5.595   7.966  0.4422  0.2450 -0.3534
  184SOPE  H11X21121   3.541   5.606   7.982  0.6903 -2.9119  0.8942
  184SOPE  H11Y21122   3.395   5.517   8.036 -1.3124  0.5887 -0.8508
  184SOPE  C31221123   3.358   5.724   8.009  0.3070  0.2533  0.1220
  184SOPE  H12X21124   3.261   5.728   7.953  0.6262  1.5120 -0.3957
  184SOPE  H12Y21125   3.421   5.812   7.982  1.0639 -0.6435 -1.1329
  184SOPE  C31321126   3.329   5.735   8.161 -0.0621  0.3452  0.8340
  184SOPE  H13X21127   3.428   5.708   8.203  0.8916  0.1348 -1.3905
  184SOPE  H13Y21128   3.252   5.658   8.183  0.0840  0.2087  0.8793
  184SOPE  C31421129   3.301   5.878   8.204  0.4958  0.9241 -0.2281
  184SOPE  H14X21130   3.399   5.930   8.198  1.0912 -0.1408 -0.0296
  184SOPE  H14Y21131   3.267   5.883   8.309 -0.1276  2.5390 -0.4841
  184SOPE  C31521132   3.183   5.954   8.140  0.5776  0.6261  0.8353
  184SOPE  H15X21133   3.174   5.930   8.032  1.5826  1.2563  0.5981
  184SOPE  H15Y21134   3.224   6.057   8.139  1.6390  0.2206 -0.0353
  184SOPE  C31621135   3.056   5.945   8.227 -0.0020  0.2015  0.2975
  184SOPE  H16X21136   3.088   5.965   8.331 -2.3712  0.9424  0.9275
  184SOPE  H16Y21137   3.014   5.843   8.212 -0.4344  0.4380 -0.1525
  184SOPE  C31721138   2.947   6.047   8.192 -0.5211  0.1405  0.2794
  184SOPE  H17X21139   2.852   6.012   8.237  0.5741 -0.5682  2.1601
  184SOPE  H17Y21140   2.930   6.041   8.083 -0.0141 -1.4044  0.2717
  184SOPE  C31821141   2.968   6.189   8.252  0.8100  0.6454  0.3963
  184SOPE  H18X21142   2.884   6.253   8.217  1.3825  2.5054  2.2394
  184SOPE  H18Y21143   3.057   6.239   8.210  0.8398  0.1548 -0.1279
  184SOPE  H18Z21144   2.962   6.183   8.363  0.5059 -2.3260  0.2998
  185SAPI   C1221145   1.683   2.229  11.109  0.1231 -0.0543  0.0074
  185SAPI    H221146   1.785   2.185  11.119  0.8746  1.1008 -1.9615
  185SAPI    O221147   1.615   2.226  11.232  0.0664  0.0064 -0.3216
  185SAPI   HO221148   1.549   2.157  11.231  0.4462 -0.4442 -3.2016
  185SAPI   C1321149   1.709   2.378  11.068  0.2774  0.3419 -0.8079
  185SAPI    H321150   1.780   2.376  10.983  2.6726 -2.7438  1.0548
  185SAPI    O321151   1.788   2.450  11.169 -0.5367  0.5060 -0.2256
  185SAPI   HO321152   1.852   2.510  11.130  0.8157  0.8257  2.2707
  185SAPI   C1421153   1.575   2.432  11.035  0.1951 -0.1376 -0.2831
  185SAPI    H421154   1.509   2.422  11.124  1.1031  0.7467  0.5110
  185SAPI    O421155   1.569   2.576  11.027 -0.4775 -0.3145  0.1822
  185SAPI   HO421156   1.480   2.595  10.997 -1.3590 -1.0530  2.1540
  185SAPI   C1521157   1.516   2.360  10.921  0.6754  0.1296  0.1759
  185SAPI    H521158   1.595   2.359  10.842  2.5289 -0.0122  1.9428
  185SAPI    O521159   1.395   2.427  10.874  0.1297  0.3763  0.3848
  185SAPI   HO521160   1.416   2.484  10.799 -0.5457 -1.8341 -1.6345
  185SAPI   C1621161   1.484   2.214  10.961  0.0816  0.0581 -0.0632
  185SAPI    H621162   1.416   2.217  11.050  0.4162 -0.2989  0.2091
  185SAPI    O621163   1.417   2.150  10.854 -0.3893 -0.2902  0.1882
  185SAPI   HO621164   1.374   2.223  10.808 -0.7422 -0.0874  0.8193
  185SAPI   C1121165   1.615   2.149  10.993 -0.7428 -0.2338 -0.6185
  185SAPI    H121166   1.680   2.153  10.903  2.3942  0.6634  1.5571
  185SAPI     P21167   1.717   1.909  11.004  0.2147  0.1850 -0.1134
  185SAPI   O1321168   1.674   1.783  11.066  0.0792  0.3523 -0.2537
  185SAPI   O1421169   1.849   1.967  11.036  0.7089  0.3895  0.4389
  185SAPI   O1221170   1.599   2.016  11.036  0.4068 -0.3011  0.4414
  185SAPI   O1121171   1.706   1.896  10.851 -0.1321  0.2953  0.5409
  185SAPI    C121172   1.594   1.850  10.787  0.1509 -0.2550  0.0584
  185SAPI    HA21173   1.504   1.894  10.834  0.7872  1.5319 -0.2710
  185SAPI    HB21174   1.587   1.893  10.684 -0.0444  0.1967  0.2596
  185SAPI    C221175   1.593   1.695  10.762  0.0810 -0.1568  0.1747
  185SAPI    HS21176   1.585   1.646  10.861 -0.6716 -1.5883 -0.5621
  185SAPI   O2121177   1.711   1.655  10.687  0.3412 -0.1337 -0.0773
  185SAPI   C2121178   1.741   1.527  10.681  0.8704 -0.6741 -0.7585
  185SAPI   O2221179   1.698   1.449  10.763  0.0737  0.6859  0.0284
  185SAPI   C2221180   1.852   1.508  10.571  0.8707  0.1728 -0.4855
  185SAPI   H2R21181   1.906   1.605  10.563  3.6579 -1.1460  1.1229
  185SAPI   H2S21182   1.926   1.433  10.607 -1.2991 -1.9592 -0.2114
  185SAPI    C321183   1.458   1.656  10.699  0.7477 -0.4709 -0.3941
  185SAPI    HX21184   1.377   1.675  10.773 -0.5840 -0.6719 -1.7383
  185SAPI    HY21185   1.473   1.549  10.673  2.6567 -0.5150  0.7279
  185SAPI   O3121186   1.443   1.731  10.581 -0.2163 -0.2853 -0.1263
  185SAPI   C3121187   1.356   1.683  10.505  0.5471 -0.1523 -0.0822
  185SAPI   O3221188   1.283   1.586  10.532  0.1937  0.1141 -0.6617
  185SAPI   C3221189   1.350   1.762  10.374 -0.2057  0.6785  0.2155
  185SAPI   H2X21190   1.299   1.698  10.299  0.5211 -1.0424  1.1270
  185SAPI   H2Y21191   1.456   1.775  10.343 -0.6543  1.2858 -1.1180
  185SAPI   C2321192   1.796   1.489  10.428 -0.4282  0.1967  0.0715
  185SAPI   H3R21193   1.744   1.392  10.409 -0.0244 -0.0629  0.2825
  185SAPI   H3S21194   1.879   1.494  10.354 -1.3152  2.0562 -0.8732
  185SAPI   C2421195   1.696   1.601  10.377 -0.7574 -0.1529  0.6833
  185SAPI   H4R21196   1.618   1.605  10.457 -0.7815  1.5949  0.6184
  185SAPI   H4S21197   1.645   1.563  10.286 -0.5338 -1.5571  1.1158
  185SAPI   C2521198   1.753   1.747  10.366  0.4931  0.2510  0.6842
  185SAPI   H5R21199   1.765   1.798  10.463  2.4951 -1.2253  1.2822
  185SAPI   C2621200   1.761   1.814  10.249  0.1004 -0.3903  0.6974
  185SAPI   H6R21201   1.795   1.918  10.259 -2.4602  0.3510  2.9409
  185SAPI   C2721202   1.729   1.755  10.110 -0.5524 -0.2440 -0.4374
  185SAPI   H7R21203   1.701   1.648  10.121 -0.2525 -0.1359  1.9295
  185SAPI   H7S21204   1.827   1.757  10.059  0.2672  4.3418  0.8361
  185SAPI   C2821205   1.618   1.823  10.031  0.7505  1.2737 -0.4134
  185SAPI   H8R21206   1.533   1.865  10.087  0.4211 -0.4511  0.4598
  185SAPI   C2921207   1.620   1.824   9.898  0.3294  0.7079  0.6170
  185SAPI   H9R21208   1.533   1.874   9.853 -0.4217 -0.2922  0.9232
  185SAPI  C21021209   1.723   1.769   9.799  0.2263 -0.4345  0.2833
  185SAPI  H10R21210   1.800   1.718   9.861 -0.7018 -0.6353  1.3051
  185SAPI  H10S21211   1.758   1.857   9.741  0.9506 -0.4269  0.7276
  185SAPI  C21121212   1.658   1.657   9.713 -0.0935  0.1249  0.7041
  185SAPI  H11R21213   1.589   1.587   9.763  2.2990 -3.7077 -0.8439
  185SAPI  C21221214   1.666   1.634   9.581  0.0029  0.2760  0.0654
  185SAPI  H12R21215   1.616   1.545   9.541 -0.9551  1.8249 -2.4432
  185SAPI  C21321216   1.750   1.711   9.480  0.1273 -0.0615  0.0614
  185SAPI  H13R21217   1.816   1.650   9.415  0.6119  0.9392 -0.4140
  185SAPI  H13S21218   1.821   1.773   9.539 -0.5679  0.9882 -0.1816
  185SAPI  C21421219   1.649   1.797   9.404 -0.5085  0.4067  0.5794
  185SAPI  H14R21220   1.576   1.854   9.465 -1.8890 -0.4341 -0.2445
  185SAPI  C21521221   1.628   1.796   9.272  0.1793 -0.4605 -0.0608
  185SAPI  H15R21222   1.560   1.872   9.232 -0.3695 -0.8650  0.0893
  185SAPI  C21621223   1.701   1.717   9.170  0.5888  0.3235  0.0574
  185SAPI  H16R21224   1.810   1.738   9.172  0.6749 -0.1283  0.2898
  185SAPI  H16S21225   1.662   1.766   9.078  0.0691  0.6313  0.4318
  185SAPI  C21721226   1.664   1.567   9.173 -0.2975 -0.7006  0.2570
  185SAPI  H17R21227   1.680   1.524   9.274  0.2046 -2.5676 -0.5708
  185SAPI  H17S21228   1.729   1.515   9.099 -0.1887  1.5302 -1.3083
  185SAPI  C21821229   1.522   1.525   9.130  0.0872  0.3675  0.3357
  185SAPI  H18R21230   1.458   1.593   9.190  0.1225  0.3060  0.4436
  185SAPI  H18S21231   1.491   1.419   9.142 -0.0078  0.4343  0.6876
  185SAPI  C21921232   1.500   1.555   8.986  0.2310 -0.2668  0.1369
  185SAPI  H19R21233   1.584   1.509   8.929 -0.6115  0.0307 -1.3961
  185SAPI  H19S21234   1.514   1.660   8.953 -0.7036 -0.3591 -0.5589
  185SAPI  C22021235   1.365   1.515   8.930  0.5796  0.4915 -0.9902
  185SAPI  H20R21236   1.295   1.583   8.983  3.2967  1.4731  1.5797
  185SAPI  H20S21237   1.352   1.405   8.944 -1.1016  0.6643 -1.0099
  185SAPI  H20T21238   1.359   1.534   8.820  3.1291  2.7612 -0.8298
  185SAPI   C3321239   1.267   1.889  10.381 -0.0326 -0.6472 -0.5690
  185SAPI   H3X21240   1.315   1.961  10.451 -0.2187 -0.5266 -0.5663
  185SAPI   H3Y21241   1.159   1.880  10.402  0.5576 -1.8500  2.4650
  185SAPI   C3421242   1.274   1.964  10.244 -0.1854 -0.0424  0.2668
  185SAPI   H4X21243   1.381   1.978  10.217 -0.1953 -1.4902 -0.6278
  185SAPI   H4Y21244   1.235   2.067  10.260 -0.1301 -0.0343  0.3477
  185SAPI   C3521245   1.198   1.905  10.122  0.4923 -0.6510  0.2780
  185SAPI   H5X21246   1.091   1.930  10.143  0.2985 -0.0993 -1.2327
  185SAPI   H5Y21247   1.218   1.797  10.109  3.0325 -0.4643  1.9333
  185SAPI   C3621248   1.226   1.979   9.990  0.1461 -0.5153 -0.2332
  185SAPI   H6X21249   1.335   1.970   9.970  0.0889 -0.9015 -0.3821
  185SAPI   H6Y21250   1.201   2.087   9.992  1.7545 -0.1042 -0.5670
  185SAPI   C3721251   1.139   1.922   9.869 -0.7142 -0.6758 -0.8183
  185SAPI   H7X21252   1.029   1.928   9.884 -0.5823 -2.2077  1.1475
  185SAPI   H7Y21253   1.162   1.814   9.856 -1.1189 -0.7975 -0.5474
  185SAPI   C3821254   1.181   1.992   9.740 -0.0549 -0.1619  0.0328
  185SAPI   H8X21255   1.286   1.966   9.713 -0.5903 -2.9215  0.3681
  185SAPI   H8Y21256   1.172   2.103   9.751  0.3011 -0.2861  1.9142
  185SAPI   C3921257   1.087   1.953   9.622 -0.1506  0.4212 -0.7849
  185SAPI   H9X21258   0.989   1.995   9.653 -0.0341  1.4634 -1.7565
  185SAPI   H9Y21259   1.077   1.843   9.632  2.0234  0.2103 -0.5577
  185SAPI  C31021260   1.149   1.992   9.489  0.1720  0.1736 -0.1297
  185SAPI  H10X21261   1.244   1.935   9.483 -1.5088 -2.7787 -0.5611
  185SAPI  H10Y21262   1.167   2.102   9.480  1.3703  0.0260  0.2914
  185SAPI  C31121263   1.063   1.941   9.370 -0.5466  0.3792 -0.4121
  185SAPI  H11X21264   0.957   1.971   9.382 -0.8093 -0.5230 -0.4081
  185SAPI  H11Y21265   1.048   1.831   9.374 -0.2199  0.3461 -0.0005
  185SAPI  C31221266   1.131   1.981   9.237 -0.4910  0.2184  0.1281
  185SAPI  H12X21267   1.167   2.086   9.231  3.1004 -0.7381  2.5552
  185SAPI  H12Y21268   1.059   1.955   9.156  0.3285 -1.0298 -0.2377
  185SAPI  C31321269   1.259   1.897   9.198  0.3644 -0.3312  0.6890
  185SAPI  H13X21270   1.227   1.791   9.189 -1.1258  0.2273 -1.8395
  185SAPI  H13Y21271   1.332   1.910   9.280  0.1130 -0.7341  0.9798
  185SAPI  C31421272   1.320   1.937   9.063 -0.4414  0.0410 -0.3622
  185SAPI  H14X21273   1.386   1.860   9.019  0.5787  0.0069  1.1601
  185SAPI  H14Y21274   1.385   2.024   9.088  1.8976 -1.9788  0.9852
  185SAPI  C31521275   1.220   1.956   8.945 -0.5610 -0.0678 -0.2510
  185SAPI  H15X21276   1.174   2.057   8.952  1.8770  1.0591  0.8059
  185SAPI  H15Y21277   1.144   1.877   8.960 -0.2312 -0.1125  1.3153
  185SAPI  C31621278   1.282   1.952   8.802 -0.6935 -0.7883  0.0205
  185SAPI  H16X21279   1.337   1.857   8.781  0.6782  0.1328 -0.6832
  185SAPI  H16Y21280   1.355   2.034   8.786  0.1115 -1.7798 -1.7771
  185SAPI  C31721281   1.175   1.968   8.695 -0.3178 -0.7156  0.9100
  185SAPI  H17X21282   1.098   2.047   8.709 -0.7667 -0.8977 -0.3465
  185SAPI  H17Y21283   1.120   1.872   8.679 -2.0527  0.2186  1.0593
  185SAPI  C31821284   1.250   2.019   8.566  0.2807  0.5647 -0.0778
  185SAPI  H18X21285   1.333   1.947   8.550 -0.0335  0.7201 -3.0181
  185SAPI  H18Y21286   1.281   2.124   8.585  0.7498  0.0111  2.6733
  185SAPI  H18Z21287   1.182   2.020   8.478 -2.0469 -0.4128  1.5837
  186SAPI   C1221288   1.127   5.546  10.820  0.4782 -0.1716 -0.2764
  186SAPI    H221289   1.042   5.498  10.873  0.3801  2.1557  1.8445
  186SAPI    O221290   1.214   5.592  10.919  0.6936  0.0873 -0.6333
  186SAPI   HO221291   1.183   5.668  10.969  2.0763  0.4602 -0.2773
  186SAPI   C1321292   1.174   5.432  10.726 -0.0467 -0.3490 -0.1122
  186SAPI    H321293   1.086   5.394  10.671 -0.0721  0.6835 -0.8114
  186SAPI    O321294   1.226   5.327  10.801  0.2883  0.6157 -0.0272
  186SAPI   HO321295   1.280   5.274  10.742  0.0580  1.3269 -0.8882
  186SAPI   C1421296   1.279   5.493  10.629  0.1221 -0.0768 -0.9262
  186SAPI    H421297   1.360   5.524  10.699 -1.1201 -0.0445  0.5450
  186SAPI    O421298   1.330   5.392  10.547  0.2935 -0.4246  0.0640
  186SAPI   HO421299   1.389   5.434  10.483 -0.9210  0.7568 -0.3152
  186SAPI   C1521300   1.237   5.614  10.553  0.1203  0.7844  0.2440
  186SAPI    H521301   1.152   5.577  10.492  0.2669  0.2978  0.3329
  186SAPI    O521302   1.336   5.657  10.460  0.1460 -0.3360 -0.1729
  186SAPI   HO521303   1.413   5.686  10.510 -0.4440 -0.6129  0.9200
  186SAPI   C1621304   1.188   5.716  10.648  0.0833 -0.0452  0.3948
  186SAPI    H621305   1.275   5.744  10.710 -0.0147  0.5098  0.2855
  186SAPI    O621306   1.145   5.829  10.567 -0.2021  0.2507 -0.1877
  186SAPI   HO621307   1.069   5.803  10.516 -0.6672  0.1329  0.5478
  186SAPI   C1121308   1.075   5.663  10.730  0.4967 -0.1133  0.5799
  186SAPI    H121309   1.002   5.617  10.660  2.2580  0.1593 -1.5214
  186SAPI     P21310   0.854   5.764  10.847 -0.0987 -0.0497  0.5660
  186SAPI   O1321311   0.820   5.873  10.942  0.2463  0.2133  0.5081
  186SAPI   O1421312   0.812   5.624  10.882 -0.1077 -0.1860 -0.0197
  186SAPI   O1221313   1.012   5.765  10.806 -0.3092  0.6941 -0.2474
  186SAPI   O1121314   0.776   5.802  10.716 -0.7428  0.6197  0.4372
  186SAPI    C121315   0.779   5.934  10.664  0.3067  0.0276 -0.4719
  186SAPI    HA21316   0.702   5.993  10.718  0.5610  0.7141 -0.8452
  186SAPI    HB21317   0.876   5.981  10.692 -1.5868  2.6016  2.3420
  186SAPI    C221318   0.769   5.937  10.505 -0.4492  1.1043 -0.2901
  186SAPI    HS21319   0.664   5.911  10.477  0.5589 -0.4960 -2.9760
  186SAPI   O2121320   0.858   5.838  10.449  0.4649  0.0558  0.5784
  186SAPI   C2121321   0.811   5.777  10.337 -0.1477  0.1705 -0.3049
  186SAPI   O2221322   0.699   5.793  10.295 -0.3257  0.1439  0.3050
  186SAPI   C2221323   0.923   5.698  10.265  0.9302  0.0494 -0.5977
  186SAPI   H2R21324   0.989   5.767  10.207  0.5910  1.2508  0.3860
  186SAPI   H2S21325   0.981   5.652  10.347 -0.2883 -2.7745 -1.2217
  186SAPI    C321326   0.812   6.071  10.440  0.0672 -0.0559  0.4699
  186SAPI    HX21327   0.920   6.088  10.461 -0.3546  0.8962  2.0326
  186SAPI    HY21328   0.754   6.147  10.496  0.3089  0.8653 -0.5030
  186SAPI   O3121329   0.789   6.069  10.299  0.2197 -0.3391  0.2017
  186SAPI   C3121330   0.665   6.088  10.247  0.2594  1.3840  0.1913
  186SAPI   O3221331   0.566   6.103  10.315 -0.0371  0.1543  0.4481
  186SAPI   C3221332   0.667   6.098  10.091  0.1545  0.5987  0.5359
  186SAPI   H2X21333   0.769   6.130  10.060 -0.5954  1.7101 -0.9376
  186SAPI   H2Y21334   0.601   6.184  10.067 -0.4898 -0.3001 -1.0229
  186SAPI   C2321335   0.867   5.569  10.191  0.2555 -0.4773  0.2352
  186SAPI   H3R21336   0.796   5.610  10.116  0.2464  2.4889  1.7039
  186SAPI   H3S21337   0.794   5.514  10.254  0.9581  0.0539  1.5593
  186SAPI   C2421338   0.969   5.471  10.138 -0.3677 -0.3910  0.1658
  186SAPI   H4R21339   0.922   5.383  10.089  1.5921 -1.2097 -0.3465
  186SAPI   H4S21340   1.033   5.435  10.222  5.2258  0.5912 -3.2174
  186SAPI   C2521341   1.057   5.560  10.051  0.0543  0.8635  0.2983
  186SAPI   H5R21342   1.108   5.643  10.103 -1.1318  2.0977 -0.4264
  186SAPI   C2621343   1.068   5.548   9.916 -0.4169  0.4055  0.1725
  186SAPI   H6R21344   1.140   5.621   9.876  1.5026 -1.9133 -0.8193
  186SAPI   C2721345   0.993   5.453   9.820 -0.3537  0.0202 -0.4227
  186SAPI   H7R21346   0.930   5.386   9.883  0.1594  1.3118  1.5688
  186SAPI   H7S21347   1.061   5.377   9.776 -1.5600 -0.8417 -0.8513
  186SAPI   C2821348   0.928   5.513   9.698 -0.3708 -0.0143 -0.2047
  186SAPI   H8R21349   0.835   5.568   9.717 -0.1518  0.5666 -0.7558
  186SAPI   C2921350   0.986   5.524   9.579 -0.5145 -0.5601  0.6355
  186SAPI   H9R21351   0.926   5.560   9.494  1.2536  1.6431  0.2173
  186SAPI  C21021352   1.120   5.466   9.533 -0.3243  0.3785 -0.1792
  186SAPI  H10R21353   1.191   5.473   9.618  0.6724  0.4377 -0.9909
  186SAPI  H10S21354   1.157   5.521   9.443 -0.9937 -0.7092 -1.1500
  186SAPI  C21121355   1.115   5.320   9.495 -0.6268  0.4179  0.7306
  186SAPI  H11R21356   1.135   5.240   9.568 -1.8798 -2.6013 -2.0193
  186SAPI  C21221357   1.096   5.272   9.370 -0.5712  0.0168  0.2264
  186SAPI  H12R21358   1.103   5.162   9.365  1.9241  0.1227 -0.1240
  186SAPI  C21321359   1.077   5.349   9.248  0.4277 -0.2034  0.2052
  186SAPI  H13R21360   1.032   5.450   9.260  2.3001  1.0889 -2.5892
  186SAPI  H13S21361   1.011   5.297   9.175  0.7017  2.0557 -1.7778
  186SAPI  C21421362   1.201   5.374   9.175 -0.2025 -0.6318 -0.2169
  186SAPI  H14R21363   1.286   5.308   9.197  0.4880  0.2817 -0.1205
  186SAPI  C21521364   1.220   5.472   9.084 -0.1643  0.2578  0.8818
  186SAPI  H15R21365   1.320   5.478   9.038  0.2992  0.7518  1.9163
  186SAPI  C21621366   1.124   5.582   9.041  0.2613 -0.0131  0.3061
  186SAPI  H16R21367   1.178   5.662   8.985  0.9055  1.0329  2.3097
  186SAPI  H16S21368   1.084   5.639   9.127  0.7455  1.6693 -0.5273
  186SAPI  C21721369   1.011   5.517   8.960 -0.5674  0.1869  1.0257
  186SAPI  H17R21370   0.942   5.592   8.915 -2.7968 -0.4172  3.1665
  186SAPI  H17S21371   0.945   5.467   9.035  1.9613  0.3171  3.5187
  186SAPI  C21821372   1.057   5.419   8.856 -0.2982 -0.5178  0.5822
  186SAPI  H18R21373   1.093   5.323   8.899  0.5852  0.2366  1.5874
  186SAPI  H18S21374   1.121   5.463   8.777  0.5088 -1.6371  0.5904
  186SAPI  C21921375   0.943   5.373   8.772  0.2935 -0.1089  0.4319
  186SAPI  H19R21376   0.903   5.456   8.711  0.2487 -0.1207  0.4442
  186SAPI  H19S21377   0.856   5.358   8.841  0.2373  0.5741  0.5163
  186SAPI  C22021378   0.963   5.249   8.691 -1.0238  0.1727  0.4718
  186SAPI  H20R21379   1.060   5.245   8.637 -0.0185  0.2271  2.2061
  186SAPI  H20S21380   0.888   5.246   8.610 -0.4039  0.5953 -0.1331
  186SAPI  H20T21381   0.956   5.155   8.749 -1.1786 -0.3172 -0.3245
  186SAPI   C3321382   0.608   5.979  10.004 -0.3722 -0.0317 -0.1615
  186SAPI   H3X21383   0.501   5.967  10.033 -0.2480  0.1150  0.3711
  186SAPI   H3Y21384   0.664   5.886  10.027  0.8516  0.8689  0.6259
  186SAPI   C3421385   0.622   5.997   9.855 -0.0848 -0.0881  0.4997
  186SAPI   H4X21386   0.717   6.035   9.811 -1.1539 -0.7752 -2.7124
  186SAPI   H4Y21387   0.559   6.083   9.822 -1.5692 -1.2519  0.1874
  186SAPI   C3521388   0.574   5.872   9.774 -0.1011 -0.5458 -0.1417
  186SAPI   H5X21389   0.474   5.845   9.812  1.5648 -3.6615  2.5544
  186SAPI   H5Y21390   0.641   5.784   9.790  1.0743  0.2987 -0.2701
  186SAPI   C3621391   0.574   5.895   9.626 -0.3144 -0.4791  0.1339
  186SAPI   H6X21392   0.546   5.995   9.587  1.2818  0.8930  2.2596
  186SAPI   H6Y21393   0.513   5.819   9.573  0.1945  0.6063 -2.1031
  186SAPI   C3721394   0.709   5.857   9.559  0.4555 -0.3461  0.0421
  186SAPI   H7X21395   0.724   5.752   9.594  0.4297 -0.4034 -0.1175
  186SAPI   H7Y21396   0.799   5.909   9.598  2.6111 -2.1599 -2.1866
  186SAPI   C3821397   0.696   5.872   9.411 -0.3518  0.4582  0.5132
  186SAPI   H8X21398   0.672   5.978   9.386  3.0389  1.2671  0.2626
  186SAPI   H8Y21399   0.613   5.807   9.375  1.8293 -2.0403 -0.2696
  186SAPI   C3921400   0.813   5.812   9.336 -0.0187  0.8375  0.3082
  186SAPI   H9X21401   0.807   5.702   9.344 -1.0611  1.0116  2.6125
  186SAPI   H9Y21402   0.906   5.829   9.394  1.3618 -1.8740 -0.9393
  186SAPI  C31021403   0.835   5.876   9.194 -0.1690 -0.0414  0.2634
  186SAPI  H10X21404   0.930   5.832   9.155  0.0619  1.3666 -0.8167
  186SAPI  H10Y21405   0.845   5.986   9.195  1.3447 -0.1563  0.1434
  186SAPI  C31121406   0.739   5.838   9.080  0.2432 -0.0398 -0.6630
  186SAPI  H11X21407   0.646   5.898   9.093  1.2512  0.9952  3.0117
  186SAPI  H11Y21408   0.703   5.732   9.086 -0.8494  0.2992 -0.9703
  186SAPI  C31221409   0.788   5.860   8.943 -0.5339 -0.5157  0.6506
  186SAPI  H12X21410   0.863   5.780   8.930  0.5447  0.1829  2.2891
  186SAPI  H12Y21411   0.837   5.960   8.949 -2.5311  0.5302  0.4752
  186SAPI  C31321412   0.676   5.872   8.839 -0.3517 -0.1051 -0.2992
  186SAPI  H13X21413   0.615   5.960   8.871  0.4773 -0.3775  2.2502
  186SAPI  H13Y21414   0.619   5.777   8.846 -0.4867 -0.1857 -1.9659
  186SAPI  C31421415   0.734   5.889   8.699  0.1920  0.3073 -0.6303
  186SAPI  H14X21416   0.816   5.814   8.692  0.1057  0.1185  0.2685
  186SAPI  H14Y21417   0.779   5.990   8.692 -2.1409  1.6206  1.7496
  186SAPI  C31521418   0.639   5.864   8.583  0.3453 -0.7335  0.2993
  186SAPI  H15X21419   0.691   5.903   8.493 -1.9423 -0.8612 -1.1490
  186SAPI  H15Y21420   0.550   5.928   8.598  0.8206  0.2514 -0.9347
  186SAPI  C31621421   0.590   5.726   8.552  0.5943  0.2707  0.2167
  186SAPI  H16X21422   0.545   5.726   8.450 -0.2792  2.1027  0.5469
  186SAPI  H16Y21423   0.510   5.694   8.623  1.5876  1.6886  2.0773
  186SAPI  C31721424   0.701   5.616   8.552  0.0260 -0.3870 -0.3196
  186SAPI  H17X21425   0.643   5.524   8.529 -1.8865  1.3496 -3.0193
  186SAPI  H17Y21426   0.737   5.616   8.657  0.3020 -1.5490 -0.3968
  186SAPI  C31821427   0.813   5.621   8.452  0.3162  0.5166  0.4175
  186SAPI  H18X21428   0.771   5.639   8.351  2.4229 -0.5808 -0.7295
  186SAPI  H18Y21429   0.871   5.526   8.451  2.4389  1.7420 -1.0129
  186SAPI  H18Z21430   0.877   5.704   8.488  2.7924 -0.8983 -0.4951
  187SAPI   C1221431   3.607   0.557   6.590 -0.3337 -0.4572 -0.7965
  187SAPI    H221432   3.662   0.608   6.671 -0.7353 -1.3628  0.0660
  187SAPI    O221433   3.636   0.415   6.591  0.0179 -0.3103 -0.5406
  187SAPI   HO221434   3.728   0.398   6.569 -0.1063  0.3496 -1.6624
  187SAPI   C1321435   3.451   0.576   6.603 -0.8707 -0.1304 -0.3773
  187SAPI    H321436   3.441   0.686   6.610 -0.2187  0.0092 -1.4746
  187SAPI    O321437   3.410   0.507   6.724  0.0502 -0.2224 -0.5335
  187SAPI   HO321438   3.467   0.434   6.748 -0.1258 -0.1420  0.1441
  187SAPI   C1421439   3.365   0.528   6.489 -0.1624 -0.0545 -0.5650
  187SAPI    H421440   3.390   0.420   6.480  2.2548  0.3997  0.2223
  187SAPI    O421441   3.221   0.549   6.510  0.2156  0.0810 -0.0616
  187SAPI   HO421442   3.192   0.494   6.583 -2.8019 -0.0077 -1.1824
  187SAPI   C1521443   3.416   0.597   6.365 -0.7925  0.2510  0.5526
  187SAPI    H521444   3.394   0.705   6.380  1.1126  1.4400 -3.7059
  187SAPI    O521445   3.347   0.558   6.248  0.2020  0.5377  0.5395
  187SAPI   HO521446   3.396   0.478   6.225 -1.1756 -0.3543  0.5779
  187SAPI   C1621447   3.567   0.577   6.343 -0.0310  0.1753  0.3590
  187SAPI    H621448   3.590   0.469   6.330 -0.1479  0.0328  1.3042
  187SAPI    O621449   3.603   0.647   6.221 -0.0857  0.1960  0.0265
  187SAPI   HO621450   3.652   0.726   6.246 -0.1906  0.8532 -1.6525
  187SAPI   C1121451   3.652   0.628   6.458  1.5452 -0.0588  0.0929
  187SAPI    H121452   3.636   0.737   6.468  4.2515  0.3758  0.4998
  187SAPI     P21453   3.896   0.718   6.403 -0.1708  0.2759 -0.0576
  187SAPI   O1321454   3.837   0.795   6.293 -0.1115 -0.1140 -0.6325
  187SAPI   O1421455   4.028   0.658   6.377  0.0573  0.6038  0.7814
  187SAPI   O1221456   3.785   0.596   6.435 -0.0524 -0.4832 -0.8269
  187SAPI   O1121457   3.889   0.815   6.530  0.7261  1.1025 -0.1596
  187SAPI    C121458   4.012   0.866   6.584  0.6949  0.2973  0.1385
  187SAPI    HA21459   4.094   0.891   6.513  0.9067 -0.5817  0.0614
  187SAPI    HB21460   3.987   0.960   6.638 -0.7762 -0.2119  0.3856
  187SAPI    C221461   4.086   0.782   6.691  0.3248  0.2586 -0.0628
  187SAPI    HS21462   4.114   0.694   6.628  2.5322  1.5241 -0.9714
  187SAPI   O2121463   4.002   0.756   6.802 -0.0300 -0.1531 -0.6375
  187SAPI   C2121464   3.959   0.631   6.822 -0.1576 -0.2569  0.3840
  187SAPI   O2221465   3.986   0.539   6.749  0.4634 -0.4392  0.3519
  187SAPI   C2221466   3.857   0.619   6.939  0.3458 -0.1253  0.6531
  187SAPI   H2R21467   3.897   0.676   7.026  0.5726  3.4136 -1.5483
  187SAPI   H2S21468   3.767   0.664   6.889  0.7942 -1.4911 -1.5306
  187SAPI    C321469   4.205   0.855   6.744 -0.5017 -0.0913  0.4964
  187SAPI    HX21470   4.277   0.874   6.662 -0.8185  2.5796  0.7522
  187SAPI    HY21471   4.265   0.806   6.824  0.8381 -0.2194 -0.5380
  187SAPI   O3121472   4.179   0.989   6.791 -0.5103  0.4848  0.1981
  187SAPI   C3121473   4.145   1.001   6.920  0.3977  0.3385 -0.5975
  187SAPI   O3221474   4.138   0.915   7.002 -0.1812  0.4969  0.2420
  187SAPI   C3221475   4.128   1.154   6.950  0.2064 -0.1087  0.0026
  187SAPI   H2X21476   4.033   1.187   6.902 -1.1441  2.7950  4.1139
  187SAPI   H2Y21477   4.210   1.205   6.895 -0.7708  0.2081 -1.2243
  187SAPI   C2321478   3.818   0.474   6.970 -0.3471 -0.6969 -0.2080
  187SAPI   H3R21479   3.825   0.405   6.884  0.9542 -0.5706 -0.2252
  187SAPI   H3S21480   3.716   0.478   7.014 -0.0392  0.5164  0.4415
  187SAPI   C2421481   3.906   0.421   7.087  0.2753  0.8989 -0.3377
  187SAPI   H4R21482   3.884   0.478   7.181  0.5891 -1.5054  1.2806
  187SAPI   H4S21483   4.013   0.428   7.058  0.2003 -0.5940 -1.0528
  187SAPI   C2521484   3.872   0.275   7.122  0.1977  0.2289  0.2758
  187SAPI   H5R21485   3.905   0.194   7.055 -2.8467 -1.2151  0.3537
  187SAPI   C2621486   3.791   0.237   7.226  0.0004 -0.2887  0.5287
  187SAPI   H6R21487   3.762   0.131   7.237 -0.9858 -0.2789 -1.5139
  187SAPI   C2721488   3.724   0.326   7.325  0.3564 -0.2410  0.6273
  187SAPI   H7R21489   3.638   0.267   7.365  0.2070 -0.6328 -0.2543
  187SAPI   H7S21490   3.680   0.406   7.262  1.4735 -1.4090 -1.7797
  187SAPI   C2821491   3.815   0.375   7.438 -0.0333  0.6522 -0.1761
  187SAPI   H8R21492   3.908   0.422   7.403  0.3781 -0.5107 -0.7231
  187SAPI   C2921493   3.794   0.366   7.568  0.4016 -0.0476  0.0054
  187SAPI   H9R21494   3.874   0.410   7.629 -0.6354  1.9960  0.0016
  187SAPI  C21021495   3.676   0.301   7.637  0.6982  0.3734 -0.0634
  187SAPI  H10R21496   3.594   0.277   7.566  0.1302 -3.7903  1.7070
  187SAPI  H10S21497   3.627   0.369   7.710 -2.5260  0.0506 -1.7367
  187SAPI  C21121498   3.695   0.178   7.719 -0.0063 -0.7005  0.4509
  187SAPI  H11R21499   3.678   0.084   7.664  0.9939 -1.0954  0.7945
  187SAPI  C21221500   3.755   0.167   7.836 -0.1118 -0.7757 -1.0821
  187SAPI  H12R21501   3.755   0.067   7.881  1.0898 -1.7458 -3.1255
  187SAPI  C21321502   3.807   0.280   7.925 -0.3774 -0.3921 -0.3515
  187SAPI  H13R21503   3.782   0.370   7.864 -0.5532 -0.5355 -0.4912
  187SAPI  H13S21504   3.918   0.274   7.932 -0.3966  0.6031  1.5315
  187SAPI  C21421505   3.760   0.281   8.068  0.5393 -0.8343 -0.7820
  187SAPI  H14R21506   3.651   0.280   8.078  0.6661 -3.2735  1.9840
  187SAPI  C21521507   3.835   0.279   8.187  0.0218 -0.4329  0.0185
  187SAPI  H15R21508   3.798   0.298   8.289 -0.4974 -1.5723  0.0489
  187SAPI  C21621509   3.985   0.270   8.192  0.0369  0.2035 -0.2034
  187SAPI  H16R21510   4.038   0.322   8.110 -0.0700  0.0477 -0.3721
  187SAPI  H16S21511   4.017   0.164   8.182  0.6784  0.3119  0.6502
  187SAPI  C21721512   4.048   0.335   8.318  0.2404  0.5212  0.2034
  187SAPI  H17R21513   4.010   0.439   8.325 -0.3205  0.7035 -3.5345
  187SAPI  H17S21514   4.158   0.347   8.308  0.1849  1.2725  0.4699
  187SAPI  C21821515   4.016   0.259   8.448  0.9072  0.0857  0.3787
  187SAPI  H18R21516   4.066   0.160   8.455  0.3788 -0.1219  1.3758
  187SAPI  H18S21517   3.905   0.252   8.447  0.6989  2.4569 -0.6810
  187SAPI  C21921518   4.030   0.335   8.582  0.3388 -0.1408 -0.0465
  187SAPI  H19R21519   3.985   0.267   8.656  1.2848 -1.3307 -0.5265
  187SAPI  H19S21520   3.970   0.429   8.575 -1.0203 -1.0055 -0.2472
  187SAPI  C22021521   4.169   0.380   8.619 -0.7077  0.5919 -0.4482
  187SAPI  H20R21522   4.235   0.298   8.653 -0.4406  0.3172 -1.5866
  187SAPI  H20S21523   4.154   0.447   8.707 -1.2783 -1.1701  0.8441
  187SAPI  H20T21524   4.226   0.430   8.538  1.1482 -0.9969 -0.1887
  187SAPI   C3321525   4.129   1.199   7.101  0.0216 -0.5923  0.2518
  187SAPI   H3X21526   4.213   1.150   7.155  0.9859  2.3626  1.6204
  187SAPI   H3Y21527   4.026   1.180   7.137 -0.1409  2.9569  2.0877
  187SAPI   C3421528   4.142   1.352   7.098 -0.8251 -0.3436 -0.6248
  187SAPI   H4X21529   4.097   1.378   7.000  0.0468 -3.2978 -1.9240
  187SAPI   H4Y21530   4.250   1.376   7.085 -0.4229 -2.8581 -2.6445
  187SAPI   C3521531   4.087   1.426   7.214  0.1272 -0.0344 -0.5610
  187SAPI   H5X21532   3.977   1.420   7.226  0.2852  1.3974  3.0493
  187SAPI   H5Y21533   4.108   1.535   7.208 -2.3358  0.4340 -2.1766
  187SAPI   C3621534   4.135   1.371   7.352 -0.3457  0.4371  0.3233
  187SAPI   H6X21535   4.246   1.367   7.351 -0.3259 -0.2762 -2.8131
  187SAPI   H6Y21536   4.098   1.267   7.366 -2.0474  0.8407 -0.8396
  187SAPI   C3721537   4.085   1.460   7.463 -0.4597 -0.1961 -0.0613
  187SAPI   H7X21538   3.975   1.447   7.472 -0.3193 -0.4950  1.4872
  187SAPI   H7Y21539   4.093   1.565   7.428  1.4981 -0.3196 -0.0859
  187SAPI   C3821540   4.159   1.427   7.599  0.5726 -0.3018  0.5112
  187SAPI   H8X21541   4.268   1.448   7.601  0.5908 -0.3833  1.9959
  187SAPI   H8Y21542   4.143   1.320   7.623 -0.0921 -0.6631 -1.3860
  187SAPI   C3921543   4.093   1.510   7.712 -0.5212 -0.3882 -0.2777
  187SAPI   H9X21544   3.983   1.502   7.697 -0.3077  0.8398 -3.0056
  187SAPI   H9Y21545   4.130   1.613   7.695  3.1808 -1.3062  1.2896
  187SAPI  C31021546   4.129   1.461   7.852 -0.1911  0.0562  0.3939
  187SAPI  H10X21547   4.241   1.459   7.853 -0.1980 -1.3283  1.8294
  187SAPI  H10Y21548   4.102   1.354   7.850 -2.1349  0.4834  1.4000
  187SAPI  C31121549   4.066   1.532   7.973 -0.2283  0.1885  0.1736
  187SAPI  H11X21550   3.955   1.528   7.966 -0.4424  2.8080  0.9880
  187SAPI  H11Y21551   4.088   1.641   7.967  2.0462 -0.2314 -0.1740
  187SAPI  C31221552   4.119   1.484   8.106 -1.0129 -0.3848  0.0055
  187SAPI  H12X21553   4.224   1.519   8.112 -1.0736 -0.1665 -0.1840
  187SAPI  H12Y21554   4.110   1.374   8.120  0.3925 -0.4781  0.2971
  187SAPI  C31321555   4.043   1.544   8.223 -0.9773 -0.2368  0.2543
  187SAPI  H13X21556   3.936   1.514   8.224 -0.2248 -3.3363  0.3943
  187SAPI  H13Y21557   4.043   1.653   8.205 -1.3889 -0.2072  0.4149
  187SAPI  C31421558   4.104   1.513   8.360 -0.5840  0.1848 -0.4068
  187SAPI  H14X21559   4.077   1.585   8.440 -1.3246 -2.0984  1.4996
  187SAPI  H14Y21560   4.213   1.533   8.359 -0.5608  0.1084  0.2111
  187SAPI  C31521561   4.070   1.364   8.398 -0.4748 -0.6437  0.1238
  187SAPI  H15X21562   4.131   1.299   8.332  0.4620 -0.8865  1.1851
  187SAPI  H15Y21563   3.963   1.346   8.375 -0.5904 -0.5760  0.5894
  187SAPI  C31621564   4.110   1.335   8.543  0.1360  0.2880 -0.5291
  187SAPI  H16X21565   4.051   1.397   8.614 -1.0809  0.3042 -1.5155
  187SAPI  H16Y21566   4.214   1.369   8.561  0.4708 -0.3078 -1.2573
  187SAPI  C31721567   4.094   1.190   8.596  0.2219 -0.0029  0.5529
  187SAPI  H17X21568   4.165   1.120   8.547  2.5058  1.6410  1.3102
  187SAPI  H17Y21569   3.987   1.166   8.579  0.8369 -2.3541 -0.3864
  187SAPI  C31821570   4.125   1.179   8.746  0.2627 -0.1730  0.1410
  187SAPI  H18X21571   4.053   1.244   8.800  1.3248 -0.0537  1.4775
  187SAPI  H18Y21572   4.228   1.216   8.767  0.6150 -0.8028 -0.4490
  187SAPI  H18Z21573   4.116   1.073   8.776 -1.3371 -0.3388 -0.7849
  188SAPI   C1221574   5.125   4.704   6.539  0.5134 -0.0504 -0.7406
  188SAPI    H221575   5.140   4.615   6.605 -1.5043  1.3221  1.7273
  188SAPI    O221576   5.104   4.650   6.413 -0.0795  0.4791  0.1497
  188SAPI   HO221577   5.098   4.555   6.401 -0.2936  0.4484  0.4753
  188SAPI   C1321578   5.010   4.790   6.597  0.4079  0.4863 -0.7477
  188SAPI    H321579   5.043   4.840   6.690  1.1735 -1.5405  0.1129
  188SAPI    O321580   4.889   4.719   6.622 -0.3168 -0.6672  0.0925
  188SAPI   HO321581   4.814   4.779   6.624 -0.9058 -1.4010  0.5770
  188SAPI   C1421582   4.986   4.901   6.503 -1.0280 -0.3748 -0.0163
  188SAPI    H421583   4.962   4.855   6.405  0.9782 -0.3549 -0.5596
  188SAPI    O421584   4.890   4.997   6.549 -0.5244 -0.2397  0.1004
  188SAPI   HO421585   4.805   4.956   6.532 -0.2844 -0.0286 -1.8432
  188SAPI   C1521586   5.118   4.987   6.475 -0.1757 -0.6496 -0.1569
  188SAPI    H521587   5.138   5.035   6.574  1.0684 -0.5924 -0.4134
  188SAPI    O521588   5.105   5.093   6.385 -0.0550 -0.2483  0.2768
  188SAPI   HO521589   5.180   5.151   6.399 -0.3451  0.9523 -2.5259
  188SAPI   C1621590   5.237   4.906   6.442  0.9176 -0.0948  0.2359
  188SAPI    H621591   5.230   4.870   6.337  1.7098  1.0047 -0.2101
  188SAPI    O621592   5.357   4.980   6.440  0.0541 -0.5584  0.2269
  188SAPI   HO621593   5.426   4.923   6.474 -0.0009 -0.6963  0.1068
  188SAPI   C1121594   5.251   4.786   6.541  0.1706  0.0083 -0.5948
  188SAPI    H121595   5.261   4.828   6.644  3.2039 -1.9162  0.0148
  188SAPI     P21596   5.497   4.691   6.601 -0.3323  0.2576 -0.1260
  188SAPI   O1321597   5.539   4.831   6.608 -0.4402 -0.5358 -0.1663
  188SAPI   O1421598   5.592   4.595   6.544  0.1035  0.6633  0.4595
  188SAPI   O1221599   5.363   4.691   6.507  0.5375 -0.3597  0.0479
  188SAPI   O1121600   5.463   4.645   6.745 -0.4403  0.7667  0.3404
  188SAPI    C121601   5.392   4.530   6.777  0.1815  0.2030 -0.3211
  188SAPI    HA21602   5.295   4.554   6.825  0.4480  0.1377  0.2491
  188SAPI    HB21603   5.375   4.465   6.688  1.9949  0.8823 -1.2112
  188SAPI    C221604   5.477   4.441   6.870 -0.5820 -0.6993 -0.1626
  188SAPI    HS21605   5.449   4.334   6.858  0.2964 -0.8316 -1.1947
  188SAPI   O2121606   5.458   4.484   7.008  0.0074 -0.1839 -0.1957
  188SAPI   C2121607   5.348   4.449   7.063  0.2733  0.6183  0.4079
  188SAPI   O2221608   5.265   4.382   7.010  0.1309 -0.6740 -0.0289
  188SAPI   C2221609   5.317   4.512   7.195 -0.0509  0.4124 -0.5853
  188SAPI   H2R21610   5.404   4.490   7.261  2.4106 -0.1656 -3.7808
  188SAPI   H2S21611   5.319   4.623   7.188  0.5418  0.2864 -3.6409
  188SAPI    C321612   5.627   4.441   6.833 -0.5474  0.5995 -0.3596
  188SAPI    HX21613   5.668   4.545   6.826  1.1879 -0.1424 -2.0032
  188SAPI    HY21614   5.634   4.384   6.738  1.2519  0.0406  0.0669
  188SAPI   O3121615   5.717   4.386   6.932  0.5125 -0.2924  0.0102
  188SAPI   C3121616   5.698   4.256   6.952 -0.1368 -1.0167  0.0999
  188SAPI   O3221617   5.631   4.183   6.880  0.1772 -0.6581  0.3104
  188SAPI   C3221618   5.763   4.214   7.086 -0.4594 -0.2275 -0.5530
  188SAPI   H2X21619   5.868   4.243   7.064 -0.3251 -0.2579  0.0367
  188SAPI   H2Y21620   5.764   4.105   7.109 -0.7615  0.3650  2.7854
  188SAPI   C2321621   5.196   4.456   7.278  0.6399  0.5287 -0.4832
  188SAPI   H3R21622   5.210   4.349   7.303 -1.8636  0.5236  1.2832
  188SAPI   H3S21623   5.106   4.458   7.213  0.0612  0.1286  0.2944
  188SAPI   C2421624   5.156   4.533   7.407 -0.1094  0.0604 -0.1508
  188SAPI   H4R21625   5.058   4.489   7.438  0.3831  0.0088  1.4040
  188SAPI   H4S21626   5.146   4.636   7.366  1.2359  0.1958 -0.1555
  188SAPI   C2521627   5.261   4.539   7.512  0.3653  0.5986  0.2716
  188SAPI   H5R21628   5.323   4.450   7.529 -1.6876 -0.4846  2.5593
  188SAPI   C2621629   5.304   4.649   7.585  0.7941 -0.7951  0.1090
  188SAPI   H6R21630   5.397   4.644   7.643  0.4467 -0.3075  0.7291
  188SAPI   C2721631   5.246   4.790   7.583  0.2922 -0.4124 -0.4544
  188SAPI   H7R21632   5.265   4.834   7.683 -1.4261  0.1201 -0.3376
  188SAPI   H7S21633   5.135   4.787   7.583  0.3090 -1.2395  0.1180
  188SAPI   C2821634   5.304   4.867   7.467  0.1322  0.2614  0.0934
  188SAPI   H8R21635   5.367   4.813   7.395 -0.5610  1.0119 -1.1279
  188SAPI   C2921636   5.280   4.993   7.435  0.4479  0.0822 -0.2809
  188SAPI   H9R21637   5.313   5.040   7.341  1.6466  1.5532  0.8133
  188SAPI  C21021638   5.210   5.082   7.534  0.3785 -0.9701  0.5204
  188SAPI  H10R21639   5.266   5.118   7.623  1.6968 -2.6513  0.4231
  188SAPI  H10S21640   5.131   5.026   7.588  0.1649 -0.9190  0.2645
  188SAPI  C21121641   5.166   5.212   7.462 -0.0257  0.3123 -0.3798
  188SAPI  H11R21642   5.255   5.273   7.438 -0.4168  2.1282  2.3596
  188SAPI  C21221643   5.042   5.245   7.425  0.1643  0.7210  0.1260
  188SAPI  H12R21644   5.032   5.334   7.361 -0.0890  0.6426  0.0534
  188SAPI  C21321645   4.912   5.167   7.444  0.5010 -0.0682  0.3899
  188SAPI  H13R21646   4.919   5.099   7.532 -0.4038 -0.9439 -0.1988
  188SAPI  H13S21647   4.902   5.105   7.352 -0.2144 -1.2554  1.2446
  188SAPI  C21421648   4.775   5.235   7.468 -0.2484 -0.1366 -0.3173
  188SAPI  H14R21649   4.732   5.195   7.561  0.0371 -1.4168 -0.7119
  188SAPI  C21521650   4.714   5.334   7.401  0.5853  0.1631  0.4767
  188SAPI  H15R21651   4.615   5.365   7.439  0.7143  0.7343  0.3578
  188SAPI  C21621652   4.757   5.413   7.280  0.2832  0.3681 -0.1264
  188SAPI  H16R21653   4.705   5.377   7.188  0.7990 -0.2217 -0.1938
  188SAPI  H16S21654   4.867   5.406   7.268  0.1855 -2.2950 -0.0150
  188SAPI  C21721655   4.719   5.555   7.290 -0.3847 -0.2693 -0.7842
  188SAPI  H17R21656   4.755   5.606   7.383 -3.2198 -0.0214  0.3006
  188SAPI  H17S21657   4.608   5.561   7.286 -0.3859 -0.4338 -0.9965
  188SAPI  C21821658   4.771   5.627   7.169  0.2924 -0.0020 -0.5680
  188SAPI  H18R21659   4.731   5.577   7.078  0.0719 -1.8301  0.4886
  188SAPI  H18S21660   4.880   5.632   7.152 -0.0278  2.2884 -2.5133
  188SAPI  C21921661   4.731   5.768   7.155 -0.5962 -0.1813  0.1669
  188SAPI  H19R21662   4.768   5.825   7.067 -0.5699  2.5872  1.8351
  188SAPI  H19S21663   4.784   5.819   7.238  1.2939  1.6617 -2.0142
  188SAPI  C22021664   4.585   5.797   7.164 -0.5556  0.3083  0.0322
  188SAPI  H20R21665   4.536   5.737   7.243  0.6908  0.0294  0.6148
  188SAPI  H20S21666   4.545   5.773   7.063  1.0466  1.4053 -0.9108
  188SAPI  H20T21667   4.574   5.905   7.185 -1.3134  0.1474  0.5052
  188SAPI   C3321668   5.702   4.280   7.213  0.1781 -0.4845 -0.1081
  188SAPI   H3X21669   5.600   4.239   7.228  0.5464 -1.5865 -0.5319
  188SAPI   H3Y21670   5.685   4.387   7.188 -0.4090 -0.4553  0.3957
  188SAPI   C3421671   5.786   4.270   7.338 -0.1558 -0.0025  0.3000
  188SAPI   H4X21672   5.894   4.287   7.323  0.1703 -0.2713  2.1513
  188SAPI   H4Y21673   5.763   4.168   7.377 -1.9090  0.1551 -0.2116
  188SAPI   C3521674   5.731   4.371   7.438  0.4622  0.1300  0.4684
  188SAPI   H5X21675   5.620   4.370   7.445  0.4148  0.4499 -0.1962
  188SAPI   H5Y21676   5.759   4.469   7.394  0.8529  0.0157  0.4606
  188SAPI   C3621677   5.784   4.346   7.578 -0.1836 -0.1964 -0.0838
  188SAPI   H6X21678   5.891   4.318   7.579 -0.5815 -1.9408 -1.6391
  188SAPI   H6Y21679   5.715   4.267   7.615 -1.6433  0.7099 -0.7681
  188SAPI   C3721680   5.759   4.467   7.678  0.4762 -0.8042 -0.0264
  188SAPI   H7X21681   5.655   4.506   7.668  0.5152 -0.5802  0.4435
  188SAPI   H7Y21682   5.825   4.551   7.648 -0.3080 -0.6696 -1.4965
  188SAPI   C3821683   5.773   4.428   7.826  0.0584 -0.6006 -0.0462
  188SAPI   H8X21684   5.881   4.429   7.849  0.0328  2.2090  0.3591
  188SAPI   H8Y21685   5.728   4.329   7.848 -0.4703 -0.1500  1.0056
  188SAPI   C3921686   5.702   4.532   7.924  0.0332 -0.3332  0.1403
  188SAPI   H9X21687   5.592   4.525   7.911  0.0977 -1.8371  0.1529
  188SAPI   H9Y21688   5.741   4.631   7.892  0.0068 -0.3076  0.1878
  188SAPI  C31021689   5.744   4.497   8.070  0.5916 -1.1828  0.4579
  188SAPI  H10X21690   5.854   4.512   8.082  0.6042 -1.9315  1.4056
  188SAPI  H10Y21691   5.724   4.394   8.107 -1.1954 -0.5818  1.2756
  188SAPI  C31121692   5.667   4.584   8.171  0.3546 -0.8384  0.2858
  188SAPI  H11X21693   5.559   4.559   8.164  0.5517 -1.5477 -0.3410
  188SAPI  H11Y21694   5.676   4.690   8.142  1.8226 -1.3625 -1.3037
  188SAPI  C31221695   5.706   4.563   8.311  1.1313 -0.4197 -0.4759
  188SAPI  H12X21696   5.813   4.589   8.326  0.5942  0.5189  2.2578
  188SAPI  H12Y21697   5.688   4.463   8.356  0.0385  0.5050  1.2707
  188SAPI  C31321698   5.633   4.657   8.405 -1.0587  0.1952  0.7564
  188SAPI  H13X21699   5.646   4.615   8.507 -0.8691 -2.4933 -0.2931
  188SAPI  H13Y21700   5.523   4.664   8.388 -1.0764 -0.6048  0.5205
  188SAPI  C31421701   5.697   4.805   8.400  1.2836  0.8745 -1.1344
  188SAPI  H14X21702   5.669   4.855   8.305  0.7598  1.6742 -0.5774
  188SAPI  H14Y21703   5.806   4.789   8.413  0.8710 -0.1872  1.8749
  188SAPI  C31521704   5.662   4.888   8.520  0.5572  0.2420 -0.0634
  188SAPI  H15X21705   5.703   4.834   8.608  0.1349 -0.6907 -0.4297
  188SAPI  H15Y21706   5.551   4.899   8.523  0.6600  1.2679  2.1898
  188SAPI  C31621707   5.713   5.034   8.516  0.4436  0.9711 -0.9019
  188SAPI  H16X21708   5.646   5.087   8.587 -0.3077 -0.0949 -0.7795
  188SAPI  H16Y21709   5.713   5.071   8.411  0.1045 -1.6730 -1.9082
  188SAPI  C31721710   5.854   5.041   8.579  0.6512 -0.4150 -0.7004
  188SAPI  H17X21711   5.892   5.145   8.571 -1.5319  0.8043  2.4641
  188SAPI  H17Y21712   5.932   4.970   8.544  0.7755 -1.1709  1.0052
  188SAPI  C31821713   5.848   5.022   8.732 -0.5739  0.0933 -1.1055
  188SAPI  H18X21714   5.801   5.106   8.788 -2.9329 -0.3349 -2.3220
  188SAPI  H18Y21715   5.951   5.012   8.773  0.1301 -2.8861 -3.2947
  188SAPI  H18Z21716   5.784   4.935   8.760 -3.6100  1.8135 -2.2107
  189POPC     N21717   6.252   5.825  10.728 -0.2024  0.5844 -0.2777
  189POPC   C1221718   6.196   5.770  10.601  0.2698  0.2484  0.0203
  189POPC  H12A21719   6.258   5.797  10.516 -0.3642  3.0662  0.3402
  189POPC  H12B21720   6.104   5.821  10.572 -0.8686 -2.8337 -2.3654
  189POPC   C1321721   6.147   5.803  10.837  0.2581  0.7882  0.5636
  189POPC  H13A21722   6.068   5.876  10.833 -1.7525 -1.2800  0.3315
  189POPC  H13B21723   6.119   5.699  10.823  4.2831 -0.0672 -3.1016
  189POPC  H13C21724   6.202   5.805  10.930 -2.3547 -0.3092  2.2460
  189POPC   C1421725   6.377   5.752  10.765 -1.1484  0.1284 -0.2612
  189POPC  H14A21726   6.398   5.763  10.870 -1.3361  1.0498 -0.3112
  189POPC  H14B21727   6.356   5.646  10.760 -3.0934  0.3468  1.7887
  189POPC  H14C21728   6.467   5.787  10.716  1.2628  1.7367  4.6747
  189POPC   C1521729   6.274   5.976  10.736  0.1650 -0.1899  0.2581
  189POPC  H15A21730   6.337   6.014  10.657  1.1475 -0.7687  0.7354
  189POPC  H15B21731   6.327   6.008  10.826  2.3729 -1.1214 -0.6351
  189POPC  H15C21732   6.189   6.042  10.728  2.2788  3.1042  2.1193
  189POPC   C1121733   6.152   5.623  10.593 -0.0583 -0.2125 -0.2575
  189POPC  H11A21734   6.243   5.562  10.614 -0.2747  0.1209  1.8189
  189POPC  H11B21735   6.130   5.604  10.486  3.4384 -0.7256 -1.0090
  189POPC     P21736   5.894   5.614  10.633  0.1772 -0.1153 -0.3656
  189POPC   O1321737   5.865   5.760  10.600 -0.8840 -0.1403 -0.8215
  189POPC   O1421738   5.814   5.566  10.745 -0.2865  0.1699 -0.4263
  189POPC   O1221739   6.043   5.589  10.677  0.1687  0.2055  0.2694
  189POPC   O1121740   5.872   5.524  10.505  0.4397  0.3584  0.3619
  189POPC    C121741   5.886   5.377  10.516  0.9307 -0.5814  0.1237
  189POPC    HA21742   5.795   5.328  10.475 -0.2282  1.8107 -0.3191
  189POPC    HB21743   5.887   5.347  10.623  3.2261  1.1380  0.6604
  189POPC    C221744   6.014   5.326  10.459 -0.6105 -0.1671 -0.2249
  189POPC    HS21745   6.095   5.362  10.527 -1.5871 -0.1121  0.9497
  189POPC   O2121746   6.035   5.386  10.332 -0.3485 -0.4256  0.2531
  189POPC   C2121747   6.159   5.383  10.286  0.5247 -0.5405 -0.2898
  189POPC   O2221748   6.256   5.330  10.343  0.4303  0.3372  0.6081
  189POPC   C2221749   6.163   5.463  10.157  0.4197 -0.8452 -0.6361
  189POPC   H2R21750   6.269   5.484  10.131  0.2326  2.6031  0.8430
  189POPC   H2S21751   6.104   5.557  10.163  0.2259 -0.8826 -1.8284
  189POPC    C321752   6.023   5.172  10.465  0.0349  0.3865 -0.1018
  189POPC    HX21753   6.002   5.151  10.572 -1.7527  3.9954  0.4285
  189POPC    HY21754   6.125   5.143  10.430  1.1765  2.0755  1.6440
  189POPC   O3121755   5.923   5.114  10.370  0.3392 -0.3918 -0.5061
  189POPC   C3121756   5.931   4.982  10.361 -0.5160  0.1165 -0.6859
  189POPC   O3221757   6.027   4.910  10.397  0.3702 -0.1932 -0.7938
  189POPC   C3221758   5.802   4.934  10.282 -0.1538  0.1231  0.0821
  189POPC   H2X21759   5.706   4.970  10.324 -0.0753  0.0047  0.3620
  189POPC   H2Y21760   5.794   4.824  10.299 -0.8733  0.2785  0.7928
  189POPC   C2321761   6.108   5.376  10.041  0.1469 -0.2220 -0.5684
  189POPC   H3R21762   5.998   5.369  10.052  0.2234 -0.0017  0.4361
  189POPC   H3S21763   6.153   5.274  10.046 -0.5834 -0.6427 -1.9867
  189POPC   C2421764   6.152   5.439   9.907 -0.4709  0.1706  0.0337
  189POPC   H4R21765   6.260   5.423   9.890 -0.6790 -0.3272 -0.8904
  189POPC   H4S21766   6.130   5.546   9.890 -0.8534  0.1219  0.1954
  189POPC   C2521767   6.084   5.377   9.783 -0.0940 -0.2128  0.0115
  189POPC   H5R21768   5.976   5.399   9.795  0.4155  1.2956  2.9133
  189POPC   H5S21769   6.096   5.267   9.785  0.0331 -0.2209 -0.9850
  189POPC   C2621770   6.152   5.414   9.650  0.2232 -0.1628  0.5053
  189POPC   H6R21771   6.237   5.345   9.630 -1.3949 -2.6682  1.6498
  189POPC   H6S21772   6.180   5.521   9.659  0.1200  0.0875 -1.6913
  189POPC   C2721773   6.057   5.413   9.532 -0.0191 -0.3805  0.4591
  189POPC   H7R21774   5.977   5.489   9.536  1.4197  1.3642 -1.7909
  189POPC   H7S21775   6.010   5.312   9.528  0.1761 -0.6464  2.9466
  189POPC   C2821776   6.125   5.437   9.391 -0.0429 -0.2243  1.0489
  189POPC   H8R21777   6.204   5.364   9.366  0.3194  0.8092 -1.0584
  189POPC   H8S21778   6.185   5.530   9.403 -0.9640  0.5536 -0.1738
  189POPC   C2921779   6.024   5.443   9.271 -0.1714  0.1043 -0.2934
  189POPC   H9121780   5.936   5.508   9.284 -0.9087 -0.5129 -1.8965
  189POPC  C21021781   6.034   5.379   9.147 -1.3665 -0.1684 -0.7335
  189POPC  H10121782   5.958   5.398   9.070 -1.1790 -0.6015 -1.0226
  189POPC  C21121783   6.152   5.291   9.098 -0.2186 -0.2288 -0.4965
  189POPC  H11R21784   6.111   5.225   9.019 -2.7331 -0.6646  1.0355
  189POPC  H11S21785   6.182   5.219   9.177 -2.0201 -1.1816 -0.6308
  189POPC  C21221786   6.264   5.383   9.055 -0.6407  0.2876 -0.0943
  189POPC  H12R21787   6.343   5.324   9.005 -0.1677 -0.0888  1.0628
  189POPC  H12S21788   6.331   5.424   9.134  1.6661  3.9056 -3.5401
  189POPC  C21321789   6.224   5.488   8.956  0.1129 -0.8422  0.2356
  189POPC  H13R21790   6.307   5.554   8.923 -0.5548 -0.8583 -1.6404
  189POPC  H13S21791   6.157   5.562   9.005  0.7952  0.4190 -0.6676
  189POPC  C21421792   6.161   5.441   8.824  0.1591  0.4519 -0.3266
  189POPC  H14R21793   6.123   5.530   8.769 -3.1537  0.7458  2.1282
  189POPC  H14S21794   6.070   5.382   8.849  0.5387 -0.2177 -0.5330
  189POPC  C21521795   6.262   5.355   8.747 -0.3405 -0.2071 -0.3245
  189POPC  H15R21796   6.286   5.260   8.800 -0.1193 -0.3776 -0.7240
  189POPC  H15S21797   6.365   5.393   8.729 -1.1632  1.5563 -1.5912
  189POPC  C21621798   6.212   5.316   8.610 -0.0624  0.2330  0.2541
  189POPC  H16R21799   6.192   5.402   8.543  1.0389  0.7664  0.5951
  189POPC  H16S21800   6.117   5.259   8.620 -0.5195  0.8114 -0.6578
  189POPC  C21721801   6.300   5.209   8.543  0.3393 -0.6758  0.2259
  189POPC  H17R21802   6.330   5.132   8.617  1.1024 -0.3064  0.3041
  189POPC  H17S21803   6.399   5.257   8.528  0.5495 -1.6460 -1.8763
  189POPC  C21821804   6.241   5.134   8.425 -0.0919 -0.1225 -0.0394
  189POPC  H18R21805   6.325   5.092   8.366 -0.8513 -0.7638 -0.7032
  189POPC  H18S21806   6.192   5.205   8.355 -0.2637 -0.2407 -0.0424
  189POPC  H18T21807   6.170   5.051   8.448  0.9148 -0.4673  1.9988
  189POPC   C3321808   5.788   4.961  10.127 -0.4337 -0.1464 -0.2172
  189POPC   H3X21809   5.821   5.064  10.101  0.3077 -0.6212 -1.2197
  189POPC   H3Y21810   5.685   4.945  10.087 -0.2566 -1.5385 -0.1599
  189POPC   C3421811   5.892   4.884  10.039 -0.2466 -0.1437 -0.7371
  189POPC   H4X21812   5.902   4.789  10.096  0.1694  0.1294 -0.3476
  189POPC   H4Y21813   5.997   4.920  10.039 -0.6200  1.0153 -1.6314
  189POPC   C3521814   5.852   4.861   9.892 -0.2083 -0.3357  0.1154
  189POPC   H5X21815   5.741   4.851   9.889 -0.1266 -1.6385 -3.1416
  189POPC   H5Y21816   5.894   4.764   9.858 -1.0408 -1.3882  1.9732
  189POPC   C3621817   5.892   4.979   9.800  0.4979  0.0020 -0.3176
  189POPC   H6X21818   6.003   4.984   9.802  0.4783  1.0253 -0.9292
  189POPC   H6Y21819   5.843   5.073   9.832 -0.3902 -0.7472  0.5698
  189POPC   C3721820   5.873   4.947   9.651 -0.0447 -0.8169 -0.6671
  189POPC   H7X21821   5.766   4.950   9.623 -0.9239 -1.6511  2.2639
  189POPC   H7Y21822   5.927   4.852   9.630 -0.7558 -1.5060  0.5154
  189POPC   C3821823   5.937   5.058   9.566  0.9115 -0.6466 -0.1174
  189POPC   H8X21824   6.044   5.062   9.595  0.9438 -0.1382 -0.2864
  189POPC   H8Y21825   5.893   5.156   9.596  1.9974 -0.4836  1.0805
  189POPC   C3921826   5.931   5.038   9.408  0.3697 -0.3814 -0.4625
  189POPC   H9X21827   5.996   5.113   9.358  1.3965 -0.0307  1.3012
  189POPC   H9Y21828   5.833   5.052   9.357  0.6929  0.0592 -0.9744
  189POPC  C31021829   5.972   4.900   9.369 -0.3503 -0.5188 -0.3547
  189POPC  H10X21830   5.899   4.830   9.413 -3.0782  1.1124 -2.0005
  189POPC  H10Y21831   6.078   4.880   9.397 -0.7596  0.5892  2.2760
  189POPC  C31121832   5.951   4.876   9.218  0.4267  0.1334 -0.4283
  189POPC  H11X21833   5.846   4.903   9.195 -0.1035 -0.6818  0.9111
  189POPC  H11Y21834   5.961   4.768   9.192 -1.4816 -0.3175  0.5745
  189POPC  C31221835   6.035   4.960   9.119 -0.8135  0.5894  0.2406
  189POPC  H12X21836   6.039   5.065   9.154  0.7631  1.0608 -1.2347
  189POPC  H12Y21837   5.979   4.954   9.023 -1.0106 -0.3982  0.4002
  189POPC  C31321838   6.172   4.900   9.098  0.0809 -0.3922 -0.1801
  189POPC  H13X21839   6.167   4.791   9.078 -0.3965 -0.4384  0.1830
  189POPC  H13Y21840   6.227   4.927   9.191 -0.4347 -1.3036  0.3951
  189POPC  C31421841   6.248   4.976   8.990  0.7479 -0.1459 -0.4193
  189POPC  H14X21842   6.256   5.084   9.016  3.3734 -0.5939  0.9575
  189POPC  H14Y21843   6.196   4.975   8.892  1.5118 -0.5513 -0.8296
  189POPC  C31521844   6.392   4.919   8.960 -0.2192 -0.2721  0.4734
  189POPC  H15X21845   6.384   4.811   8.934  1.0164 -0.4947  0.9251
  189POPC  H15Y21846   6.453   4.923   9.053  0.6902 -1.6921 -0.0204
  189POPC  C31621847   6.461   4.988   8.840  0.3161 -0.1613 -0.0821
  189POPC  H16X21848   6.481   5.096   8.859  0.1289 -0.1255 -0.0751
  189POPC  H16Y21849   6.408   4.983   8.743  0.7271  0.7994 -0.3666
  189POPC  H16Z21850   6.566   4.958   8.823  1.4040  2.2092  1.7833
  190POPC     N21851   2.921   1.299  11.243 -0.4230 -1.2814  0.3283
  190POPC   C1221852   2.774   1.257  11.253 -0.2967  0.6622  0.2919
  190POPC  H12A21853   2.706   1.339  11.270 -0.8339  0.2070  0.3771
  190POPC  H12B21854   2.774   1.192  11.339  0.7484  0.2801  0.0175
  190POPC   C1321855   3.003   1.194  11.176  0.0859 -0.2647  0.5431
  190POPC  H13A21856   3.107   1.224  11.171 -0.1897  0.6742  0.1822
  190POPC  H13B21857   2.988   1.102  11.231 -0.9050  1.1285  2.7361
  190POPC  H13C21858   2.983   1.176  11.071  1.9192 -0.3057  0.1649
  190POPC   C1421859   2.925   1.431  11.164  0.0643  0.3785  0.1636
  190POPC  H14A21860   2.875   1.432  11.068  0.4275  0.5950 -0.0286
  190POPC  H14B21861   2.882   1.516  11.216  0.5983  2.1406 -2.1086
  190POPC  H14C21862   3.026   1.461  11.141  0.0330  0.2303 -0.1726
  190POPC   C1521863   2.975   1.322  11.382  0.6706  0.3517 -0.0581
  190POPC  H15A21864   2.914   1.387  11.443 -0.9724 -1.1682 -0.0002
  190POPC  H15B21865   3.070   1.371  11.396  0.0658  1.2675  1.0411
  190POPC  H15C21866   2.975   1.238  11.449 -0.8949  0.2133 -0.1832
  190POPC   C1121867   2.718   1.181  11.125  0.2409  0.0370  0.0378
  190POPC  H11A21868   2.632   1.119  11.159  0.1258 -0.1483 -0.5797
  190POPC  H11B21869   2.790   1.115  11.072  0.2936  0.3736 -0.3074
  190POPC     P21870   2.545   1.346  11.032  0.2544 -0.0275  0.1189
  190POPC   O1321871   2.572   1.491  11.003  0.1135  0.1607 -0.6935
  190POPC   O1421872   2.467   1.312  11.152  0.4798 -0.3770  0.3209
  190POPC   O1221873   2.687   1.276  11.029 -0.0666 -0.0047  0.1611
  190POPC   O1121874   2.487   1.278  10.901 -0.2355  0.2070  0.6466
  190POPC    C121875   2.487   1.142  10.862  0.0006 -0.0323 -0.3306
  190POPC    HA21876   2.384   1.105  10.845 -0.0152  0.2700 -0.9597
  190POPC    HB21877   2.535   1.088  10.946 -0.3402 -2.3584 -1.5491
  190POPC    C221878   2.573   1.115  10.728  0.1821  0.6657  0.1872
  190POPC    HS21879   2.673   1.163  10.734 -0.0486  1.4545 -1.6656
  190POPC   O2121880   2.495   1.161  10.615  0.1634 -0.0296  0.1306
  190POPC   C2121881   2.562   1.216  10.514 -0.0077 -0.1105  0.0176
  190POPC   O2221882   2.680   1.255  10.520 -0.1358  0.4956  0.1226
  190POPC   C2221883   2.467   1.240  10.397  0.0662  0.3232  0.5467
  190POPC   H2R21884   2.363   1.232  10.434 -0.8405  1.9544 -1.4399
  190POPC   H2S21885   2.480   1.165  10.316 -2.3966 -1.2759  1.5284
  190POPC    C321886   2.594   0.959  10.710  0.0394  0.1076 -0.0821
  190POPC    HX21887   2.494   0.914  10.695 -0.2176  0.3612  0.7711
  190POPC    HY21888   2.637   0.916  10.803  0.5051 -0.9554 -0.7734
  190POPC   O3121889   2.669   0.932  10.594  0.3854  0.2732  0.3712
  190POPC   C3121890   2.796   0.899  10.602 -0.2509  0.4305 -0.0743
  190POPC   O3221891   2.850   0.866  10.707 -0.0970  0.7876 -0.2910
  190POPC   C3221892   2.861   0.896  10.468  0.7826  0.8946  0.2229
  190POPC   H2X21893   2.945   0.823  10.467 -0.2728 -0.3988  1.8070
  190POPC   H2Y21894   2.914   0.993  10.465 -0.6031  1.6560 -1.2614
  190POPC   C2321895   2.495   1.379  10.335  0.0475  0.2820  0.4337
  190POPC   H3R21896   2.507   1.461  10.410  0.6937 -2.1379  3.1741
  190POPC   H3S21897   2.397   1.406  10.291 -1.4323 -3.0839  1.3927
  190POPC   C2421898   2.624   1.373  10.247 -0.4701 -0.3010  0.3780
  190POPC   H4R21899   2.682   1.280  10.265  1.3772  0.7447  0.1638
  190POPC   H4S21900   2.693   1.451  10.287 -0.9577  0.3199  0.0188
  190POPC   C2521901   2.611   1.402  10.101 -0.3201 -0.1371  0.4101
  190POPC   H5R21902   2.710   1.417  10.053  0.3342  2.4004  2.3646
  190POPC   H5S21903   2.556   1.496  10.083  1.2364  0.8650  0.6688
  190POPC   C2621904   2.545   1.292  10.027 -0.0014 -0.1912 -0.0259
  190POPC   H6R21905   2.450   1.267  10.079 -0.7477  2.1189 -0.1918
  190POPC   H6S21906   2.617   1.207  10.031 -1.3362 -1.3521  0.2199
  190POPC   C2721907   2.502   1.317   9.875 -0.6686  0.1560 -0.1810
  190POPC   H7R21908   2.589   1.367   9.826 -0.6561  0.8232  0.5036
  190POPC   H7S21909   2.428   1.399   9.886 -0.5369  0.5001 -1.5912
  190POPC   C2821910   2.445   1.198   9.806  0.3614 -0.1875  0.5338
  190POPC   H8R21911   2.389   1.140   9.882 -0.1735 -1.8878 -1.0999
  190POPC   H8S21912   2.526   1.133   9.769 -0.0408 -0.5048  0.1989
  190POPC   C2921913   2.350   1.227   9.686 -0.6803 -0.2566 -0.5767
  190POPC   H9121914   2.243   1.234   9.709 -0.8911  1.1367 -1.8428
  190POPC  C21021915   2.396   1.261   9.563  0.5629 -0.2998  0.2330
  190POPC  H10121916   2.324   1.279   9.482  1.3912 -3.3757 -1.3295
  190POPC  C21121917   2.544   1.266   9.519  0.2102 -0.0985  0.3092
  190POPC  H11R21918   2.612   1.261   9.607  0.5786 -2.0959 -0.0360
  190POPC  H11S21919   2.555   1.369   9.478 -2.1675  0.8007  1.7176
  190POPC  C21221920   2.585   1.166   9.404 -0.5116 -0.2234 -0.2257
  190POPC  H12R21921   2.513   1.083   9.420 -0.3682 -0.4529 -0.7545
  190POPC  H12S21922   2.693   1.139   9.415 -0.3303 -1.1762 -3.3686
  190POPC  C21321923   2.563   1.231   9.260 -0.6676 -0.1094  0.4686
  190POPC  H13R21924   2.592   1.338   9.267  0.7662 -0.3466 -1.2896
  190POPC  H13S21925   2.453   1.235   9.244 -0.3154 -1.0917 -2.8890
  190POPC  C21421926   2.648   1.151   9.160 -0.2461  0.0141  0.1708
  190POPC  H14R21927   2.595   1.055   9.143  0.4788 -0.2263 -0.7986
  190POPC  H14S21928   2.753   1.134   9.192 -0.3386 -2.3292 -0.6379
  190POPC  C21521929   2.647   1.228   9.023 -0.2074  0.7307  0.1422
  190POPC  H15R21930   2.722   1.310   9.029  0.6871  0.0891 -1.4168
  190POPC  H15S21931   2.549   1.275   9.004 -0.6892 -0.4300 -0.3496
  190POPC  C21621932   2.692   1.129   8.912 -0.3418 -0.8928 -0.6561
  190POPC  H16R21933   2.637   1.034   8.931  0.3620 -1.1483  0.1866
  190POPC  H16S21934   2.798   1.107   8.936 -0.5700 -0.2053  1.1639
  190POPC  C21721935   2.672   1.184   8.774 -0.3583 -0.2309  0.8047
  190POPC  H17R21936   2.745   1.266   8.766 -2.1385  1.3694  0.1185
  190POPC  H17S21937   2.572   1.233   8.769 -0.1893 -0.0064 -2.7038
  190POPC  C21821938   2.674   1.086   8.659 -0.3131  0.5295  0.4318
  190POPC  H18R21939   2.604   1.001   8.671 -0.1255  0.6220  2.3681
  190POPC  H18S21940   2.776   1.046   8.638  0.5599  2.0264  1.6453
  190POPC  H18T21941   2.640   1.136   8.565  4.0429  0.2955 -1.5334
  190POPC   C3321942   2.775   0.872  10.338 -0.9144  0.1704  0.0268
  190POPC   H3X21943   2.737   0.969  10.300 -1.1883 -0.6667 -1.9219
  190POPC   H3Y21944   2.682   0.817  10.359 -0.5161  0.0452  1.5923
  190POPC   C3421945   2.865   0.820  10.224 -0.3448  0.3381  0.1906
  190POPC   H4X21946   2.888   0.712  10.238  0.2120  0.4878  0.4414
  190POPC   H4Y21947   2.952   0.889  10.221 -0.4688  0.5866  1.7188
  190POPC   C3521948   2.797   0.826  10.087 -0.3294 -0.0847 -0.6555
  190POPC   H5X21949   2.745   0.924  10.085 -1.7373 -0.7703  0.2622
  190POPC   H5Y21950   2.717   0.749  10.076 -0.6334 -0.3053  2.3815
  190POPC   C3621951   2.896   0.823   9.971 -0.0552  0.2180 -0.4923
  190POPC   H6X21952   2.944   0.723   9.984 -1.2701 -0.1372  1.8377
  190POPC   H6Y21953   2.964   0.910   9.979  1.3201 -0.7709 -1.0649
  190POPC   C3721954   2.823   0.835   9.830  0.1231 -0.2151 -0.2211
  190POPC   H7X21955   2.757   0.923   9.817  1.2639  0.6568 -0.2394
  190POPC   H7Y21956   2.761   0.743   9.830  2.0324 -1.5991  1.2303
  190POPC   C3821957   2.911   0.822   9.705 -0.1984 -0.0657 -0.1637
  190POPC   H8X21958   2.942   0.716   9.714 -1.0236 -0.2873  0.1727
  190POPC   H8Y21959   3.002   0.886   9.704 -1.1336  1.3178  0.3155
  190POPC   C3921960   2.825   0.846   9.572  0.5172 -0.4894 -1.2063
  190POPC   H9X21961   2.887   0.822   9.483  0.4764 -0.6654 -1.1874
  190POPC   H9Y21962   2.812   0.955   9.557  0.8878 -0.1704  0.5357
  190POPC  C31021963   2.693   0.769   9.578 -0.1733 -0.0921  0.0112
  190POPC  H10X21964   2.631   0.808   9.661  0.2233 -0.3608  0.4369
  190POPC  H10Y21965   2.704   0.663   9.609  2.6554  0.7984  2.5991
  190POPC  C31121966   2.607   0.778   9.451 -0.1737  1.1033  0.1784
  190POPC  H11X21967   2.575   0.885   9.445 -1.4066  0.7289 -0.1003
  190POPC  H11Y21968   2.511   0.723   9.462 -0.7624  2.2874  1.2559
  190POPC  C31221969   2.674   0.731   9.322 -0.2522  0.3366 -0.0979
  190POPC  H12X21970   2.716   0.630   9.341 -1.5630 -0.1135  0.5441
  190POPC  H12Y21971   2.763   0.796   9.312  0.4767 -0.5711  0.2897
  190POPC  C31321972   2.571   0.743   9.210  0.1654 -0.2852 -0.2279
  190POPC  H13X21973   2.552   0.852   9.200 -1.4064 -0.0509  3.6617
  190POPC  H13Y21974   2.472   0.702   9.240  0.9253 -0.3311  2.5374
  190POPC  C31421975   2.613   0.680   9.075 -0.5868  0.2639  0.1561
  190POPC  H14X21976   2.528   0.683   9.003  0.5891 -3.1023 -1.5480
  190POPC  H14Y21977   2.633   0.572   9.092 -1.1597  0.1356  0.0491
  190POPC  C31521978   2.740   0.743   9.025 -0.3715  0.2357  0.5843
  190POPC  H15X21979   2.821   0.737   9.101  0.7342 -0.1702 -0.5980
  190POPC  H15Y21980   2.709   0.849   9.015  0.4142  0.3494 -0.8457
  190POPC  C31621981   2.784   0.712   8.883  0.3453 -0.3444 -0.6981
  190POPC  H16X21982   2.860   0.631   8.890  1.2133  0.5319  0.4830
  190POPC  H16Y21983   2.821   0.805   8.836 -0.3819 -0.5817 -1.7776
  190POPC  H16Z21984   2.698   0.680   8.820 -0.9952 -1.3579  1.5247
  191POPC     N21985   1.644   4.404   6.460 -0.5199  0.9275  1.0713
  191POPC   C1221986   1.540   4.407   6.564 -0.5306  0.5911  0.1049
  191POPC  H12A21987   1.594   4.384   6.655 -0.0230 -0.2266 -0.3834
  191POPC  H12B21988   1.464   4.331   6.557  0.0721 -0.5858  4.0824
  191POPC   C1321989   1.582   4.408   6.321 -0.1860 -0.2529  0.4370
  191POPC  H13A21990   1.664   4.410   6.251  0.4590  0.3322  1.1897
  191POPC  H13B21991   1.525   4.318   6.304  0.3645 -0.4602 -0.3389
  191POPC  H13C21992   1.525   4.497   6.299 -1.4888  0.0653  4.2002
  191POPC   C1421993   1.744   4.523   6.480  0.3287  0.6499  0.1451
  191POPC  H14A21994   1.694   4.616   6.460  0.7871  0.6878 -0.9321
  191POPC  H14B21995   1.787   4.509   6.578 -0.4757  1.3354  0.6046
  191POPC  H14C21996   1.821   4.514   6.404  1.7387 -1.0700  1.6619
  191POPC   C1521997   1.727   4.272   6.470 -0.1979  0.6812 -0.2825
  191POPC  H15A21998   1.681   4.184   6.427  0.7705 -0.9732  1.8754
  191POPC  H15B21999   1.762   4.255   6.571  0.4086 -1.2132 -0.7779
  191POPC  H15C22000   1.808   4.273   6.399 -0.0947  2.4446 -0.1727
  191POPC   C1122001   1.468   4.539   6.578  0.1606 -0.4107 -0.4656
  191POPC  H11A22002   1.547   4.610   6.611 -0.7433  0.8959 -1.0352
  191POPC  H11B22003   1.398   4.531   6.663  1.3810  2.1474  0.9029
  191POPC     P22004   1.408   4.727   6.409 -0.0458  0.0320  0.4721
  191POPC   O1322005   1.320   4.744   6.293 -0.5008 -0.8835  0.1772
  191POPC   O1422006   1.551   4.762   6.391 -0.2794 -0.0601 -0.4498
  191POPC   O1222007   1.389   4.574   6.459  0.3084  0.3015 -0.1809
  191POPC   O1122008   1.350   4.812   6.529 -0.7600  0.5415  0.5814
  191POPC    C122009   1.375   4.951   6.530 -0.4158 -0.3973 -0.1804
  191POPC    HA22010   1.287   5.017   6.524 -0.0835 -0.0698 -2.0125
  191POPC    HB22011   1.435   4.986   6.443 -0.3086 -1.7667 -0.6847
  191POPC    C222012   1.451   4.983   6.665 -0.6470  0.2939  0.5008
  191POPC    HS22013   1.541   4.918   6.665  1.5152  3.0755  0.5969
  191POPC   O2122014   1.362   4.966   6.774  0.6023 -0.3717  0.5174
  191POPC   C2122015   1.426   4.940   6.887  0.2344  0.6833  0.0410
  191POPC   O2222016   1.544   4.913   6.900  0.1033  0.6961  0.6880
  191POPC   C2222017   1.327   4.956   7.002 -0.7589  0.4729  0.3518
  191POPC   H2R22018   1.283   4.861   7.039  1.0859 -0.3245  0.6236
  191POPC   H2S22019   1.241   5.020   6.973  0.6241  2.9153  1.4248
  191POPC    C322020   1.496   5.131   6.655 -1.1810 -0.3709 -0.2594
  191POPC    HX22021   1.403   5.183   6.622 -1.9378  1.3426  3.9528
  191POPC    HY22022   1.571   5.143   6.574  0.0179 -0.3138  0.8505
  191POPC   O3122023   1.542   5.202   6.771  0.3503  0.3344  0.2639
  191POPC   C3122024   1.672   5.185   6.791  0.4471  0.3514  0.1649
  191POPC   O3222025   1.744   5.116   6.724  0.1586  0.2847 -0.1842
  191POPC   C3222026   1.704   5.269   6.915 -0.3036  0.2370  0.0959
  191POPC   H2X22027   1.637   5.355   6.938 -2.2492 -1.9659  3.6260
  191POPC   H2Y22028   1.804   5.313   6.894  0.1536 -1.0887 -0.6842
  191POPC   C2322029   1.381   5.025   7.133 -0.7462  0.8515  0.7389
  191POPC   H3R22030   1.395   5.133   7.110 -0.7984  0.6085 -0.5246
  191POPC   H3S22031   1.482   4.984   7.153 -0.9825  0.2166  0.6515
  191POPC   C2422032   1.287   5.019   7.247  0.0420  0.0659  0.3046
  191POPC   H4R22033   1.268   4.911   7.266 -0.4783 -0.1865 -1.5091
  191POPC   H4S22034   1.197   5.075   7.216  0.2363  1.2223  1.7308
  191POPC   C2522035   1.338   5.101   7.374 -0.2943 -0.0776 -0.0556
  191POPC   H5R22036   1.363   5.204   7.341 -0.8085  0.1523  0.2683
  191POPC   H5S22037   1.438   5.067   7.408 -0.1851  0.0859 -0.2165
  191POPC   C2622038   1.231   5.108   7.490 -0.4286  0.6340  0.1887
  191POPC   H6R22039   1.235   5.005   7.532 -0.2699  0.4060 -0.3799
  191POPC   H6S22040   1.131   5.128   7.446 -1.7613  0.4605  2.8894
  191POPC   C2722041   1.260   5.206   7.600 -0.0825 -0.8634 -0.2083
  191POPC   H7R22042   1.277   5.307   7.557  0.5748 -0.9499 -0.1692
  191POPC   H7S22043   1.356   5.192   7.655  1.4472 -0.5914 -2.6453
  191POPC   C2822044   1.145   5.206   7.706 -0.1708 -0.2861 -0.2520
  191POPC   H8R22045   1.051   5.239   7.658  0.2973 -1.6412 -2.1971
  191POPC   H8S22046   1.167   5.285   7.781  0.0099 -1.3615  0.8629
  191POPC   C2922047   1.127   5.086   7.796  0.9560  0.3064 -0.0253
  191POPC   H9122048   1.067   5.012   7.741 -1.2257  2.6223 -1.0180
  191POPC  C21022049   1.180   5.070   7.921 -0.1991 -0.4114  0.0367
  191POPC  H10122050   1.158   4.976   7.973 -0.7277 -1.2581 -1.6236
  191POPC  C21122051   1.262   5.180   7.989  0.4754 -0.0634 -0.2408
  191POPC  H11R22052   1.290   5.267   7.925  3.4766 -1.3075 -0.8094
  191POPC  H11S22053   1.362   5.140   8.019  0.5352 -0.5744 -1.0959
  191POPC  C21222054   1.206   5.230   8.134 -0.2884  0.1327  0.4922
  191POPC  H12R22055   1.186   5.147   8.205  0.1559 -1.2751 -0.9656
  191POPC  H12S22056   1.109   5.275   8.107 -0.9998 -1.4954  0.2021
  191POPC  C21322057   1.298   5.335   8.200  0.0272  0.1485  0.5843
  191POPC  H13R22058   1.324   5.406   8.118 -1.9459  0.6708  0.3696
  191POPC  H13S22059   1.395   5.292   8.235  0.9213  0.7369 -1.0526
  191POPC  C21422060   1.232   5.405   8.315 -0.6436 -0.2024  0.1629
  191POPC  H14R22061   1.210   5.337   8.400  0.9644 -1.5380 -0.4195
  191POPC  H14S22062   1.143   5.462   8.281  0.6654 -0.0365 -3.3593
  191POPC  C21522063   1.341   5.506   8.367  0.0416  0.2659 -0.6657
  191POPC  H15R22064   1.374   5.581   8.292 -0.9423  1.9873  0.5447
  191POPC  H15S22065   1.428   5.440   8.387 -0.2591  0.2752  0.8016
  191POPC  C21622066   1.296   5.568   8.504 -0.1318 -0.5404  0.2018
  191POPC  H16R22067   1.390   5.613   8.542 -0.9237  0.7237  0.6913
  191POPC  H16S22068   1.268   5.483   8.569 -1.1422 -0.4527 -0.1078
  191POPC  C21722069   1.186   5.679   8.495 -0.2177  0.2010  0.2693
  191POPC  H17R22070   1.094   5.634   8.452 -0.7929  1.4961  0.0976
  191POPC  H17S22071   1.225   5.748   8.417 -0.3821 -0.1636 -0.1398
  191POPC  C21822072   1.155   5.744   8.625 -0.0927  1.1934 -0.0850
  191POPC  H18R22073   1.117   5.680   8.707  2.4026  0.8120  0.8604
  191POPC  H18S22074   1.079   5.825   8.621 -2.0057 -0.5538 -0.6423
  191POPC  H18T22075   1.249   5.781   8.671  0.3618  1.0822 -0.9159
  191POPC   C3322076   1.714   5.190   7.050 -0.0677 -0.2145  0.5097
  191POPC   H3X22077   1.787   5.107   7.045 -0.0875 -0.2056 -0.0950
  191POPC   H3Y22078   1.621   5.132   7.067  1.0674 -2.6158 -0.9890
  191POPC   C3422079   1.741   5.275   7.170  0.5952  0.1871  0.0433
  191POPC   H4X22080   1.686   5.370   7.152 -1.1799 -1.0328 -1.4575
  191POPC   H4Y22081   1.849   5.297   7.157  0.5305  0.1043 -0.6606
  191POPC   C3522082   1.703   5.215   7.304 -0.0800  0.5561 -0.1214
  191POPC   H5X22083   1.777   5.135   7.322  1.4608  1.5991 -1.5052
  191POPC   H5Y22084   1.604   5.166   7.312  0.9376 -1.5810 -0.1426
  191POPC   C3622085   1.709   5.317   7.420 -0.2434 -0.4787 -0.7301
  191POPC   H6X22086   1.646   5.406   7.403 -0.4880 -0.6729 -0.8426
  191POPC   H6Y22087   1.813   5.354   7.433 -0.2761 -0.7186  0.2921
  191POPC   C3722088   1.686   5.246   7.552 -0.0356  0.1785  0.2639
  191POPC   H7X22089   1.757   5.161   7.559 -1.9471 -1.8664 -2.9309
  191POPC   H7Y22090   1.585   5.203   7.542 -0.8885  1.1426  3.5430
  191POPC   C3822091   1.671   5.334   7.671 -0.1553  0.0964 -0.0843
  191POPC   H8X22092   1.639   5.272   7.757 -0.0986  1.3352  0.8670
  191POPC   H8Y22093   1.584   5.398   7.644  1.2351  1.5891 -1.2894
  191POPC   C3922094   1.789   5.426   7.709 -0.3486  0.6791  0.2261
  191POPC   H9X22095   1.792   5.511   7.637 -1.3020  1.2794  0.8690
  191POPC   H9Y22096   1.887   5.377   7.687 -1.0116 -0.9386  0.7632
  191POPC  C31022097   1.792   5.483   7.853  0.0458  0.5394  0.2446
  191POPC  H10X22098   1.890   5.527   7.882 -0.2723 -0.0826  2.4959
  191POPC  H10Y22099   1.773   5.401   7.925 -0.5979  2.5336  2.4798
  191POPC  C31122100   1.685   5.593   7.870 -0.7841  0.1516  0.3765
  191POPC  H11X22101   1.584   5.547   7.857  0.3587 -2.0485 -1.6617
  191POPC  H11Y22102   1.700   5.667   7.789 -1.8002 -1.9077 -1.8268
  191POPC  C31222103   1.688   5.668   8.003 -0.2785 -0.3213 -0.1198
  191POPC  H12X22104   1.789   5.712   8.015 -0.2851 -0.5695  0.8971
  191POPC  H12Y22105   1.668   5.592   8.082 -1.2626  0.7894  0.7371
  191POPC  C31322106   1.578   5.773   8.013 -0.1144  0.1314 -0.0502
  191POPC  H13X22107   1.481   5.730   7.979 -0.6135 -0.3092  1.8324
  191POPC  H13Y22108   1.596   5.851   7.936 -1.3577 -0.3091 -0.8197
  191POPC  C31422109   1.579   5.846   8.159  0.4154  0.6889  0.4857
  191POPC  H14X22110   1.576   5.759   8.228  1.4079 -1.0913 -1.5663
  191POPC  H14Y22111   1.487   5.908   8.154 -0.4974 -0.7073 -2.4987
  191POPC  C31522112   1.708   5.936   8.181 -0.4217  0.5744 -0.0232
  191POPC  H15X22113   1.713   6.024   8.112 -0.9424  2.2943  2.0288
  191POPC  H15Y22114   1.805   5.885   8.165 -0.0167  1.7782 -1.7973
  191POPC  C31622115   1.715   6.002   8.318  0.7194  0.0618 -0.2887
  191POPC  H16X22116   1.656   6.095   8.335  0.1448 -0.4269  0.4939
  191POPC  H16Y22117   1.818   6.035   8.343 -0.4090  2.3425  1.6812
  191POPC  H16Z22118   1.686   5.931   8.399 -0.8287  0.3342 -0.5753
  192POPC     N22119   4.776   0.090   6.453  0.2808 -0.2584 -0.8036
  192POPC   C1222120   4.826  -0.058   6.465  0.1399  0.0340 -0.5050
  192POPC  H12A22121   4.748  -0.128   6.439  1.3989 -1.0158 -1.5378
  192POPC  H12B22122   4.850  -0.062   6.571  1.5890  0.6568 -0.7855
  192POPC   C1322123   4.768   0.137   6.307 -0.7852 -0.1848  0.0288
  192POPC  H13A22124   4.868   0.142   6.266 -0.8284  0.6041  0.0027
  192POPC  H13B22125   4.719   0.064   6.245 -1.7112  0.4512 -0.0049
  192POPC  H13C22126   4.720   0.233   6.294  2.6980  1.4559 -1.9857
  192POPC   C1422127   4.639   0.104   6.514 -0.0915  0.1809  0.6407
  192POPC  H14A22128   4.638   0.069   6.616  1.6846  0.0718  0.6671
  192POPC  H14B22129   4.616   0.209   6.508  3.6882  1.1117 -0.2520
  192POPC  H14C22130   4.562   0.056   6.457  0.7452 -0.3814 -0.0327
  192POPC   C1522131   4.875   0.172   6.520  0.2413 -0.2819 -0.1384
  192POPC  H15A22132   4.880   0.167   6.627  3.2734 -0.8255 -0.2308
  192POPC  H15B22133   4.858   0.275   6.491  2.8274  0.3534  0.3875
  192POPC  H15C22134   4.972   0.151   6.478  0.3515  0.4294 -0.2557
  192POPC   C1122135   4.941  -0.102   6.385 -0.2352  0.6893  0.0691
  192POPC  H11A22136   4.937  -0.079   6.276  0.5018 -0.5952 -0.2394
  192POPC  H11B22137   4.934  -0.212   6.390 -1.3176  0.4905 -3.1547
  192POPC     P22138   5.198  -0.131   6.407  0.2596  0.5213 -0.1516
  192POPC   O1322139   5.241  -0.077   6.278 -0.0855 -0.6276  0.1118
  192POPC   O1422140   5.175  -0.282   6.410  0.4842  0.3332 -0.4562
  192POPC   O1222141   5.063  -0.062   6.446  0.3752 -0.3944 -0.0188
  192POPC   O1122142   5.295  -0.092   6.523 -0.2080 -0.4533  0.8367
  192POPC    C122143   5.436  -0.117   6.521  0.1984  0.2813  0.4253
  192POPC    HA22144   5.488  -0.046   6.452 -0.8891  2.0990  1.3903
  192POPC    HB22145   5.454  -0.221   6.488  1.5985  0.8664 -0.8044
  192POPC    C222146   5.500  -0.087   6.660  0.0190 -0.0961 -0.3385
  192POPC    HS22147   5.606  -0.120   6.656 -0.8536 -3.0625 -2.3544
  192POPC   O2122148   5.420  -0.142   6.768  0.3310  0.6486  0.4633
  192POPC   C2122149   5.425  -0.283   6.770  0.0716  0.0036 -0.0380
  192POPC   O2222150   5.497  -0.352   6.700  0.0587 -0.0054 -0.5678
  192POPC   C2222151   5.344  -0.335   6.883  0.5411  0.2053 -0.3655
  192POPC   H2R22152   5.373  -0.442   6.896 -0.6408 -0.0027  0.7575
  192POPC   H2S22153   5.234  -0.327   6.870  0.2493  1.3042  2.2325
  192POPC    C322154   5.503   0.067   6.669 -0.5714 -0.1697 -0.1510
  192POPC    HX22155   5.399   0.105   6.665 -0.8467  0.2772  5.0531
  192POPC    HY22156   5.559   0.110   6.583  0.1978  0.8017  0.8022
  192POPC   O3122157   5.571   0.100   6.788  0.4285 -0.3852  0.0170
  192POPC   C3122158   5.488   0.114   6.894  0.4107  1.0192  0.2029
  192POPC   O3222159   5.365   0.101   6.886  0.6352 -0.2230 -0.1993
  192POPC   C3222160   5.566   0.139   7.022  0.2645 -1.0759 -0.6132
  192POPC   H2X22161   5.641   0.220   7.008 -1.0351  0.2653  0.0732
  192POPC   H2Y22162   5.632   0.049   7.030  0.6217 -0.7636 -0.0586
  192POPC   C2322163   5.385  -0.266   7.015  0.6558 -0.1922  0.6310
  192POPC   H3R22164   5.330  -0.169   7.024 -1.1272 -1.0245 -0.7210
  192POPC   H3S22165   5.490  -0.233   7.004  0.3441  0.5100 -0.3707
  192POPC   C2422166   5.364  -0.358   7.134  0.4833  0.1055  0.3742
  192POPC   H4R22167   5.434  -0.443   7.122  2.4408  1.2093  3.1065
  192POPC   H4S22168   5.263  -0.406   7.136  1.2243 -1.6864 -1.2357
  192POPC   C2522169   5.399  -0.289   7.263  0.0440  0.7662 -0.9747
  192POPC   H5R22170   5.340  -0.195   7.270 -3.3773 -1.2212 -0.2823
  192POPC   H5S22171   5.506  -0.263   7.271  0.6531 -1.9139  0.7450
  192POPC   C2622172   5.367  -0.381   7.389  0.2734 -0.3661  0.4166
  192POPC   H6R22173   5.400  -0.486   7.374 -0.8541 -0.8154  0.9889
  192POPC   H6S22174   5.257  -0.374   7.397  0.0259  2.5582 -2.8916
  192POPC   C2722175   5.443  -0.335   7.510 -0.3152 -0.2030 -1.3903
  192POPC   H7R22176   5.552  -0.323   7.498 -0.3015  1.2582 -0.1959
  192POPC   H7S22177   5.425  -0.424   7.575 -1.5302 -1.2763 -3.1132
  192POPC   C2822178   5.382  -0.203   7.561 -0.3103  0.0069  0.1915
  192POPC   H8R22179   5.273  -0.221   7.571 -0.1567 -0.8361  0.4064
  192POPC   H8S22180   5.395  -0.113   7.496  2.0805  0.0400  0.6160
  192POPC   C2922181   5.461  -0.172   7.686 -0.3766 -0.2025  0.1332
  192POPC   H9122182   5.565  -0.140   7.669 -0.7754  0.9214 -0.2835
  192POPC  C21022183   5.422  -0.178   7.813  0.0358  0.4207 -0.1234
  192POPC  H10122184   5.503  -0.158   7.884  0.5439 -0.8144 -0.3335
  192POPC  C21122185   5.290  -0.223   7.871  0.0524  0.1196 -0.1861
  192POPC  H11R22186   5.217  -0.268   7.801  0.0109 -1.9191  1.0774
  192POPC  H11S22187   5.238  -0.131   7.904 -0.3446  0.1387 -0.8471
  192POPC  C21222188   5.301  -0.326   7.982  0.1435 -0.1532  0.4156
  192POPC  H12R22189   5.199  -0.346   8.021  0.2405 -0.8083  0.3527
  192POPC  H12S22190   5.357  -0.281   8.067 -1.1612 -0.8835  1.7242
  192POPC  C21322191   5.360  -0.462   7.956 -0.0368  0.3311 -0.5418
  192POPC  H13R22192   5.471  -0.453   7.959  0.0133 -0.2142 -0.6030
  192POPC  H13S22193   5.326  -0.505   7.860  0.1600 -0.6693 -0.1810
  192POPC  C21422194   5.320  -0.567   8.070 -0.2126 -0.0325 -0.5310
  192POPC  H14R22195   5.222  -0.541   8.115 -0.2193 -0.0646 -0.5266
  192POPC  H14S22196   5.394  -0.572   8.153 -0.4874  3.1093  0.0130
  192POPC  C21522197   5.311  -0.711   8.011 -0.2342  0.2416  0.4929
  192POPC  H15R22198   5.287  -0.777   8.097 -0.5264 -0.6036 -0.2271
  192POPC  H15S22199   5.412  -0.737   7.971  0.7853  0.4213  2.7955
  192POPC  C21622200   5.185  -0.726   7.912  0.1703  0.4112 -0.3329
  192POPC  H16R22201   5.199  -0.656   7.827 -0.5865  0.3211 -0.5362
  192POPC  H16S22202   5.093  -0.703   7.969 -0.2389 -1.9168  0.0289
  192POPC  C21722203   5.177  -0.876   7.863 -0.0516 -0.5840 -0.6532
  192POPC  H17R22204   5.106  -0.871   7.778  0.0226 -1.7490 -0.8033
  192POPC  H17S22205   5.153  -0.940   7.950 -0.6150  0.1576 -0.2572
  192POPC  C21822206   5.308  -0.924   7.814 -0.6702 -0.2488  0.2611
  192POPC  H18R22207   5.365  -0.962   7.902 -1.6930 -2.0595  0.1903
  192POPC  H18S22208   5.362  -0.848   7.753 -1.3894  1.1088  1.2673
  192POPC  H18T22209   5.297  -1.011   7.745  0.7430 -1.2681  1.2507
  192POPC   C3322210   5.466   0.166   7.139  0.7953  0.9990 -0.6230
  192POPC   H3X22211   5.376   0.100   7.137 -0.7560  2.8623  1.8428
  192POPC   H3Y22212   5.425   0.268   7.125 -0.7761  0.2058 -2.1543
  192POPC   C3422213   5.522   0.153   7.294  0.4747 -0.4402  0.1730
  192POPC   H4X22214   5.617   0.208   7.309  0.3745 -0.7540  2.1645
  192POPC   H4Y22215   5.531   0.043   7.305  1.5165 -0.6199 -1.9681
  192POPC   C3522216   5.421   0.214   7.397  0.1867  0.7133 -0.3137
  192POPC   H5X22217   5.316   0.187   7.373  0.3040  0.1443 -0.2037
  192POPC   H5Y22218   5.427   0.325   7.389  3.6399  0.6595 -0.0415
  192POPC   C3622219   5.458   0.171   7.536 -0.4043 -0.4595 -0.6403
  192POPC   H6X22220   5.555   0.216   7.563 -1.6994  1.6194  0.8598
  192POPC   H6Y22221   5.478   0.062   7.543 -0.9056 -0.4863  0.6859
  192POPC   C3722222   5.355   0.208   7.645 -0.5343 -0.0245  0.5139
  192POPC   H7X22223   5.276   0.133   7.621 -1.5459  0.8726  0.9677
  192POPC   H7Y22224   5.316   0.309   7.621  0.4307 -0.1828 -2.0390
  192POPC   C3822225   5.423   0.196   7.785  0.3818 -0.4310  1.0351
  192POPC   H8X22226   5.527   0.235   7.783  1.4727 -3.0961 -2.0338
  192POPC   H8Y22227   5.427   0.091   7.820  0.1886 -0.6105  0.5122
  192POPC   C3922228   5.350   0.284   7.898 -0.4284  0.4131  0.3181
  192POPC   H9X22229   5.247   0.243   7.911  0.4684 -1.4816  1.8403
  192POPC   H9Y22230   5.340   0.389   7.864  2.2730  0.2542 -1.2103
  192POPC  C31022231   5.421   0.275   8.035  0.1950  0.2839 -0.1316
  192POPC  H10X22232   5.521   0.321   8.033 -0.0750  0.9136  0.5718
  192POPC  H10Y22233   5.431   0.169   8.067 -2.3447  0.0363  0.1144
  192POPC  C31122234   5.346   0.353   8.137  0.0350 -0.2825  0.8400
  192POPC  H11X22235   5.240   0.320   8.144  0.7470 -2.3907  3.1367
  192POPC  H11Y22236   5.346   0.462   8.115  0.2899 -0.7535 -1.8223
  192POPC  C31222237   5.401   0.326   8.275 -0.2656  0.1031  0.6406
  192POPC  H12X22238   5.511   0.340   8.268  0.3186 -3.8480 -0.7758
  192POPC  H12Y22239   5.386   0.217   8.291  1.3344 -0.2342 -0.0516
  192POPC  C31322240   5.335   0.420   8.385  0.4238  0.5054 -0.3628
  192POPC  H13X22241   5.350   0.369   8.483 -0.0370 -0.5563 -0.8331
  192POPC  H13Y22242   5.225   0.424   8.371  0.5427 -0.7305 -1.9039
  192POPC  C31422243   5.394   0.557   8.399 -0.2446  0.3239 -0.2030
  192POPC  H14X22244   5.398   0.614   8.304  0.6695 -0.2598 -0.5338
  192POPC  H14Y22245   5.500   0.549   8.431  0.4887 -0.8880 -2.7203
  192POPC  C31522246   5.316   0.652   8.495  0.7390  0.3428 -0.4450
  192POPC  H15X22247   5.301   0.605   8.594  1.8679  1.7152  0.4135
  192POPC  H15Y22248   5.219   0.662   8.442 -0.5770  1.1485  1.9777
  192POPC  C31622249   5.380   0.792   8.502 -0.1708 -0.4754 -1.0432
  192POPC  H16X22250   5.403   0.829   8.400  1.2986  0.9324 -0.2356
  192POPC  H16Y22251   5.463   0.796   8.576 -1.0161  0.2848 -0.1086
  192POPC  H16Z22252   5.302   0.853   8.552 -0.8146 -1.8487 -0.3087
  193SOD    SOD22253   4.544   0.057  12.884  0.0345 -0.1926 -0.0264
  194SOD    SOD22254   6.383   2.388   6.409  0.1554  0.0985  0.0507
  195SOD    SOD22255   0.708   0.966   1.082  0.0665  0.0091 -0.3051
  196SOD    SOD22256   6.612   2.870  11.693  0.2697 -0.3085 -0.1010
  197SOD    SOD22257   1.583   3.113   4.195 -0.1512 -0.0245  0.2054
  198SOD    SOD22258   6.519   4.366  16.118 -0.0277  0.3528 -0.2429
  199SOD    SOD22259   3.218   5.686   4.899 -0.0046 -0.1318  0.6486
  200SOD    SOD22260   2.252   2.122  14.874 -0.5513 -0.1953  0.2026
  201SOD    SOD22261   4.475   0.734   2.180  0.1645  0.3874 -0.0866
  202SOD    SOD22262   3.248   4.596  12.001 -0.2146  0.1161  0.2868
  203SOD    SOD22263   2.661   5.288   6.070  0.3500 -0.1245 -0.1217
  204SOD    SOD22264   0.819   1.558  15.797 -0.5013 -0.2010  0.1738
  205SOD    SOD22265   0.481   0.757  16.031  0.0981  0.7664 -0.2095
  206SOD    SOD22266   4.415   0.755   0.920 -0.2562  0.0056  0.3600
  207SOD    SOD22267   5.926   1.712  14.011 -0.8243  0.1250  0.3719
  208SOD    SOD22268   3.457   3.436   4.355  0.7212 -0.4192 -0.0750
  209SOD    SOD22269   5.734   5.066   2.738 -0.2773  0.2214 -0.0559
  210SOD    SOD22270   5.891   2.642  11.608 -0.3338 -0.5285  1.0113
  211SOD    SOD22271   2.600   4.423  14.823 -0.2939 -0.1880  0.0442
  212SOD    SOD22272   3.559   5.262   3.508 -0.4993 -0.6476 -0.0047
  213SOD    SOD22273   5.548   0.170   5.554 -0.1294 -0.0706 -0.0164
  214SOD    SOD22274   2.293   2.274   3.154  0.6008  0.4530 -0.2743
  215SOD    SOD22275   3.061   4.725   1.056  0.1912  0.6798  0.0631
  216SOD    SOD22276   6.443   0.649  14.480 -0.2342  0.5033  0.1738
  217SOD    SOD22277   2.298   3.012  11.289 -0.1971  0.5233 -0.2247
  218SOD    SOD22278   5.320   0.888   6.211 -0.3680  0.6658  0.3470
  219SOD    SOD22279   5.727   5.929  10.666  0.7503 -0.8782  0.0257
  220SOD    SOD22280   3.032   0.766   6.735  0.0286  0.3202  0.2361
  221SOD    SOD22281   2.076   4.049  11.742  0.2770  0.0167  0.9816
  222SOD    SOD22282   6.662   3.311   4.550  0.6044 -0.2818  0.0252
  223SOD    SOD22283   1.741   3.799   6.523  0.1684 -0.1284 -0.0553
  224SOD    SOD22284   3.173   0.681   4.438 -0.2470  0.1210 -0.1700
  225SOD    SOD22285   5.547   3.969  15.346 -0.4948 -0.3327  0.4477
  226SOD    SOD22286   3.594   5.008   2.334 -0.3152  0.2284  0.4689
  227SOD    SOD22287   5.921   3.198  14.069 -0.2681  0.4741 -0.2216
  228SOD    SOD22288   0.117   5.010   2.897  0.0831  0.6395 -0.2154
  229SOD    SOD22289   1.593   4.946  11.072  0.0230 -0.2825  0.2758
  230SOD    SOD22290   1.892   2.605   0.516 -0.4670  0.1855 -0.4957
  231SOD    SOD22291   3.064   0.725  14.172 -0.6171  0.5869  0.0372
  232SOD    SOD22292   0.628   0.541  12.930  0.2419 -0.2542 -0.3485
  233SOD    SOD22293   5.117   1.169  11.090 -0.1258 -0.1237 -0.0566
  234SOD    SOD22294   6.653   1.079  10.516  0.0119 -0.5990  0.0482
  235SOD    SOD22295   4.913   1.035  11.645 -0.0090 -0.1701 -0.6496
  236SOD    SOD22296   4.954   5.225   5.601  0.2038 -0.3008 -0.2019
  237SOD    SOD22297   6.322   1.274  14.347  0.3504 -0.0458 -0.2910
  238SOD    SOD22298   4.414   4.591  11.172 -0.1665  0.0352  0.3111
  239SOD    SOD22299   1.406   0.899   5.679 -0.4267  0.3340 -0.2296
  240SOD    SOD22300   4.482   3.723  13.508 -0.3502  0.1553 -0.5525
  241SOD    SOD22301   1.598   1.543  14.932 -0.1114  0.0625  0.1548
  242SOD    SOD22302   3.980   5.417   0.301  0.3415 -0.5728 -0.6368
  243SOD    SOD22303   5.275   5.236   1.096 -0.4848  0.4476 -0.2085
  244SOD    SOD22304   6.348   0.565  12.758  0.3162  0.3093 -0.2430
  245SOD    SOD22305   6.154   0.490   2.672  0.2583 -0.1290  0.0911
  246SOD    SOD22306   6.475   1.986   5.835 -0.0217  0.3995  0.2411
  247SOD    SOD22307   1.733   6.533  16.828  0.3187 -0.3816  0.6496
  248SOD    SOD22308   2.710   2.132  11.991  0.1114  0.1248 -0.1679
  249SOD    SOD22309   4.119   6.608  15.180  0.0450  0.1370  0.5756
  250SOD    SOD22310   4.167   4.368  16.463  0.1239 -0.0145 -0.1927
  251SOD    SOD22311   0.277   1.747  15.243 -0.4413  0.4363  0.6478
  252SOD    SOD22312   1.790   4.313   1.692 -0.6057  0.1747  0.3940
  253SOD    SOD22313   2.078   6.248   5.857  0.0155  0.1398  0.4171
  254SOD    SOD22314   2.920   5.010  17.288 -0.4587  0.4840 -0.4346
  255SOD    SOD22315   5.809   3.452   6.206  0.1706 -0.5301  0.3354
  256SOD    SOD22316   3.916   2.872   5.736  0.0134  0.1065 -0.2701
  257SOD    SOD22317   6.377   2.690   0.883 -0.2426 -0.0956 -0.2788
  258SOD    SOD22318   0.251   5.192  11.486 -0.2143  0.2221 -0.4755
  259SOD    SOD22319   6.408   4.213   0.525  0.9989 -0.1961 -0.0047
  260SOD    SOD22320   0.512   2.794  12.772  0.1915  0.2261 -0.3166
  261SOD    SOD22321   4.340   2.075  16.437 -0.1327  0.1977  0.3973
  262SOD    SOD22322   0.368   3.030   1.577  0.0700  0.1492  0.3366
  263SOD    SOD22323   4.442   0.174  12.247  0.1624  0.1073 -0.4017
  264SOD    SOD22324   2.477   1.942  10.759  0.3252  0.3699  0.9179
  265SOD    SOD22325   1.978   0.163   6.642  0.2828  0.5555 -0.4599
  266SOD    SOD22326   6.438   3.932   6.041 -0.3478  0.4216 -0.3675
  267SOD    SOD22327   3.320   2.502   5.198  0.0349  0.0390  0.5257
  268SOD    SOD22328   3.122   3.438  10.658 -0.6749 -0.2902  0.3466
  269SOD    SOD22329   4.442   2.735   0.038 -0.1971  0.7014  0.2997
  270CLA    CLA22330   4.186   3.308  10.821  0.0761  0.2266  0.2463
  271CLA    CLA22331   2.974   5.671   4.816 -0.2849 -0.0714  0.1869
  272CLA    CLA22332   5.210   1.672  16.157  0.1954  0.5726 -0.0716
  273CLA    CLA22333   5.056   6.541  11.578  0.1997 -0.0752 -0.1416
  274CLA    CLA22334   2.797   4.446  16.910 -0.2641 -0.5371 -0.0104
  275CLA    CLA22335   4.422   3.776  12.731 -0.1650  0.3469  0.0705
  276CLA    CLA22336   1.476   0.981   0.981 -0.1487  0.1182 -0.5604
  277CLA    CLA22337   5.911   2.926  16.918  0.0716  0.2558  0.1239
  278CLA    CLA22338   0.512   5.806   4.080 -0.4633  0.1471  0.6219
  279CLA    CLA22339   0.506   2.970   3.963 -0.1219 -0.1833  0.0981
  280CLA    CLA22340   0.747   6.703   1.747  0.3388  0.5030  0.1823
  281CLA    CLA22341   4.943   5.175  12.461 -0.0494 -0.1370 -0.0177
  282CLA    CLA22342   5.893   3.914  16.341 -0.1890  0.2671  0.0102
  283CLA    CLA22343   5.977   6.256   4.547  0.3616 -0.0612  0.6994
  284CLA    CLA22344   0.874   4.218   2.150  0.0194  0.3999  0.4568
  285CLA    CLA22345   1.856   0.879  16.696 -0.0559 -0.1984  0.3217
  286CLA    CLA22346   4.535   3.903   4.943  0.4834 -0.1286 -0.4023
  287CLA    CLA22347   5.197   5.837  17.123 -0.1000  0.1224  0.8501
  288CLA    CLA22348   5.252   4.012   3.045 -0.0489  0.2659 -0.1324
  289CLA    CLA22349   0.770   1.224  15.445 -0.0974  0.1572 -0.5503
  290CLA    CLA22350   6.372   2.505   0.685 -0.1813 -0.3347  0.1807
  291CLA    CLA22351   3.759   4.318   0.196  0.1112  0.0135  0.0372
  292CLA    CLA22352   3.944   3.685   3.405  0.1471 -0.1043 -0.3504
  293CLA    CLA22353   0.192   0.306  15.913 -0.2978 -0.3469  0.0638
  294CLA    CLA22354   5.899   2.141  17.184  0.1247 -0.3602  0.0615
  295CLA    CLA22355   5.115   4.293  15.039  0.2690  0.2489 -0.0230
  296CLA    CLA22356   1.345   2.434  12.576  0.0451  0.1867  0.0064
  297CLA    CLA22357   1.440   1.971  16.122 -0.3013  0.1807 -0.1325
  298CLA    CLA22358   4.910   6.408   2.536 -0.0762 -0.0566  0.0555
  299CLA    CLA22359   2.366   0.640  15.118 -0.4103 -0.2468  0.0312
  300CLA    CLA22360   0.786   1.381  16.780  0.0810 -0.4284 -0.0587
  301CLA    CLA22361   3.685   4.249   2.794  0.1052  0.2810  0.3036
  302CLA    CLA22362   3.419   4.540   4.526  0.1634  0.5355 -0.0554
  303CLA    CLA22363   5.956   6.596   6.007 -0.5032  0.5471 -0.1933
  304CLA    CLA22364   4.162   2.683   0.107 -0.2414 -0.2354 -0.0959
  305CLA    CLA22365   3.731   5.884  13.860 -0.2820  0.5577 -0.4890
  306CLA    CLA22366   5.866   0.198  13.865  0.0043 -0.2671  0.4997
  307CLA    CLA22367   3.175   3.326  15.712 -0.4006  0.0549 -0.3259
  308CLA    CLA22368   5.550   0.317  13.083  0.1151 -0.2513  0.1751
  309CLA    CLA22369   0.245   3.412   1.798  0.1524  0.2699  0.3005
  310CLA    CLA22370   3.428   0.866  14.685 -0.0100 -0.1429 -0.2200
  311CLA    CLA22371   5.527   2.814  11.988  0.4450 -0.2072 -0.1312
  312CLA    CLA22372   4.098   0.138  17.242  0.2285  0.1650 -0.1253
  313CLA    CLA22373   3.936   6.166  16.624  0.0057 -0.2249 -0.5887
  314CLA    CLA22374   5.970   1.628   0.669 -0.1162 -0.1229  0.0986
  315CLA    CLA22375   0.070   0.732   3.512  0.3698  0.3210 -0.2362
  316CLA    CLA22376   3.489   4.032   3.882 -0.1512 -0.1041  0.2263
  317CLA    CLA22377   2.130   2.627   4.246 -0.1346  0.1172 -0.2713
  318CLA    CLA22378   2.366   0.062   2.098 -0.3354 -0.4262 -0.0483
  319CLA    CLA22379   0.385   6.546  11.309  0.2093 -0.2914 -0.3229
  320CLA    CLA22380   5.360   2.010  14.391  0.1955  0.1371  0.3339
  321CLA    CLA22381   2.740   6.764  13.078 -0.0865 -0.2208 -0.3409
  322CLA    CLA22382   6.595   0.116  12.871  0.0339  0.1814 -0.0848
  323TIP3   OH222383   5.792   6.558   2.374  0.2086 -0.0862 -0.1106
  323TIP3    H122384   5.760   6.513   2.451  1.6934  1.6676  1.6393
  323TIP3    H222385   5.755   6.646   2.381  1.1234  0.3787 -0.8762
  324TIP3   OH222386   3.902   0.153  11.481  0.4594  0.1111 -0.2266
  324TIP3    H122387   3.939   0.179  11.565  1.7170  1.0559 -1.0375
  324TIP3    H222388   3.934   0.064  11.467  1.0884  0.3171 -0.1501
  325TIP3   OH222389   2.051   4.707   3.177  0.4462  0.1915 -0.5700
  325TIP3    H122390   2.058   4.726   3.083 -1.4616 -2.4468 -1.3742
  325TIP3    H222391   1.958   4.690   3.192  0.6647  0.7663  1.8882
  326TIP3   OH222392   5.344   4.930   1.448  0.2367  0.5199 -0.0840
  326TIP3    H122393   5.317   4.979   1.371 -0.0655  1.4057  0.5680
  326TIP3    H222394   5.428   4.969   1.473  0.3738  0.1811 -0.0077
  327TIP3   OH222395   1.908   6.307   2.541 -0.1177  0.8195  0.4532
  327TIP3    H122396   1.899   6.229   2.597  0.8086  0.4172  0.0741
  327TIP3    H222397   1.862   6.284   2.460  0.0229  0.7164  0.4008
  328TIP3   OH222398   1.844   2.447  11.574  0.9785  0.1306  0.6222
  328TIP3    H122399   1.795   2.372  11.541  1.1327  0.0765  0.5147
  328TIP3    H222400   1.776   2.508  11.605  0.8404  0.0848  0.4163
  329TIP3   OH222401   2.780   1.499   1.945 -0.4806 -0.0901 -0.2974
  329TIP3    H122402   2.723   1.567   1.911 -0.9174  0.0178  0.6244
  329TIP3    H222403   2.737   1.417   1.922  0.4411 -0.1064 -2.1051
  330TIP3   OH222404   2.865   4.213  14.400 -0.2431 -0.6478 -0.3140
  330TIP3    H122405   2.905   4.129  14.381 -0.4651 -0.9251  0.3995
  330TIP3    H222406   2.786   4.215  14.347 -0.5111 -1.1203  0.0622
  331TIP3   OH222407   0.798   4.680  15.022 -0.3245 -0.2429  0.3005
  331TIP3    H122408   0.884   4.641  15.003 -0.0841  0.3892  0.0417
  331TIP3    H222409   0.736   4.627  14.972 -0.0990 -0.7607  0.5603
  332TIP3   OH222410   1.828   4.306   3.346  0.2268  0.1723  0.3146
  332TIP3    H122411   1.901   4.367   3.356  0.4980 -0.3750  2.1598
  332TIP3    H222412   1.867   4.219   3.358 -0.3994 -0.2823 -0.8026
  333TIP3   OH222413   5.801   6.348  16.443  0.0592 -0.1943  0.6606
  333TIP3    H122414   5.853   6.274  16.473 -2.1318 -1.2929  2.0294
  333TIP3    H222415   5.793   6.336  16.348  0.7427 -1.0351  0.7034
  334TIP3   OH222416   4.000   3.719  12.250  0.6793  0.4291  0.6659
  334TIP3    H122417   3.910   3.715  12.219  1.1009 -0.1967 -0.5307
  334TIP3    H222418   4.000   3.667  12.331 -0.1295  0.8636  0.9521
  335TIP3   OH222419   5.880   3.351  16.655  0.7355 -0.4296  0.1004
  335TIP3    H122420   5.887   3.430  16.708  1.3346  0.7700 -1.6652
  335TIP3    H222421   5.795   3.359  16.612  2.2125  1.1775 -2.8305
  336TIP3   OH222422   2.791   3.428  12.272  0.5063  0.6241  1.0725
  336TIP3    H122423   2.846   3.350  12.277 -1.3507 -0.8454 -0.0811
  336TIP3    H222424   2.798   3.456  12.181 -0.8630  0.2126  0.8193
  337TIP3   OH222425   1.996   6.092   1.984  0.2826 -0.6663  0.2965
  337TIP3    H122426   1.950   6.135   1.911  0.7336 -0.5273  0.0905
  337TIP3    H222427   2.079   6.138   1.990 -0.7543  1.1434  2.6311
  338TIP3   OH222428   4.408   1.971  14.605  0.2635  0.3137  0.1315
  338TIP3    H122429   4.427   2.015  14.523  1.1465  2.3851  1.3749
  338TIP3    H222430   4.494   1.960  14.647 -0.2919  0.5004  1.3569
  339TIP3   OH222431   3.669   0.560  12.099 -0.2989 -0.0954  0.4572
  339TIP3    H122432   3.744   0.528  12.149 -1.3279 -1.3195  1.2964
  339TIP3    H222433   3.624   0.480  12.070 -1.6658  0.5822  0.6050
  340TIP3   OH222434   2.815   1.442  14.995 -0.7072 -0.2816 -0.2110
  340TIP3    H122435   2.820   1.531  15.029 -3.1821  0.2853 -1.1497
  340TIP3    H222436   2.906   1.412  14.994  0.5836  3.1509 -2.2454
  341TIP3   OH222437   5.098   3.467   6.158  0.4009  0.7145 -0.2141
  341TIP3    H122438   5.135   3.530   6.095 -2.5372  0.7381 -2.1064
  341TIP3    H222439   5.017   3.508   6.188  0.8468 -0.1210  2.3069
  342TIP3   OH222440   0.714   4.663   4.384 -0.5200  0.2403  0.2374
  342TIP3    H122441   0.706   4.727   4.313 -0.5228 -0.2751 -0.2303
  342TIP3    H222442   0.735   4.581   4.340  0.5241  0.1338  0.9166
  343TIP3   OH222443   3.113   2.811   1.866  0.5184  0.3711 -0.8138
  343TIP3    H122444   3.149   2.727   1.894 -1.8840 -0.2510  0.6398
  343TIP3    H222445   3.049   2.789   1.798 -0.0199  1.0439 -0.5361
  344TIP3   OH222446   3.399   6.410   4.420 -0.0222 -0.1027 -0.3340
  344TIP3    H122447   3.315   6.456   4.418 -0.8549 -1.4297  1.4897
  344TIP3    H222448   3.378   6.319   4.398  0.6626 -0.7482  1.4718
  345TIP3   OH222449   0.446   4.586   3.647 -0.3449  0.1210 -0.6078
  345TIP3    H122450   0.397   4.526   3.591  0.2009  0.0862 -1.0538
  345TIP3    H222451   0.420   4.673   3.618 -0.8834  0.1063 -0.1841
  346TIP3   OH222452   0.462   6.051  13.099 -0.4756 -0.7912  0.4182
  346TIP3    H122453   0.443   6.011  13.014  1.9863  0.3401 -0.7852
  346TIP3    H222454   0.475   6.144  13.079  0.1832 -0.5035  2.0313
  347TIP3   OH222455   5.084   2.192   6.250 -0.3794 -0.1679  0.4719
  347TIP3    H122456   5.129   2.108   6.251  1.8330  0.8893 -1.2285
  347TIP3    H222457   4.997   2.173   6.215  0.9252 -1.4886 -2.4319
  348TIP3   OH222458   1.994   1.910  15.546 -0.0462 -0.0276 -0.0710
  348TIP3    H122459   2.087   1.932  15.539 -0.1031  0.2973  0.1887
  348TIP3    H222460   1.972   1.930  15.637 -0.1828 -0.8356  0.0772
  349TIP3   OH222461   0.942   3.973   3.766  0.6880  0.6195 -0.0778
  349TIP3    H122462   0.937   3.975   3.671 -1.1894 -0.7190 -0.0453
  349TIP3    H222463   0.896   4.053   3.794 -0.9469 -0.2078 -0.2844
  350TIP3   OH222464   6.401   3.330   0.667  0.4234 -0.0777  0.1356
  350TIP3    H122465   6.320   3.356   0.624 -0.6388 -1.9620  0.9009
  350TIP3    H222466   6.450   3.284   0.599  0.7034  0.6964 -0.2070
  351TIP3   OH222467   0.997   1.164  14.358  0.2237  0.4138  0.1639
  351TIP3    H122468   1.085   1.140  14.329  0.2094  1.1750 -0.5535
  351TIP3    H222469   1.007   1.254  14.389 -0.5335  0.9496 -1.0664
  352TIP3   OH222470   5.031   1.619  12.435  0.4601 -0.1757 -0.6899
  352TIP3    H122471   5.028   1.531  12.473  0.1546 -0.6788 -1.8537
  352TIP3    H222472   4.943   1.635  12.402 -0.2906  1.6790  1.8548
  353TIP3   OH222473   1.704   2.105  13.403 -0.4143 -0.1481  0.3818
  353TIP3    H122474   1.690   2.033  13.465 -0.8442 -1.6777 -1.3777
  353TIP3    H222475   1.670   2.071  13.320 -0.0766  1.8966 -0.6453
  354TIP3   OH222476   0.155   2.039  12.623 -0.2209 -0.9099 -0.4129
  354TIP3    H122477   0.209   2.043  12.544  0.9322  0.3483  0.3858
  354TIP3    H222478   0.213   2.000  12.689  1.2925  3.7679  1.4946
  355TIP3   OH222479   4.803   2.922   5.551  0.6182 -0.5696 -0.5846
  355TIP3    H122480   4.827   2.830   5.542  2.1470 -0.5003  2.0501
  355TIP3    H222481   4.732   2.922   5.615  0.0941  0.0707 -1.1470
  356TIP3   OH222482   1.787   3.468   6.015 -0.1041  0.0464  0.0737
  356TIP3    H122483   1.729   3.541   5.993  0.7469  0.7796  0.1908
  356TIP3    H222484   1.872   3.509   6.033  0.1267 -0.8650  1.2075
  357TIP3   OH222485   6.514   3.627  16.611 -0.0220  0.7583 -0.5327
  357TIP3    H122486   6.511   3.544  16.562  1.2521  1.1210 -1.2512
  357TIP3    H222487   6.490   3.602  16.700  0.3272 -0.3856 -0.7395
  358TIP3   OH222488   4.322   3.021   4.476 -0.5915 -0.2819  0.0039
  358TIP3    H122489   4.349   3.001   4.386 -0.8216  0.6493 -0.2918
  358TIP3    H222490   4.319   2.937   4.520  2.1629 -0.5163 -0.1118
  359TIP3   OH222491   6.249   2.514  13.291 -0.0142 -0.6528  0.4927
  359TIP3    H122492   6.196   2.535  13.368 -1.3133 -1.5829 -0.1154
  359TIP3    H222493   6.282   2.599  13.262 -2.9219  0.3168 -0.3320
  360TIP3   OH222494   3.571   3.353   3.885  0.0550 -0.1168 -0.4464
  360TIP3    H122495   3.638   3.291   3.914  0.4127  1.7373  3.2523
  360TIP3    H222496   3.618   3.410   3.824  1.0440 -0.5950 -0.1629
  361TIP3   OH222497   3.385   3.168  12.297 -0.7310  0.0213 -0.0306
  361TIP3    H122498   3.426   3.226  12.233  1.2372 -0.9852  0.2192
  361TIP3    H222499   3.348   3.096  12.246 -1.0949  0.3097 -0.1760
  362TIP3   OH222500   1.563   1.081   3.124 -0.1064  0.1857 -0.4699
  362TIP3    H122501   1.496   1.024   3.161  0.3666  0.3866  0.7453
  362TIP3    H222502   1.639   1.069   3.182 -0.0830  2.2276 -0.0252
  363TIP3   OH222503   0.208   5.863  16.371 -1.2353  0.4678 -0.7520
  363TIP3    H122504   0.146   5.822  16.432 -0.9508  0.9651 -0.1214
  363TIP3    H222505   0.274   5.903  16.427  2.2889 -3.8348 -1.3144
  364TIP3   OH222506   5.663   2.786  10.612  0.0013  0.1997  0.0005
  364TIP3    H122507   5.600   2.731  10.658  1.0676 -1.1534 -0.0937
  364TIP3    H222508   5.683   2.856  10.673 -3.0544  1.8686 -0.6905
  365TIP3   OH222509   3.190   6.668   4.915  0.0524 -0.1329  0.4147
  365TIP3    H122510   3.120   6.602   4.919 -0.3947  0.3376  0.4677
  365TIP3    H222511   3.159   6.731   4.849  0.9505 -0.5088 -0.3958
  366TIP3   OH222512   1.599   6.608   2.378 -0.3751 -0.3589 -1.1022
  366TIP3    H122513   1.690   6.635   2.391 -0.4749 -0.4802 -0.1468
  366TIP3    H222514   1.581   6.629   2.286  0.3760  0.3536 -1.0911
  367TIP3   OH222515   0.598   4.174   0.546  0.1956 -0.1969  0.2163
  367TIP3    H122516   0.636   4.090   0.573 -0.0946  0.1672  1.8579
  367TIP3    H222517   0.589   4.224   0.627  0.1415  1.3497 -0.6956
  368TIP3   OH222518   4.938   5.486  16.291 -0.6046 -0.4995  0.3310
  368TIP3    H122519   4.866   5.542  16.320 -2.3961 -0.9021 -2.8396
  368TIP3    H222520   4.928   5.481  16.196  1.7301 -3.1940  0.0682
  369TIP3   OH222521   5.909   4.593  12.485 -0.0929 -0.1112  0.0171
  369TIP3    H122522   5.992   4.569  12.527 -0.5814 -1.6187  0.2134
  369TIP3    H222523   5.850   4.610  12.558 -0.0874  0.4867 -0.1159
  370TIP3   OH222524   1.881   5.710  17.106 -0.3481  0.6240  0.0857
  370TIP3    H122525   1.817   5.738  17.171 -2.5847 -1.2369 -1.1751
  370TIP3    H222526   1.830   5.665  17.039  2.3120 -1.1823 -0.9041
  371TIP3   OH222527   4.944   4.742   2.918 -0.4152  0.0889 -0.1987
  371TIP3    H122528   4.953   4.697   3.002  0.5986 -2.1362 -1.4344
  371TIP3    H222529   4.855   4.721   2.889 -0.5434  0.3384  0.0041
  372TIP3   OH222530   1.002   2.115  13.395  0.3329 -0.0545 -0.4535
  372TIP3    H122531   1.053   2.194  13.378  0.3043 -0.0690 -0.6109
  372TIP3    H222532   0.973   2.086  13.308 -0.1077  0.0597 -0.3427
  373TIP3   OH222533   0.817   4.206  11.590 -0.3498 -0.5383 -0.1423
  373TIP3    H122534   0.834   4.136  11.527 -1.2164  0.1774 -1.1982
  373TIP3    H222535   0.872   4.278  11.562  0.4193 -0.7157  0.8512
  374TIP3   OH222536   4.890   2.130   4.991  0.4363  0.7815  0.0844
  374TIP3    H122537   4.952   2.176   5.048  0.8241 -1.8450  1.9369
  374TIP3    H222538   4.943   2.096   4.920  0.9631 -0.4954  1.0642
  375TIP3   OH222539   2.176   4.306   2.686 -0.1991 -0.3040 -0.2133
  375TIP3    H122540   2.252   4.341   2.732  0.0986 -2.6242  1.2275
  375TIP3    H222541   2.211   4.243   2.624 -0.9082 -1.3903  0.4526
  376TIP3   OH222542   3.800   5.954   5.395  0.0995  0.1256  0.2962
  376TIP3    H122543   3.777   6.045   5.375 -0.6048  0.1476  1.1333
  376TIP3    H222544   3.854   5.960   5.474 -1.7030 -0.2761  1.6475
  377TIP3   OH222545   6.629   4.175  11.510  0.3778 -0.0409 -0.4311
  377TIP3    H122546   6.591   4.203  11.428  1.6557 -0.0204 -1.0480
  377TIP3    H222547   6.643   4.255  11.560 -2.2643 -0.2040  0.7057
  378TIP3   OH222548   6.085   4.608   0.280 -0.2618  0.8255 -0.0182
  378TIP3    H122549   6.065   4.536   0.220  0.3225  0.5660  0.0889
  378TIP3    H222550   6.143   4.666   0.230  0.3570  0.5285  0.3334
  379TIP3   OH222551   1.982   3.244   2.996 -0.2069 -0.2300 -0.1433
  379TIP3    H122552   1.899   3.265   3.039 -0.4658  0.7044 -1.0559
  379TIP3    H222553   2.045   3.240   3.068 -0.7355  0.6663  0.3967
  380TIP3   OH222554   1.356   5.777   1.032  0.6871  0.1262  0.0710
  380TIP3    H122555   1.392   5.743   1.114  1.5171  0.9513  0.0687
  380TIP3    H222556   1.424   5.836   0.998 -0.5479  1.5375 -0.0763
  381TIP3   OH222557   5.773   1.024   4.491 -0.5325  0.3404  0.6661
  381TIP3    H122558   5.805   1.111   4.471  1.3018 -0.1565  1.2365
  381TIP3    H222559   5.760   0.982   4.405 -0.3717  0.8171  0.4084
  382TIP3   OH222560   1.271   1.088   5.630  0.0625 -0.3904 -0.0841
  382TIP3    H122561   1.274   1.167   5.576  1.0877 -1.2527 -1.3430
  382TIP3    H222562   1.196   1.102   5.688  0.1115  1.4149 -0.3996
  383TIP3   OH222563   1.963   0.652   0.209  0.3134  0.0246  0.0506
  383TIP3    H122564   1.960   0.613   0.122  0.4599 -0.1107  0.1061
  383TIP3    H222565   1.895   0.607   0.258 -1.8996  2.1636 -0.8373
  384TIP3   OH222566   0.703   5.897  11.898  0.3331  0.3070  0.1914
  384TIP3    H122567   0.702   5.802  11.892  0.3308  0.2909  0.4277
  384TIP3    H222568   0.750   5.915  11.980  0.9587  0.5266 -0.2072
  385TIP3   OH222569   0.195   3.358   3.959  0.3109 -0.3917  0.4822
  385TIP3    H122570   0.101   3.376   3.965  0.0561  0.6689 -3.8062
  385TIP3    H222571   0.237   3.438   3.991 -0.5460  1.6506 -2.9240
  386TIP3   OH222572   3.062   0.666  11.750 -0.0348 -0.6593 -0.5470
  386TIP3    H122573   3.044   0.606  11.822  0.8588 -1.0681 -0.6530
  386TIP3    H222574   3.138   0.628  11.705 -0.2999 -0.1786 -1.4349
  387TIP3   OH222575   3.689   1.176   4.837  0.6558  0.5057 -0.0702
  387TIP3    H122576   3.619   1.232   4.872 -0.0373 -0.2334 -0.2240
  387TIP3    H222577   3.676   1.179   4.742 -1.1929 -2.0670 -0.0152
  388TIP3   OH222578   0.196   2.900  10.575  0.1547 -0.1171 -0.0894
  388TIP3    H122579   0.175   2.989  10.548 -1.4729 -0.5700 -0.4236
  388TIP3    H222580   0.236   2.910  10.662 -1.5499  0.8456  0.6278
  389TIP3   OH222581   3.026   6.128  14.792  0.3023 -0.4456  0.0576
  389TIP3    H122582   3.083   6.201  14.768 -0.5064  0.3823  0.5860
  389TIP3    H222583   2.956   6.169  14.843  0.8548 -1.8425  2.0559
  390TIP3   OH222584   3.807   5.216   5.096  0.1009  0.2915 -0.1879
  390TIP3    H122585   3.732   5.177   5.141 -0.3412  1.2357 -0.0730
  390TIP3    H222586   3.775   5.301   5.065  1.0473  0.6017 -0.3650
  391TIP3   OH222587   2.777   6.186   4.203 -0.8100  0.6037  0.3038
  391TIP3    H122588   2.693   6.229   4.186 -2.2312 -1.8194  0.6345
  391TIP3    H222589   2.767   6.098   4.165  2.4962  0.9419 -1.7949
  392TIP3   OH222590   4.982   3.450   4.963  0.3268 -0.3996 -0.7613
  392TIP3    H122591   5.035   3.526   4.988 -1.8343  1.0519 -0.3719
  392TIP3    H222592   4.962   3.464   4.870  0.3227 -0.7445 -0.8127
  393TIP3   OH222593   2.184   3.860  11.153  0.4017 -0.2142  0.6057
  393TIP3    H122594   2.261   3.866  11.095 -0.4841  1.1323 -0.5057
  393TIP3    H222595   2.117   3.819  11.099  0.3686 -1.5827  1.6453
  394TIP3   OH222596   1.595   5.575   4.379  0.4617 -0.1696  0.2354
  394TIP3    H122597   1.552   5.651   4.417 -2.4377 -1.7647  0.4128
  394TIP3    H222598   1.676   5.566   4.430 -0.8162  0.7505  2.5918
  395TIP3   OH222599   4.970   3.967  12.123 -0.2291 -0.0719  0.3798
  395TIP3    H122600   4.990   3.953  12.031  3.8978  0.8948  0.9318
  395TIP3    H222601   5.035   3.915  12.170  0.1341  2.1687  2.6117
  396TIP3   OH222602   1.165   0.179   4.838  1.2562  0.0580  0.5689
  396TIP3    H122603   1.071   0.172   4.824  1.1693  0.2613  1.0311
  396TIP3    H222604   1.194   0.090   4.859  1.2296 -0.0705  0.0643
  397TIP3   OH222605   4.087   3.555  10.645  0.2872  0.3228  0.1000
  397TIP3    H122606   4.113   3.473  10.687  0.2113  0.3129  0.1269
  397TIP3    H222607   4.101   3.538  10.551 -0.1912  0.1122  0.0670
  398TIP3   OH222608   1.410   2.464   3.277  0.5959  0.5256  0.3047
  398TIP3    H122609   1.375   2.532   3.335  0.2650  1.3808 -0.8682
  398TIP3    H222610   1.455   2.513   3.208  1.5715 -0.4959  0.1960
  399TIP3   OH222611   1.978   4.651  12.397  0.2288  0.4021 -0.1471
  399TIP3    H122612   2.005   4.697  12.476  0.0447  0.8385 -0.3385
  399TIP3    H222613   1.971   4.719  12.330  1.8400 -0.1604 -0.9282
  400TIP3   OH222614   0.636   6.226  11.354  0.0536  0.2533  0.0502
  400TIP3    H122615   0.651   6.258  11.443  0.6977  1.1698 -0.3661
  400TIP3    H222616   0.625   6.306  11.302  0.4943 -0.2345 -0.8216
  401TIP3   OH222617   5.701   0.076  12.612 -0.4030  0.6729  0.1160
  401TIP3    H122618   5.682   0.139  12.542 -0.0942  1.5564  0.8133
  401TIP3    H222619   5.631   0.090  12.676 -2.6108 -2.3088 -1.3591
  402TIP3   OH222620   1.841   1.020   0.024 -0.0896 -0.3243 -0.1794
  402TIP3    H122621   1.810   1.108   0.049 -0.1247 -0.7468  1.3308
  402TIP3    H222622   1.935   1.022   0.042  0.2955  0.0128 -2.0256
  403TIP3   OH222623   3.594   5.777   6.551 -0.3069 -0.1983  0.0689
  403TIP3    H122624   3.682   5.762   6.517  0.4044  2.3994  0.5371
  403TIP3    H222625   3.567   5.692   6.586  1.0119 -1.6669 -2.2148
  404TIP3   OH222626   4.770   6.156   1.660 -0.0044 -0.1211  0.1720
  404TIP3    H122627   4.675   6.167   1.662 -0.2403 -0.1387 -3.5341
  404TIP3    H222628   4.803   6.246   1.649  0.5262 -0.0451  2.0544
  405TIP3   OH222629   3.233   4.076  16.252 -0.3110 -0.2583 -0.4955
  405TIP3    H122630   3.148   4.086  16.209 -0.3853 -1.9264 -0.8056
  405TIP3    H222631   3.227   3.992  16.297  0.7296  0.2061  0.5628
  406TIP3   OH222632   1.450   0.737  15.479  0.5972 -0.4626  0.2063
  406TIP3    H122633   1.506   0.660  15.471  0.6921 -0.6006  1.9152
  406TIP3    H222634   1.461   0.766  15.569 -1.2049  0.1865  0.2644
  407TIP3   OH222635   3.687   1.986  13.112  0.7182 -0.9705  0.6128
  407TIP3    H122636   3.615   1.925  13.094  1.2000 -1.6115  0.8064
  407TIP3    H222637   3.646   2.058  13.160  0.4350 -2.0295  2.0337
  408TIP3   OH222638   4.631   4.023  13.877  0.0124 -0.7440 -0.0955
  408TIP3    H122639   4.632   3.980  13.962 -1.9960  2.1661  1.5504
  408TIP3    H222640   4.538   4.036  13.858  0.4866  0.6192 -1.6973
  409TIP3   OH222641   4.239   5.262  15.935  0.3581 -0.5573 -0.0425
  409TIP3    H122642   4.296   5.188  15.913  0.7431  0.0618 -1.1938
  409TIP3    H222643   4.150   5.230  15.917  0.4566 -0.9879  0.2089
  410TIP3   OH222644   0.949   3.033  10.925 -0.5220 -0.0374  0.1640
  410TIP3    H122645   0.997   2.952  10.939  0.2158 -0.0365 -1.9842
  410TIP3    H222646   0.858   3.011  10.948  0.0050 -0.8050  1.6806
  411TIP3   OH222647   0.089   2.779  15.012  0.7341 -0.5656 -0.3988
  411TIP3    H122648   0.125   2.774  15.101 -1.0367  0.7708  0.4392
  411TIP3    H222649   0.035   2.858  15.012 -0.5750 -1.3942 -2.1954
  412TIP3   OH222650   5.963   1.733  11.348  0.3341  0.4959  0.2879
  412TIP3    H122651   5.973   1.655  11.294  0.0592 -0.4091  1.4889
  412TIP3    H222652   6.052   1.762  11.365  0.4780 -0.0922  0.5662
  413TIP3   OH222653   1.932   5.923  11.132  0.0539 -0.6148 -0.0023
  413TIP3    H122654   1.904   5.929  11.041 -1.1080 -2.3537  0.1882
  413TIP3    H222655   1.863   5.967  11.181  0.1953 -0.5103  0.1009
  414TIP3   OH222656   6.418   1.995   1.347 -0.1670 -0.0832 -0.9068
  414TIP3    H122657   6.471   1.965   1.274  1.4840 -2.8712  1.2458
  414TIP3    H222658   6.397   1.916   1.396 -2.7147  1.4549  0.7219
  415TIP3   OH222659   0.920   6.529   2.421  0.0037  0.0353  0.4153
  415TIP3    H122660   0.891   6.473   2.493 -1.1288  0.7929  0.5805
  415TIP3    H222661   0.964   6.470   2.360 -0.3035 -0.8633  1.0453
  416TIP3   OH222662   4.237   0.858   1.557  0.3837 -1.0443  0.1759
  416TIP3    H122663   4.219   0.864   1.651 -1.8958 -2.4707 -0.1087
  416TIP3    H222664   4.218   0.946   1.524 -0.1770 -0.9148  0.8243
  417TIP3   OH222665   5.722   1.245   0.644 -0.8534  0.0779 -0.6004
  417TIP3    H122666   5.693   1.178   0.706  0.0280 -0.6962 -0.9924
  417TIP3    H222667   5.698   1.210   0.558  0.5050 -0.2348 -0.8762
  418TIP3   OH222668   2.936   0.607  14.918 -0.1148  0.2784  0.3482
  418TIP3    H122669   3.008   0.631  14.858  0.0082  1.0728  0.7917
  418TIP3    H222670   2.978   0.598  15.003 -0.4946  0.4640  0.5578
  419TIP3   OH222671   1.382   2.514   0.762  0.1008 -0.3381  0.0325
  419TIP3    H122672   1.422   2.497   0.847 -0.7172  1.3529  0.7987
  419TIP3    H222673   1.437   2.582   0.722 -0.6770  0.3553  0.1128
  420TIP3   OH222674   6.074   2.527   4.752 -0.1024  0.4998  0.2273
  420TIP3    H122675   6.098   2.443   4.791 -1.3699 -0.2300 -0.4829
  420TIP3    H222676   6.011   2.565   4.813  0.7527  1.1211  0.7335
  421TIP3   OH222677   1.366   3.057   0.907  0.4760  0.2348  0.2052
  421TIP3    H122678   1.445   3.063   0.960 -0.5315 -1.1416  1.9890
  421TIP3    H222679   1.304   3.009   0.962 -0.4037 -2.0088 -2.4772
  422TIP3   OH222680   0.097   3.353   6.802 -0.0713  0.1475 -0.8318
  422TIP3    H122681   0.026   3.330   6.861 -1.5692  0.7983 -2.3161
  422TIP3    H222682   0.151   3.274   6.799 -0.7408 -0.3852  0.2727
  423TIP3   OH222683   6.554   6.386  13.688 -0.1129 -0.4549 -0.2124
  423TIP3    H122684   6.572   6.416  13.777 -1.0374 -0.1209 -0.1353
  423TIP3    H222685   6.486   6.445  13.655 -1.5379 -2.0609 -0.2700
  424TIP3   OH222686   0.515   2.395  11.143 -0.2036  0.4244  0.4292
  424TIP3    H122687   0.443   2.395  11.080  0.1216 -1.4197  0.0215
  424TIP3    H222688   0.592   2.373  11.092  0.2286 -0.1742  1.3119
  425TIP3   OH222689   6.671   0.612   4.674  0.3295 -0.5418 -0.4300
  425TIP3    H122690   6.723   0.617   4.754 -2.2699  0.6551  1.3641
  425TIP3    H222691   6.633   0.524   4.676  0.3020 -0.5287 -0.3711
  426TIP3   OH222692   1.851   1.373   1.135  0.0320  0.7917  0.0475
  426TIP3    H122693   1.775   1.320   1.113  0.1392  0.0580  1.3474
  426TIP3    H222694   1.815   1.451   1.177 -0.0299  0.7287  0.1108
  427TIP3   OH222695   3.788   4.591   4.839 -0.3340  0.5766 -0.5772
  427TIP3    H122696   3.783   4.677   4.798 -0.4217  0.2503 -1.2541
  427TIP3    H222697   3.868   4.593   4.892 -0.4785  1.1631 -0.3833
  428TIP3   OH222698   0.758   0.282   5.904 -1.1380 -0.0105 -0.2538
  428TIP3    H122699   0.768   0.369   5.865 -2.3303  0.4635  0.4443
  428TIP3    H222700   0.673   0.285   5.948 -0.9513 -1.3550  0.2462
  429TIP3   OH222701   2.983   3.440   4.968 -0.6173  0.0844 -0.0288
  429TIP3    H122702   2.903   3.483   4.937 -0.9881  2.1852  3.2639
  429TIP3    H222703   2.954   3.384   5.040  0.5025 -2.1229 -1.2088
  430TIP3   OH222704   5.134   6.184   0.485 -0.2828  0.2121 -0.4057
  430TIP3    H122705   5.093   6.249   0.428 -1.6486  0.4149  0.7599
  430TIP3    H222706   5.085   6.104   0.469 -0.7525  0.2999  0.5649
  431TIP3   OH222707   0.349   4.323   1.296 -0.1261  1.0810  0.5011
  431TIP3    H122708   0.266   4.368   1.311 -0.2397  1.1975 -0.4241
  431TIP3    H222709   0.364   4.331   1.202 -0.3683 -1.1944  0.2159
  432TIP3   OH222710   6.097   3.775   4.049 -0.2454  0.2086 -0.1798
  432TIP3    H122711   6.049   3.707   4.097  0.5684 -0.8041 -0.7634
  432TIP3    H222712   6.107   3.739   3.961 -0.7996  1.5898 -0.8478
  433TIP3   OH222713   1.614   5.755  13.845 -0.4347 -0.5267 -0.1124
  433TIP3    H122714   1.524   5.732  13.869 -0.6877  0.8067  0.3064
  433TIP3    H222715   1.669   5.711  13.910 -0.7994 -1.0834 -0.1775
  434TIP3   OH222716   5.582   2.057   5.937 -0.1283  0.5336  0.0833
  434TIP3    H122717   5.616   2.048   5.848 -0.9313 -0.9893 -0.0995
  434TIP3    H222718   5.656   2.034   5.994 -0.4460 -1.5242 -0.2791
  435TIP3   OH222719   5.363   4.514   3.043  0.5446  0.2573 -0.8335
  435TIP3    H122720   5.330   4.598   3.010 -1.1262 -0.7365 -1.8711
  435TIP3    H222721   5.324   4.449   2.984  1.6187 -1.2641  0.0769
  436TIP3   OH222722   1.266   0.678   6.303  0.0228  0.2350  0.5503
  436TIP3    H122723   1.215   0.690   6.383  0.4806 -0.8227  1.0263
  436TIP3    H222724   1.232   0.596   6.266  0.9967 -0.1954  0.5911
  437TIP3   OH222725   6.086   4.417   2.226 -0.3995  0.3574 -0.2085
  437TIP3    H122726   6.049   4.503   2.208 -1.6315 -0.1086 -0.0174
  437TIP3    H222727   6.163   4.435   2.280 -1.9915  1.2601  1.9387
  438TIP3   OH222728   3.323   3.223  11.212 -0.3939  0.1288 -0.1502
  438TIP3    H122729   3.257   3.224  11.142 -0.8028  0.8114  0.2252
  438TIP3    H222730   3.370   3.141  11.200  0.1199  0.6197 -1.7571
  439TIP3   OH222731   3.421   3.637   4.929  0.3351  0.4323  0.0438
  439TIP3    H122732   3.334   3.661   4.899  0.9612  0.1519 -2.2317
  439TIP3    H222733   3.406   3.586   5.009 -1.4351  1.8275  0.6587
  440TIP3   OH222734   2.688   6.145  12.285  0.6118 -0.3143  0.2876
  440TIP3    H122735   2.715   6.173  12.372  0.5739  0.0424  0.1843
  440TIP3    H222736   2.750   6.186  12.225 -0.3910  0.8506  0.0209
  441TIP3   OH222737   3.884   5.573   5.681  0.4704  0.5132 -0.3397
  441TIP3    H122738   3.964   5.593   5.634  0.4447 -0.8232 -1.0017
  441TIP3    H222739   3.858   5.487   5.649 -0.7763  0.5527  0.4794
  442TIP3   OH222740   4.341   2.798   3.841 -0.0574 -0.5718 -0.0263
  442TIP3    H122741   4.417   2.795   3.783 -0.0179 -0.2345  0.0104
  442TIP3    H222742   4.309   2.888   3.835  0.9181 -0.0623  1.7143
  443TIP3   OH222743   3.102   1.154  16.327  0.1340 -0.5918  0.2926
  443TIP3    H122744   3.193   1.141  16.302 -0.5691 -0.9903 -2.3708
  443TIP3    H222745   3.068   1.216  16.263 -1.5415 -0.6148  1.0984
  444TIP3   OH222746   5.014   1.503   4.485 -0.0315  0.0961  0.8449
  444TIP3    H122747   5.048   1.413   4.482 -1.0612 -0.3469 -2.6240
  444TIP3    H222748   5.086   1.557   4.453 -0.8077 -0.2421 -1.7884
  445TIP3   OH222749   5.361   3.744  14.329  0.0006 -0.4209  0.9005
  445TIP3    H122750   5.341   3.671  14.387  0.3639 -1.1694  0.1050
  445TIP3    H222751   5.293   3.808  14.347 -0.9779 -1.4154  0.8196
  446TIP3   OH222752   1.557   0.417   3.009 -0.1144 -0.5812 -0.0019
  446TIP3    H122753   1.524   0.450   2.926  0.8086 -1.0602 -0.5806
  446TIP3    H222754   1.591   0.330   2.989  0.1120 -0.7078  0.8748
  447TIP3   OH222755   3.745   5.167   4.540 -0.0284 -0.2141  0.4924
  447TIP3    H122756   3.696   5.194   4.617 -0.2276  0.8734  0.0076
  447TIP3    H222757   3.829   5.136   4.575 -0.3378 -0.2853  1.1847
  448TIP3   OH222758   0.270   0.397  13.433 -0.1398 -0.0482 -0.1512
  448TIP3    H122759   0.301   0.379  13.345  0.2338  0.5849 -0.1564
  448TIP3    H222760   0.301   0.322  13.485  0.8280  0.2339 -0.2898
  449TIP3   OH222761   4.737   4.433   0.088  0.6548  0.4231 -0.3111
  449TIP3    H122762   4.827   4.420   0.118  0.0169 -0.9896  1.2081
  449TIP3    H222763   4.745   4.471   0.001  2.7312 -0.4231 -0.5397
  450TIP3   OH222764   0.642   6.774   2.679  0.4980 -0.3967  0.0106
  450TIP3    H122765   0.669   6.726   2.757 -1.2295 -0.5882  0.5387
  450TIP3    H222766   0.724   6.807   2.641  1.6491 -2.7665  0.2563
  451TIP3   OH222767   5.601   5.528   2.047 -0.2599  0.1705 -0.7612
  451TIP3    H122768   5.689   5.492   2.031  0.7532  2.2132 -0.1647
  451TIP3    H222769   5.546   5.488   1.980  1.0951 -1.2296 -1.0959
  452TIP3   OH222770   6.520   0.023  12.550  0.2832 -0.0801  0.7141
  452TIP3    H122771   6.564   0.055  12.629 -0.2499 -0.9819  1.3909
  452TIP3    H222772   6.439   0.073  12.546  0.4231  0.1387  0.6006
  453TIP3   OH222773   5.967   2.473  13.795  0.0432 -0.3623 -0.7360
  453TIP3    H122774   5.930   2.533  13.861  2.2109 -0.3169  0.5417
  453TIP3    H222775   5.907   2.480  13.721 -0.8281  1.9728  0.0684
  454TIP3   OH222776   2.016   0.901   3.708  0.3347 -0.0305  0.2628
  454TIP3    H122777   2.062   0.908   3.625  1.0793  0.7322  0.7272
  454TIP3    H222778   2.085   0.894   3.774 -0.1316  2.1737  1.0623
  455TIP3   OH222779   4.988   1.188  11.281  0.0853 -0.2206 -0.3145
  455TIP3    H122780   4.906   1.143  11.302 -1.3558  2.3179 -0.1167
  455TIP3    H222781   5.020   1.220  11.365 -0.9375  2.2441 -0.7747
  456TIP3   OH222782   0.629   0.960   4.997  0.0145 -0.8361 -0.0848
  456TIP3    H122783   0.697   0.911   4.950 -0.1510  0.0955 -1.3485
  456TIP3    H222784   0.667   1.047   5.009 -0.7815 -0.4202 -0.4620
  457TIP3   OH222785   4.100   3.348   3.926  0.1749 -0.3637  0.8851
  457TIP3    H122786   4.157   3.277   3.896  0.1703  0.5615 -1.5133
  457TIP3    H222787   4.056   3.379   3.847 -0.0781  2.0850  1.8996
  458TIP3   OH222788   3.714   4.939  11.313 -0.0479  0.0139 -0.5797
  458TIP3    H122789   3.671   4.861  11.276 -0.5902 -0.3287  0.6981
  458TIP3    H222790   3.648   5.008  11.307 -0.4158 -0.2309  0.3703
  459TIP3   OH222791   2.637   5.496  16.497 -0.2130 -0.0462 -0.0107
  459TIP3    H122792   2.696   5.570  16.515  3.2314 -2.6100  0.1865
  459TIP3    H222793   2.636   5.488  16.402 -0.5504  0.1794 -0.0287
  460TIP3   OH222794   1.645   2.838   2.850  0.3310 -0.7218 -0.5330
  460TIP3    H122795   1.719   2.896   2.867  2.1901 -2.9836 -0.4415
  460TIP3    H222796   1.617   2.809   2.937 -1.7714  1.2693 -0.4388
  461TIP3   OH222797   5.315   1.532   4.621  0.3128  0.2508  0.1331
  461TIP3    H122798   5.243   1.554   4.681  0.6190 -1.1435  1.0784
  461TIP3    H222799   5.279   1.462   4.566 -0.0098  1.6205 -1.4581
  462TIP3   OH222800   0.824   4.238  16.186  0.5105 -0.0118 -0.3329
  462TIP3    H122801   0.733   4.241  16.217  0.8797 -0.1366  0.8090
  462TIP3    H222802   0.856   4.328  16.195 -0.0304  0.4673 -2.5131
  463TIP3   OH222803   2.419   3.602   1.058  0.7123  0.1506  0.2821
  463TIP3    H122804   2.431   3.557   1.141  1.7810  0.1786  0.1503
  463TIP3    H222805   2.454   3.542   0.992 -0.9861 -0.2904 -0.2778
  464TIP3   OH222806   6.256   5.015   2.787  0.3908  0.0591 -0.0638
  464TIP3    H122807   6.333   5.066   2.812  2.5829 -1.6234 -2.7987
  464TIP3    H222808   6.291   4.942   2.737 -3.0242 -0.8246 -1.4452
  465TIP3   OH222809   4.767   4.967  16.409  0.1790  0.8847  0.4215
  465TIP3    H122810   4.686   5.012  16.385  0.9639  1.9705 -0.3010
  465TIP3    H222811   4.741   4.903  16.475 -1.1315  1.8051  0.8278
  466TIP3   OH222812   0.866   4.200   1.424  0.1807  0.5988 -0.1927
  466TIP3    H122813   0.869   4.217   1.518 -0.5532  0.6168 -0.1661
  466TIP3    H222814   0.908   4.276   1.384 -0.5919  1.1697  0.0621
  467TIP3   OH222815   5.042   6.109  17.192 -0.1503 -0.5467  0.3152
  467TIP3    H122816   5.068   6.160  17.269 -2.6451 -1.6653  2.0427
  467TIP3    H222817   5.101   6.034  17.192  1.8211  0.9270 -0.7009
  468TIP3   OH222818   2.815   3.338  11.804  0.4778  0.3431 -0.0942
  468TIP3    H122819   2.840   3.275  11.873 -1.8330 -0.8296 -0.2537
  468TIP3    H222820   2.895   3.388  11.789  2.0303 -1.6082  1.0534
  469TIP3   OH222821   6.046   0.520   0.531 -0.3418  0.6980 -1.0822
  469TIP3    H122822   6.051   0.433   0.570 -2.1243  1.0435  0.0348
  469TIP3    H222823   6.080   0.509   0.442  1.9123 -0.5586 -0.1651
  470TIP3   OH222824   6.028   2.359   1.362 -0.3245  0.1811 -0.8820
  470TIP3    H122825   6.070   2.443   1.341 -2.5899  1.8179  0.5393
  470TIP3    H222826   6.093   2.293   1.340  1.7370  2.3286 -1.6911
  471TIP3   OH222827   0.699   6.355  14.581 -0.6204 -0.5042  0.3847
  471TIP3    H122828   0.686   6.439  14.536 -0.7273  0.3765  1.9870
  471TIP3    H222829   0.672   6.289  14.517 -2.0592  0.7536 -0.3611
  472TIP3   OH222830   4.115   1.336   1.895  0.1686  0.6557  0.5584
  472TIP3    H122831   4.155   1.422   1.880  1.2172  0.2768  1.1150
  472TIP3    H222832   4.021   1.353   1.893  0.3489  1.6988 -0.0197
  473TIP3   OH222833   3.790   6.229  11.011 -0.0758 -0.3315  0.1731
  473TIP3    H122834   3.874   6.204  10.973 -1.4465 -2.8361 -1.5396
  473TIP3    H222835   3.770   6.314  10.973  1.5575  0.1865  0.4305
  474TIP3   OH222836   4.643   3.283  16.428 -0.6671  0.0858  0.7699
  474TIP3    H122837   4.686   3.302  16.345 -1.7777 -0.3236  0.0795
  474TIP3    H222838   4.703   3.224  16.473 -0.7544 -0.9732 -0.4424
  475TIP3   OH222839   4.383   2.129   6.174 -0.3443  0.2413  0.6087
  475TIP3    H122840   4.288   2.138   6.180 -0.7027 -1.5396 -1.4659
  475TIP3    H222841   4.404   2.054   6.230  0.0930  1.4984  2.2181
  476TIP3   OH222842   5.852   1.846   5.705  0.4094  0.0210  0.0703
  476TIP3    H122843   5.881   1.898   5.781  1.9628  0.8327 -1.0166
  476TIP3    H222844   5.760   1.870   5.693  0.3742  0.5087  1.1893
  477TIP3   OH222845   5.716   3.380   2.368  0.3229 -0.1073  0.3355
  477TIP3    H122846   5.809   3.400   2.378  0.3281  0.8874 -1.3209
  477TIP3    H222847   5.714   3.289   2.338  0.8751  0.3117 -1.0478
  478TIP3   OH222848   2.939   4.442  12.335  0.5249 -0.3313  0.1941
  478TIP3    H122849   2.870   4.503  12.308  1.1794  0.5949  0.5741
  478TIP3    H222850   2.942   4.450  12.430  0.4310 -1.1702  0.2731
  479TIP3   OH222851   1.698   4.387   3.793 -0.4567  0.0116  0.1774
  479TIP3    H122852   1.755   4.452   3.835  0.1036 -0.3710  0.0230
  479TIP3    H222853   1.749   4.306   3.795 -0.6537 -0.1464 -0.7197
  480TIP3   OH222854   3.303   0.987   5.242  0.6220 -0.5046 -0.5068
  480TIP3    H122855   3.342   1.059   5.193 -0.5480  0.7096  0.2708
  480TIP3    H222856   3.317   0.910   5.188  3.2630  0.0062 -0.6746
  481TIP3   OH222857   1.189   1.691   6.869  0.9412  0.0840  0.1329
  481TIP3    H122858   1.156   1.611   6.828  0.5770 -0.9805  2.3703
  481TIP3    H222859   1.282   1.673   6.885  1.4679  1.0856 -1.4634
  482TIP3   OH222860   1.059   4.236   3.005  0.7148  0.0623 -0.6508
  482TIP3    H122861   1.073   4.282   3.088 -1.8211  0.7101 -0.4840
  482TIP3    H222862   1.117   4.281   2.943  1.6402  0.4697  0.4759
  483TIP3   OH222863   0.226   4.084   3.307  0.2466  0.4795  0.4042
  483TIP3    H122864   0.186   4.116   3.226 -0.3387  1.0677  0.9096
  483TIP3    H222865   0.173   4.123   3.377  0.3014 -0.5782  1.0695
  484TIP3   OH222866   0.206   4.358  16.216 -0.4611 -0.2164 -0.6851
  484TIP3    H122867   0.126   4.386  16.260 -0.6510 -1.8486  0.0977
  484TIP3    H222868   0.264   4.433  16.220 -0.7441 -0.0455  1.7303
  485TIP3   OH222869   6.321   6.426   0.506  0.6045 -0.0036 -0.3938
  485TIP3    H122870   6.341   6.346   0.554  0.2847  0.8138  1.1566
  485TIP3    H222871   6.385   6.490   0.537  1.4525  0.1486 -2.2800
  486TIP3   OH222872   5.267   2.751   4.980 -0.3283 -0.2216 -0.0842
  486TIP3    H122873   5.227   2.821   5.033  0.0491  0.0978 -0.2244
  486TIP3    H222874   5.204   2.737   4.909 -1.1675 -1.1089  0.7974
  487TIP3   OH222875   3.795   3.274  11.388  0.4232  0.2103  0.3070
  487TIP3    H122876   3.804   3.367  11.365  3.4727 -0.3904 -1.4823
  487TIP3    H222877   3.755   3.235  11.310 -1.1074 -0.0055  1.1624
  488TIP3   OH222878   4.213   1.596  12.753 -0.3408  0.5106 -0.3544
  488TIP3    H122879   4.127   1.637  12.744 -0.4366  0.7754  1.4617
  488TIP3    H222880   4.274   1.660  12.714 -0.6465  1.7865  1.1764
  489TIP3   OH222881   0.421   5.358  16.304 -0.1455 -0.0363  0.1213
  489TIP3    H122882   0.341   5.341  16.354 -1.8322  0.8102 -2.0789
  489TIP3    H222883   0.479   5.285  16.325 -1.4852 -0.6937  1.7835
  490TIP3   OH222884   1.670   2.895  14.609 -0.3351 -0.5357  0.0514
  490TIP3    H122885   1.653   2.928  14.697 -0.1294  2.2925 -0.8778
  490TIP3    H222886   1.601   2.933  14.555  0.7502 -0.4535 -1.3461
  491TIP3   OH222887   5.966   1.963   3.584  0.0801 -0.1529 -0.4113
  491TIP3    H122888   6.032   1.959   3.653  0.2527 -0.1731 -0.5754
  491TIP3    H222889   6.013   1.937   3.505  0.0932  0.7009 -0.6892
  492TIP3   OH222890   4.367   0.407  12.315  0.5249 -0.1659  0.7178
  492TIP3    H122891   4.290   0.363  12.278  2.8335 -0.2777 -4.9590
  492TIP3    H222892   4.337   0.496  12.332 -1.7709 -1.2260  2.9605
  493TIP3   OH222893   6.581   1.652   6.153  0.2320 -0.1576 -0.1512
  493TIP3    H122894   6.603   1.717   6.220 -1.2225  0.7173 -0.4949
  493TIP3    H222895   6.514   1.597   6.194  2.2977 -2.3113  0.5979
  494TIP3   OH222896   3.106   1.696  15.304 -0.1591 -0.4809  0.0369
  494TIP3    H122897   3.142   1.619  15.260  0.8923  0.9724 -1.8260
  494TIP3    H222898   3.013   1.698  15.278  0.2898 -0.0289 -1.6686
  495TIP3   OH222899   5.105   2.260  12.010  0.3808 -0.0083  0.4938
  495TIP3    H122900   5.114   2.201  11.935  0.4044 -1.0573  1.3019
  495TIP3    H222901   5.194   2.290  12.027  0.1984  1.4414 -0.8017
  496TIP3   OH222902   0.917   4.836   5.543  0.4218  0.1754  0.2269
  496TIP3    H122903   0.962   4.849   5.460  0.8662 -0.1755  0.4133
  496TIP3    H222904   0.843   4.780   5.522 -0.1873  1.0875 -0.1564
  497TIP3   OH222905   3.927   1.926  12.017 -0.8649 -0.1187  0.1280
  497TIP3    H122906   4.022   1.925  12.032 -0.8982 -1.8068  0.4708
  497TIP3    H222907   3.903   1.834  12.014 -2.5138  0.2870  0.0962
  498TIP3   OH222908   0.380   5.442   0.692 -0.2317 -0.1235 -0.0237
  498TIP3    H122909   0.429   5.366   0.722 -4.6251 -2.8529  1.3158
  498TIP3    H222910   0.347   5.416   0.605 -2.5287 -0.3301  0.8261
  499TIP3   OH222911   1.389   0.283   1.139 -0.3517  0.3078  0.1485
  499TIP3    H122912   1.354   0.205   1.097  0.6210 -0.1383  0.1277
  499TIP3    H222913   1.338   0.355   1.103 -2.7209 -0.4604  1.7589
  500TIP3   OH222914   2.215   0.540  12.037 -0.5475  0.2253  0.3098
  500TIP3    H122915   2.298   0.585  12.053 -0.4789  1.0457 -2.0118
  500TIP3    H222916   2.236   0.471  11.974 -1.7608  1.1643 -1.2026
  501TIP3   OH222917   5.484   5.419   0.437 -0.2153  0.3725  0.1330
  501TIP3    H122918   5.539   5.348   0.471  1.0575  0.8270 -0.9085
  501TIP3    H222919   5.460   5.390   0.349 -2.6011 -0.3093  0.9163
  502TIP3   OH222920   2.566   3.208   3.397  0.2512 -0.0997 -0.4634
  502TIP3    H122921   2.536   3.259   3.322 -1.3865  1.2586  1.0279
  502TIP3    H222922   2.604   3.273   3.456  1.7935 -1.1811 -0.1866
  503TIP3   OH222923   2.186   4.347   4.870  0.1842 -0.0453  0.2715
  503TIP3    H122924   2.101   4.319   4.904 -0.8803 -0.0183 -2.1203
  503TIP3    H222925   2.199   4.435   4.905  0.0621 -0.6984  2.0134
  504TIP3   OH222926   2.044   4.908  14.451  0.2235 -0.5460  0.6274
  504TIP3    H122927   2.094   4.974  14.404 -2.7923 -0.4771 -2.9620
  504TIP3    H222928   1.955   4.944  14.457 -0.6614 -2.7090  2.0152
  505TIP3   OH222929   3.541   2.812  15.326  0.2292  0.3396  0.0671
  505TIP3    H122930   3.451   2.840  15.312 -0.4606 -2.2385 -1.2540
  505TIP3    H222931   3.534   2.720  15.352  2.4856 -0.0103 -0.3468
  506TIP3   OH222932   1.467   0.691   0.240 -0.6296  0.2185 -0.2877
  506TIP3    H122933   1.381   0.710   0.276 -0.2177  2.7937 -0.4395
  506TIP3    H222934   1.462   0.719   0.149  0.1161 -0.4183 -0.5404
  507TIP3   OH222935   5.144   0.288   2.038  0.3715  0.4279  0.8856
  507TIP3    H122936   5.060   0.251   2.067  0.9609 -1.1806  0.6624
  507TIP3    H222937   5.120   0.353   1.972 -0.7379  0.7232  1.5411
  508TIP3   OH222938   4.678   1.362  13.909  0.4767 -0.1016 -0.1130
  508TIP3    H122939   4.757   1.407  13.940  0.4846 -0.0455 -0.2122
  508TIP3    H222940   4.605   1.412  13.947  0.3477  2.0982 -2.8310
  509TIP3   OH222941   3.686   5.852  14.403  0.2632 -0.4769  0.0146
  509TIP3    H122942   3.662   5.852  14.496 -0.3525 -1.2409 -0.1411
  509TIP3    H222943   3.681   5.760  14.377  1.6486 -0.4351 -0.4748
  510TIP3   OH222944   0.672   2.936   4.386 -0.4487  0.0783  0.6745
  510TIP3    H122945   0.675   2.908   4.477  0.8698 -1.6277  0.1565
  510TIP3    H222946   0.722   3.017   4.384  1.6762 -1.1492  1.1118
  511TIP3   OH222947   1.752   5.338   2.712  0.0233 -0.0476 -0.2595
  511TIP3    H122948   1.797   5.342   2.797  1.7273  0.5348 -1.1538
  511TIP3    H222949   1.700   5.258   2.716 -2.3768  1.4384  2.4865
  512TIP3   OH222950   3.995   6.307  11.607 -0.6018 -0.3235  0.0995
  512TIP3    H122951   3.936   6.263  11.546 -1.8321  2.7990 -1.1962
  512TIP3    H222952   4.041   6.372  11.554 -0.0490  1.0279  2.0887
  513TIP3   OH222953   3.479   4.629  15.584 -0.5324  0.1528 -0.0274
  513TIP3    H122954   3.533   4.550  15.580 -0.6588  0.0086  0.8424
  513TIP3    H222955   3.394   4.603  15.548 -1.4781 -0.9252  2.6928
  514TIP3   OH222956   4.433   2.555  11.147 -0.7562 -0.1682 -0.2843
  514TIP3    H122957   4.438   2.461  11.134  0.5113 -0.1487 -0.0936
  514TIP3    H222958   4.488   2.592  11.078 -0.6834  0.3832  0.0611
  515TIP3   OH222959   4.331   2.197   2.145 -0.2379  0.5385  0.1343
  515TIP3    H122960   4.273   2.123   2.166  1.2242 -1.1713 -1.4571
  515TIP3    H222961   4.331   2.201   2.049  2.3406  0.3167  0.0423
  516TIP3   OH222962   3.300   4.416   2.872 -0.0873 -0.0140 -0.6547
  516TIP3    H122963   3.268   4.370   2.949 -1.5167 -0.1947 -1.3052
  516TIP3    H222964   3.222   4.425   2.816  0.7401  0.7933 -1.7264
  517TIP3   OH222965   4.078   3.547  11.645 -0.2432  0.8727 -0.0449
  517TIP3    H122966   4.070   3.535  11.550 -0.1111  1.8982 -0.1975
  517TIP3    H222967   4.099   3.460  11.679 -3.0502 -0.1370 -0.6298
  518TIP3   OH222968   5.847   1.295   4.363  0.2957 -0.1595  0.3057
  518TIP3    H122969   5.854   1.334   4.450 -0.9168 -0.8875  0.7508
  518TIP3    H222970   5.804   1.362   4.310  0.2084 -0.0594  0.5022
  519TIP3   OH222971   6.270   4.447  11.264 -0.2022 -0.1634  0.6289
  519TIP3    H122972   6.303   4.437  11.353  0.0109 -2.9551  0.3203
  519TIP3    H222973   6.340   4.414  11.208 -1.3580 -0.9575 -0.3913
  520TIP3   OH222974   2.988   5.901  16.692 -0.3115 -0.1464 -0.7935
  520TIP3    H122975   3.047   5.941  16.756 -2.4433  1.7397  0.1135
  520TIP3    H222976   2.936   5.839  16.742 -0.0955 -0.7260 -1.2842
  521TIP3   OH222977   4.558   4.768   2.420  0.3722 -0.3286  0.3041
  521TIP3    H122978   4.591   4.854   2.446  0.1887 -0.6435  1.6109
  521TIP3    H222979   4.509   4.786   2.339 -0.4547  0.9657  1.0540
  522TIP3   OH222980   5.266   1.917  15.973 -0.1394 -0.2013 -0.3687
  522TIP3    H122981   5.258   1.834  16.020  2.3116 -0.3896 -0.1084
  522TIP3    H222982   5.236   1.983  16.034  0.8356 -0.6554  0.6486
  523TIP3   OH222983   4.760   5.068   5.031 -0.3109 -0.1834  0.1132
  523TIP3    H122984   4.729   5.015   4.957  1.2303  0.9400 -1.4293
  523TIP3    H222985   4.852   5.044   5.040 -1.0355 -2.3935  3.6406
  524TIP3   OH222986   1.302   4.620   3.830  0.4180  0.4290  0.4462
  524TIP3    H122987   1.262   4.655   3.751  0.6350  1.5542  0.8208
  524TIP3    H222988   1.343   4.538   3.802  0.2977  0.6983 -0.5421
  525TIP3   OH222989   0.695   1.625   0.524 -0.2516 -0.5907 -0.2476
  525TIP3    H122990   0.604   1.599   0.534 -0.6582  0.5201 -0.8651
  525TIP3    H222991   0.723   1.652   0.611 -1.3027  1.4146 -0.4587
  526TIP3   OH222992   3.439   3.632   1.281 -0.4691 -0.2228  0.2889
  526TIP3    H122993   3.453   3.720   1.315  1.3343 -0.3841  0.0470
  526TIP3    H222994   3.345   3.628   1.264 -0.4524  2.0064 -0.6807
  527TIP3   OH222995   6.631   0.676   0.195 -0.2464  0.0005  0.0205
  527TIP3    H122996   6.684   0.675   0.275 -1.5793 -0.8483  0.9313
  527TIP3    H222997   6.646   0.763   0.157  1.1676  0.0638  0.6454
  528TIP3   OH222998   6.735   0.851   5.427  0.0163 -0.4148 -0.1834
  528TIP3    H122999   6.763   0.851   5.518 -0.3746  0.8271 -0.0347
  528TIP3    H223000   6.648   0.811   5.429 -0.2710  0.2042  0.1030
  529TIP3   OH223001   1.813   5.000  11.153 -1.0726 -0.0103  0.5607
  529TIP3    H123002   1.892   4.992  11.099 -2.4675  0.0739 -1.6039
  529TIP3    H223003   1.844   5.037  11.235  1.2495 -0.6795  0.0675
  530TIP3   OH223004   1.666   0.019   3.950 -0.0067 -0.0328  0.4571
  530TIP3    H123005   1.624   0.100   3.979  0.2076 -0.7794  3.0846
  530TIP3    H223006   1.621  -0.002   3.868 -2.8125  0.7068  1.6684
  531TIP3   OH223007   2.827   0.538   4.683 -0.2959  0.6491  0.1160
  531TIP3    H123008   2.828   0.615   4.741 -0.4743  1.0096 -0.3507
  531TIP3    H223009   2.911   0.496   4.698  0.9677  2.4140 -1.5624
  532TIP3   OH223010   1.297   3.243  15.564  0.5992  0.1914  0.1519
  532TIP3    H123011   1.376   3.259  15.615  0.0969 -2.0242  1.7733
  532TIP3    H223012   1.318   3.167  15.509  0.0689  0.5255 -0.5379
  533TIP3   OH223013   0.856   1.543  12.458  0.5058  0.1905 -0.5020
  533TIP3    H123014   0.862   1.628  12.415 -1.0709  0.2889 -0.5686
  533TIP3    H223015   0.892   1.481  12.394  0.1986  0.6114 -1.0920
  534TIP3   OH223016   3.606   3.690   1.559  0.2979 -0.2647  0.5439
  534TIP3    H123017   3.680   3.655   1.509 -1.0057 -0.6389 -1.2058
  534TIP3    H223018   3.594   3.779   1.526  0.8568  0.3410  1.8888
  535TIP3   OH223019   5.736   2.576   3.448 -0.1348  0.5249  0.2179
  535TIP3    H123020   5.769   2.662   3.423  1.7918 -0.0933  0.4850
  535TIP3    H223021   5.809   2.534   3.493 -0.2663 -2.0395 -1.7344
  536TIP3   OH223022   5.188   0.813   5.187 -0.6164  0.0343  0.2906
  536TIP3    H123023   5.257   0.870   5.222 -1.0262  0.1088  1.0033
  536TIP3    H223024   5.142   0.780   5.265 -1.5233  0.1621 -0.1728
  537TIP3   OH223025   6.461   5.145   1.348  0.3133  0.2485  0.0386
  537TIP3    H123026   6.514   5.100   1.282 -0.8809  1.6514 -1.9612
  537TIP3    H223027   6.386   5.180   1.300  0.1943  2.7188  1.8070
  538TIP3   OH223028   3.118   0.394   5.975 -0.0273 -0.2521  0.0173
  538TIP3    H123029   3.202   0.436   5.958 -0.0624 -0.2566 -0.1763
  538TIP3    H223030   3.123   0.365   6.066 -0.5715  1.4638  0.6184
  539TIP3   OH223031   3.422   6.678   2.387 -0.5137 -0.0522 -0.4708
  539TIP3    H123032   3.399   6.724   2.306  0.9383 -0.6322 -1.2640
  539TIP3    H223033   3.475   6.604   2.358 -0.5332 -0.6694  0.9801
  540TIP3   OH223034   2.603   3.995   1.481 -0.1887  0.3063  0.4602
  540TIP3    H123035   2.606   3.910   1.439  1.8366  1.2528 -1.5315
  540TIP3    H223036   2.657   3.986   1.559  1.4163  0.1326 -0.6275
  541TIP3   OH223037   4.349   2.126   0.663  0.6137 -0.2130 -0.0157
  541TIP3    H123038   4.345   2.206   0.611 -1.5506  0.3707  0.9225
  541TIP3    H223039   4.282   2.070   0.624  1.5235 -1.2529 -0.1240
  542TIP3   OH223040   2.445   0.905   3.727 -0.1278  0.0971 -0.3872
  542TIP3    H123041   2.454   0.998   3.705  1.4901 -0.0181 -0.3948
  542TIP3    H223042   2.469   0.860   3.646 -2.4901 -0.3781 -0.8991
  543TIP3   OH223043   6.428   6.284   0.939 -0.3782  0.0501  0.0216
  543TIP3    H123044   6.343   6.253   0.969 -1.2759  1.7595 -0.6123
  543TIP3    H223045   6.462   6.214   0.883 -1.0412 -0.9193  0.7962
  544TIP3   OH223046   3.654   1.153  11.029  0.0299  0.6687  0.4123
  544TIP3    H123047   3.564   1.121  11.020  0.0464  0.7733 -0.2393
  544TIP3    H223048   3.677   1.184  10.941  1.2658 -0.8046  0.1704
  545TIP3   OH223049   5.035   6.754   4.456  0.0986 -0.2009  0.0295
  545TIP3    H123050   5.042   6.733   4.363  1.0745  0.6419 -0.1009
  545TIP3    H223051   5.124   6.743   4.490 -0.2775 -0.6619  0.9050
  546TIP3   OH223052   4.330   5.171  15.573 -0.4561 -0.1786  0.9756
  546TIP3    H123053   4.237   5.149  15.569 -0.5512  0.3132 -2.0707
  546TIP3    H223054   4.375   5.091  15.544  0.1688 -0.5816  2.9105
  547TIP3   OH223055   1.530   0.584   0.749 -0.4845  0.0163  0.1040
  547TIP3    H123056   1.513   0.494   0.779 -1.6314  0.9255  2.4867
  547TIP3    H223057   1.619   0.581   0.715  0.6031 -1.4803  2.7555
  548TIP3   OH223058   3.272   4.852   4.853  0.4315 -0.3902  0.2804
  548TIP3    H123059   3.252   4.941   4.884  0.3976  0.1995 -1.3455
  548TIP3    H223060   3.343   4.822   4.910  0.4235  0.6633  0.8716
  549TIP3   OH223061   5.875   5.463  16.408  0.0202  0.2879  0.0225
  549TIP3    H123062   5.837   5.532  16.463 -1.0927 -1.6180  1.7891
  549TIP3    H223063   5.875   5.386  16.464 -0.3822 -1.5814 -2.4060
  550TIP3   OH223064   3.830   4.321  14.101 -0.3402 -0.1500 -0.1122
  550TIP3    H123065   3.891   4.255  14.068 -0.2948 -0.1823  0.0373
  550TIP3    H223066   3.781   4.349  14.023 -0.9450 -0.9678 -0.0380
  551TIP3   OH223067   4.779   2.825   3.828  0.8603  0.2179 -0.2126
  551TIP3    H123068   4.815   2.855   3.744  0.7798  1.6114  0.2273
  551TIP3    H223069   4.684   2.829   3.816  0.8257  2.1845  0.5168
  552TIP3   OH223070   0.877   3.646   4.635  0.2639  0.1048  0.5109
  552TIP3    H123071   0.966   3.635   4.603 -0.3618  0.3653 -1.4467
  552TIP3    H223072   0.875   3.735   4.671  1.0985 -0.3467  1.7275
  553TIP3   OH223073   1.715   5.052   5.201  0.4821 -0.4356 -0.1025
  553TIP3    H123074   1.653   5.076   5.132  1.1522  1.5349 -0.0870
  553TIP3    H223075   1.672   5.079   5.282  1.2860  0.9230 -0.0879
  554TIP3   OH223076   5.161   6.450   4.657 -0.0140 -0.4510  0.4113
  554TIP3    H123077   5.208   6.477   4.578 -0.1378  0.4949  0.6499
  554TIP3    H223078   5.098   6.385   4.626  1.1501 -1.4412  0.0289
  555TIP3   OH223079   5.953   4.540  12.221  0.1633  0.3518 -0.0531
  555TIP3    H123080   6.007   4.612  12.190 -0.2628  0.2086 -1.1822
  555TIP3    H223081   5.929   4.564  12.311 -1.1018  2.3072 -0.8506
  556TIP3   OH223082   4.728   1.706   0.642  0.0349  0.4284 -0.6500
  556TIP3    H123083   4.777   1.703   0.559  0.3462 -1.5870 -0.4534
  556TIP3    H223084   4.655   1.645   0.628 -0.1237  0.3626  0.4343
  557TIP3   OH223085   3.711   4.023  13.000  0.0586 -0.4575  0.1058
  557TIP3    H123086   3.779   4.044  13.065 -1.1568  2.8714  0.4889
  557TIP3    H223087   3.653   3.962  13.046  0.1860  0.4575  1.5682
  558TIP3   OH223088   4.646   2.319  14.064  0.3198 -0.1426  0.4729
  558TIP3    H123089   4.719   2.315  14.126  0.5819  0.7256  0.2347
  558TIP3    H223090   4.588   2.387  14.099  0.3378  0.1655 -0.0850
  559TIP3   OH223091   6.693   1.380   4.523  0.5363  0.0249 -0.1430
  559TIP3    H123092   6.697   1.408   4.615  3.1300 -1.0500  0.1747
  559TIP3    H223093   6.601   1.388   4.499 -0.4202 -0.5567  2.8608
  560TIP3   OH223094   1.557   0.974   2.044  0.2264  0.2004  0.1601
  560TIP3    H123095   1.472   1.018   2.045  0.3214  0.4126 -0.4173
  560TIP3    H223096   1.536   0.881   2.032  0.1095  0.4569 -2.2215
  561TIP3   OH223097   4.324   5.522  11.684  0.2257  0.3993 -0.1102
  561TIP3    H123098   4.368   5.471  11.751 -0.1367 -0.3616 -0.4478
  561TIP3    H223099   4.382   5.517  11.607  0.3753  0.8221 -0.0323
  562TIP3   OH223100   5.782   5.922   1.625 -0.0529 -0.6819  0.1613
  562TIP3    H123101   5.826   6.005   1.645 -0.0404 -0.2666 -1.4093
  562TIP3    H223102   5.701   5.925   1.675  0.2952 -0.0666  0.7129
  563TIP3   OH223103   4.505   0.397  13.224 -0.2033 -0.2885  0.5567
  563TIP3    H123104   4.539   0.430  13.307  1.4081  0.2734 -0.2688
  563TIP3    H223105   4.577   0.411  13.162 -1.4693 -0.3861 -1.0059
  564TIP3   OH223106   0.891   3.244   1.608 -0.1476  0.1208  0.2935
  564TIP3    H123107   0.934   3.301   1.544 -1.8865  1.0941 -0.0878
  564TIP3    H223108   0.941   3.163   1.605  0.0834  0.2659 -2.0541
  565TIP3   OH223109   3.382   0.480   5.011  0.1510 -0.1060 -0.3616
  565TIP3    H123110   3.456   0.428   5.042  0.9869  0.7906 -0.8083
  565TIP3    H223111   3.345   0.429   4.939 -0.5152 -1.1966  0.7104
  566TIP3   OH223112   0.133   1.619   0.723  0.7044  0.3474  0.0646
  566TIP3    H123113   0.095   1.695   0.768  1.0860  0.0264  0.9649
  566TIP3    H223114   0.066   1.591   0.662  0.2804  0.9849  0.2260
  567TIP3   OH223115   5.483   0.426   2.877 -0.6783 -0.5745 -0.0250
  567TIP3    H123116   5.488   0.369   2.801  3.4318 -0.8162  0.2332
  567TIP3    H223117   5.390   0.426   2.900 -1.4331 -4.1349 -2.2406
  568TIP3   OH223118   1.396   1.052  17.119 -0.5095  0.2390 -0.0379
  568TIP3    H123119   1.316   1.030  17.072  0.7828  2.0935 -3.4127
  568TIP3    H223120   1.378   1.137  17.160 -0.8989 -0.3370  1.0312
  569TIP3   OH223121   1.652   5.606   0.361 -0.0387 -0.2064 -0.4423
  569TIP3    H123122   1.590   5.573   0.296 -0.0850 -0.3811 -0.3115
  569TIP3    H223123   1.631   5.557   0.441  0.6292 -0.6713 -0.5384
  570TIP3   OH223124   2.943   0.172  16.089  0.3900  0.3709 -0.0180
  570TIP3    H123125   2.903   0.193  16.173  0.2297 -1.0347  0.2842
  570TIP3    H223126   2.989   0.089  16.104 -0.8074 -0.6713 -1.6351
  571TIP3   OH223127   5.214   2.987   5.510  0.1879 -0.0602 -0.0627
  571TIP3    H123128   5.230   2.979   5.416 -1.1743  2.9895 -0.6848
  571TIP3    H223129   5.120   3.002   5.518  0.1695 -0.9155  1.8836
  572TIP3   OH223130   1.329   0.559   1.311  0.3664  0.4641 -0.0774
  572TIP3    H123131   1.282   0.531   1.233 -4.0259  1.0804  2.0403
  572TIP3    H223132   1.340   0.654   1.299  0.9522  0.3496 -0.4914
  573TIP3   OH223133   1.470   3.550   2.674 -0.3571  0.4406  0.1592
  573TIP3    H123134   1.448   3.621   2.613  0.8436 -0.8825 -1.9506
  573TIP3    H223135   1.564   3.562   2.690 -0.2882 -0.2776  0.3096
  574TIP3   OH223136   2.029   5.858   3.907  0.2577 -0.1985 -0.2480
  574TIP3    H123137   2.030   5.763   3.918  0.5788 -0.1250  0.3832
  574TIP3    H223138   1.987   5.891   3.987  1.0159  0.2465 -0.0256
  575TIP3   OH223139   2.577   3.166  17.195 -0.1040 -0.9053  0.2593
  575TIP3    H123140   2.553   3.239  17.138 -0.2396 -1.0962  0.0702
  575TIP3    H223141   2.636   3.113  17.142 -0.1699 -1.0435  0.3252
  576TIP3   OH223142   5.686   3.897  15.928  0.3295  0.0387  0.0966
  576TIP3    H123143   5.628   3.903  16.004 -0.3355  0.5566 -0.4406
  576TIP3    H223144   5.773   3.921  15.962 -0.2754  2.1090  0.3238
  577TIP3   OH223145   0.886   1.264  16.317 -0.6389  0.2022  0.1100
  577TIP3    H123146   0.798   1.282  16.350 -0.7464  3.7159 -1.6475
  577TIP3    H223147   0.944   1.310  16.377 -0.1236 -0.4077  0.0972
  578TIP3   OH223148   2.530   4.006   2.505  0.2606  0.1411 -0.1497
  578TIP3    H123149   2.601   3.988   2.443 -0.9137  1.4204 -1.9431
  578TIP3    H223150   2.482   3.923   2.511  1.0545 -0.3232 -0.0053
  579TIP3   OH223151   4.508   0.549   5.743  0.0030 -0.2773  0.1337
  579TIP3    H123152   4.452   0.505   5.807  0.4379  0.3800  0.9758
  579TIP3    H223153   4.551   0.619   5.792  0.6618 -0.0235 -0.7802
  580TIP3   OH223154   5.162   0.672  17.160  0.0141  0.2308  0.1406
  580TIP3    H123155   5.166   0.647  17.067 -2.8221 -2.9794  0.6754
  580TIP3    H223156   5.100   0.745  17.162 -0.5478 -0.2127 -0.4560
  581TIP3   OH223157   4.129   1.331   6.240 -0.4400  0.2708 -0.0682
  581TIP3    H123158   4.108   1.408   6.292  0.4010  0.1183  0.5069
  581TIP3    H223159   4.163   1.268   6.303  0.2199 -0.0585 -0.7452
  582TIP3   OH223160   0.098   5.532  11.733  0.5033  0.4105 -0.1939
  582TIP3    H123161   0.144   5.616  11.739  2.0904 -0.5378  1.9836
  582TIP3    H223162   0.147   5.473  11.790 -2.0990 -1.3115  0.4346
  583TIP3   OH223163   1.427   1.719  13.921 -0.0104  0.2078 -0.0110
  583TIP3    H123164   1.502   1.708  13.981  1.0381 -0.8673 -1.4660
  583TIP3    H223165   1.350   1.712  13.978  0.9496  0.8668  1.4573
  584TIP3   OH223166   6.103   5.546   4.356  0.6629 -0.1079  0.2401
  584TIP3    H123167   6.015   5.559   4.319  0.3648  1.1258  1.2926
  584TIP3    H223168   6.142   5.633   4.355  2.1932 -0.7744 -0.9247
  585TIP3   OH223169   5.189   3.215  14.483 -1.1335  0.1944 -0.1380
  585TIP3    H123170   5.123   3.182  14.422 -0.6935 -0.1014 -0.4577
  585TIP3    H223171   5.173   3.167  14.564 -1.2271  0.0251 -0.2555
  586TIP3   OH223172   2.310   0.187  16.318  0.4640  0.4823  0.2885
  586TIP3    H123173   2.254   0.232  16.256 -0.5420 -0.5918  0.3793
  586TIP3    H223174   2.398   0.194  16.281 -0.2891 -1.3600 -2.0460
  587TIP3   OH223175   0.720   6.655  12.852 -0.3000  0.0471  0.1692
  587TIP3    H123176   0.763   6.717  12.911  0.3072  0.7087 -0.9357
  587TIP3    H223177   0.791   6.614  12.803 -0.5408 -2.7897  1.9817
  588TIP3   OH223178   3.554   2.432  13.289  0.0650  0.0081 -0.1640
  588TIP3    H123179   3.635   2.435  13.340  1.1304 -2.6075 -1.4735
  588TIP3    H223180   3.492   2.485  13.338  1.6732 -0.4642  2.5823
  589TIP3   OH223181   5.493   0.262   1.253 -0.1392 -0.0876  0.2406
  589TIP3    H123182   5.537   0.203   1.192 -1.0539 -0.1225 -0.3955
  589TIP3    H223183   5.493   0.215   1.337  0.2717 -0.4389  0.0478
  590TIP3   OH223184   3.123   3.521  14.205 -0.3158 -0.9107 -0.6937
  590TIP3    H123185   3.079   3.446  14.244  0.1447 -1.2176 -0.7578
  590TIP3    H223186   3.060   3.556  14.142  0.4413 -2.8527 -2.6423
  591TIP3   OH223187   4.594   2.736   2.205 -0.3605 -0.4985 -0.0445
  591TIP3    H123188   4.586   2.771   2.294  2.4138  0.4048 -0.0359
  591TIP3    H223189   4.507   2.747   2.167 -0.7150  2.6604  1.3444
  592TIP3   OH223190   0.353   4.979   4.902  0.4030 -0.2125 -0.4490
  592TIP3    H123191   0.283   4.914   4.898  0.0590  0.1474 -0.3289
  592TIP3    H223192   0.308   5.063   4.910  0.8432  0.0509 -0.6847
  593TIP3   OH223193   0.246   1.869  16.052 -0.3553  0.1997  0.3033
  593TIP3    H123194   0.224   1.948  16.004  0.2401 -0.4444 -1.0794
  593TIP3    H223195   0.162   1.828  16.072 -0.5901 -0.2663 -1.5068
  594TIP3   OH223196   5.448   3.032   3.073 -0.5470  0.4295  0.1684
  594TIP3    H123197   5.509   3.105   3.060  0.0570  0.1088  1.0487
  594TIP3    H223198   5.362   3.072   3.064 -0.2179  1.0381 -0.4161
  595TIP3   OH223199   3.555   5.800  13.158 -0.4539  0.1918 -0.6702
  595TIP3    H123200   3.545   5.884  13.202 -0.4178  0.5429 -1.3147
  595TIP3    H223201   3.613   5.749  13.216  0.6388  1.1013 -0.9247
  596TIP3   OH223202   3.887   6.687   0.676 -0.2345  0.1898  0.3399
  596TIP3    H123203   3.883   6.758   0.611 -0.2802  0.9285  1.1364
  596TIP3    H223204   3.980   6.672   0.689 -0.2247  0.0670  0.1384
  597TIP3   OH223205   0.434   1.672  15.624 -0.6867  0.0633 -0.3483
  597TIP3    H123206   0.434   1.604  15.691 -0.6044  0.2957 -0.1129
  597TIP3    H223207   0.448   1.754  15.672 -3.4947  0.5999 -0.2672
  598TIP3   OH223208   1.885   0.030  12.341 -0.0929 -0.0279  0.1823
  598TIP3    H123209   1.967   0.029  12.391 -0.0728 -0.3637  0.1464
  598TIP3    H223210   1.891  -0.047  12.284 -0.1289  0.3319 -0.3147
  599TIP3   OH223211   3.812   3.588   4.141  0.3210 -0.1051  0.2621
  599TIP3    H123212   3.875   3.600   4.070  1.3876 -0.2488  1.1605
  599TIP3    H223213   3.772   3.674   4.152  0.8789  0.1744  0.1453
  600TIP3   OH223214   0.338   3.494  10.198 -0.5994  0.0153  0.0360
  600TIP3    H123215   0.407   3.489  10.132 -1.2723 -1.5414 -0.6098
  600TIP3    H223216   0.374   3.446  10.273 -1.4779 -2.1249 -0.8354
  601TIP3   OH223217   2.252   0.845  14.031  0.1358 -0.0440 -0.3921
  601TIP3    H123218   2.314   0.886  13.971  0.5126  0.6094  0.4324
  601TIP3    H223219   2.306   0.812  14.103 -0.4071 -0.0091  0.0393
  602TIP3   OH223220   3.777   3.087  15.355 -0.3726 -0.2116  0.3742
  602TIP3    H123221   3.701   3.099  15.298 -0.8670 -0.3267  1.0030
  602TIP3    H223222   3.813   3.176  15.365  0.3727 -0.3291 -0.9801
  603TIP3   OH223223   4.182   5.056   5.200  0.4919  0.0559 -0.3968
  603TIP3    H123224   4.202   4.969   5.235 -0.9409  0.6412  2.1437
  603TIP3    H223225   4.087   5.055   5.187  0.6304  0.8359 -1.6675
  604TIP3   OH223226   0.968   0.108   5.809  0.1887 -0.1171 -0.0473
  604TIP3    H123227   0.984   0.142   5.721  0.0014 -0.6198 -0.2835
  604TIP3    H223228   0.893   0.158   5.841  1.1937  1.1220  0.4302
  605TIP3   OH223229   3.190   1.737   3.258 -0.4302  0.2821  0.2733
  605TIP3    H123230   3.247   1.687   3.201 -1.4797 -0.1830 -0.4114
  605TIP3    H223231   3.130   1.782   3.199 -1.7459 -0.4594  0.9750
  606TIP3   OH223232   0.960   3.355  11.601  0.7498 -0.3542  0.0752
  606TIP3    H123233   0.998   3.398  11.678  2.4067  0.6493 -1.2111
  606TIP3    H223234   0.966   3.421  11.532 -1.7165 -0.8347 -0.6882
  607TIP3   OH223235   3.746   2.589   3.938  0.1254 -0.5694  0.1235
  607TIP3    H123236   3.736   2.593   3.843 -1.2712  1.1186  0.3021
  607TIP3    H223237   3.840   2.593   3.952  0.3289 -0.2510 -1.1724
  608TIP3   OH223238   2.067   5.941   4.437  0.2608 -0.0768  0.9668
  608TIP3    H123239   2.014   6.012   4.472  0.0209 -0.1966  0.8556
  608TIP3    H223240   2.131   5.983   4.380 -1.6957 -0.0914 -1.4770
  609TIP3   OH223241   3.761   0.269   3.610 -0.2255 -0.4708  0.1098
  609TIP3    H123242   3.846   0.281   3.651 -0.2364  2.2594 -0.4969
  609TIP3    H223243   3.698   0.282   3.681 -0.1806 -0.0983  0.0799
  610TIP3   OH223244   2.476   2.665   0.265  0.5469  0.3523 -0.2279
  610TIP3    H123245   2.427   2.681   0.184 -1.5663 -2.8387  0.2670
  610TIP3    H223246   2.428   2.713   0.332  0.2920  0.2369 -0.3269
  611TIP3   OH223247   4.336   1.558  14.781 -0.2837 -0.1979 -0.3617
  611TIP3    H123248   4.312   1.466  14.766  0.8698 -0.6931  0.7321
  611TIP3    H223249   4.428   1.556  14.806 -0.5536  1.1362  0.8848
  612TIP3   OH223250   4.582   1.626  15.488  0.0453 -0.1494  0.2720
  612TIP3    H123251   4.546   1.578  15.563  1.9282 -0.1319  1.2445
  612TIP3    H223252   4.631   1.560  15.439  0.2124  0.1981 -0.0342
  613TIP3   OH223253   1.624   3.145  13.671  0.1898  0.5206 -0.2842
  613TIP3    H123254   1.559   3.179  13.609  0.8421  0.3244 -1.0890
  613TIP3    H223255   1.576   3.080  13.722 -0.6981  1.6087  0.3172
  614TIP3   OH223256   3.187   1.161   5.035 -0.3938  0.2535 -0.0772
  614TIP3    H123257   3.174   1.219   5.110 -0.0779  1.4051 -0.8913
  614TIP3    H223258   3.127   1.088   5.051  0.4741 -0.1055  1.8558
  615TIP3   OH223259   3.426   3.336   0.419 -0.3400  0.0116  0.6990
  615TIP3    H123260   3.492   3.386   0.467 -1.7830  2.2869  0.4913
  615TIP3    H223261   3.358   3.316   0.484 -0.0508 -1.2417  0.6464
  616TIP3   OH223262   3.367   3.062  13.702 -0.6050  0.1434 -0.1730
  616TIP3    H123263   3.338   2.971  13.701  0.8895 -0.3658 -0.4992
  616TIP3    H223264   3.413   3.073  13.618  3.2383 -0.2326  1.6785
  617TIP3   OH223265   3.327   3.338  10.747  0.0157 -0.2430  0.1616
  617TIP3    H123266   3.389   3.390  10.798 -0.4824  0.8685 -0.3408
  617TIP3    H223267   3.360   3.248  10.754  1.9477  0.3715 -0.4884
  618TIP3   OH223268   6.424   2.188   5.234  0.4134 -0.1930  0.7050
  618TIP3    H123269   6.370   2.244   5.179 -0.5613 -1.0866  0.7315
  618TIP3    H223270   6.454   2.245   5.305  0.3371  0.5564  0.1463
  619TIP3   OH223271   6.488   4.861   5.308 -0.5898  0.0642 -0.2568
  619TIP3    H123272   6.462   4.894   5.394 -0.6409  0.0351 -0.2603
  619TIP3    H223273   6.484   4.765   5.317  1.2912  0.0058  0.2819
  620TIP3   OH223274   4.874   2.180  17.023 -0.7840  0.2159  0.0349
  620TIP3    H123275   4.862   2.116  16.953 -0.8395 -1.9247  1.8819
  620TIP3    H223276   4.807   2.158  17.088 -0.3192  1.7014  1.0766
  621TIP3   OH223277   4.993   0.624  16.498  0.1244  0.0349  0.3099
  621TIP3    H123278   5.001   0.572  16.578 -0.3526 -1.3620 -0.5183
  621TIP3    H223279   5.083   0.633  16.466  0.2252 -0.1642  0.5348
  622TIP3   OH223280   0.696   3.278   3.270  0.1979 -0.1816  0.3362
  622TIP3    H123281   0.707   3.316   3.182  1.2440 -1.4596 -0.1125
  622TIP3    H223282   0.782   3.285   3.310  0.1690 -1.2161  0.5960
  623TIP3   OH223283   4.855   2.522   3.778  0.6043  0.0127  0.0576
  623TIP3    H123284   4.807   2.519   3.696 -0.0210 -1.8671  0.4423
  623TIP3    H223285   4.845   2.612   3.809  0.0431  0.4871 -1.4343
  624TIP3   OH223286   3.027   1.238   5.537 -0.6037  0.2995  0.9608
  624TIP3    H123287   3.017   1.210   5.628  2.2787 -1.8724  0.7554
  624TIP3    H223288   2.994   1.165   5.485  0.3177  0.3167  0.3188
  625TIP3   OH223289   2.831   1.488   0.752 -0.1539  0.2687  0.0693
  625TIP3    H123290   2.878   1.467   0.834 -0.7332 -0.8422  0.1407
  625TIP3    H223291   2.741   1.459   0.768  0.1799 -2.0815 -1.7004
  626TIP3   OH223292   2.921   4.236  15.964  0.0140  1.1942 -0.3353
  626TIP3    H123293   3.002   4.196  15.930  0.4285 -0.8121  2.6203
  626TIP3    H223294   2.852   4.202  15.908  0.8692 -0.1367 -0.6268
  627TIP3   OH223295   5.503   4.793   0.706  0.4307  0.3029 -0.4191
  627TIP3    H123296   5.569   4.745   0.755  0.1588 -0.4559 -0.7796
  627TIP3    H223297   5.551   4.864   0.663  0.9880 -0.1480 -0.5543
  628TIP3   OH223298   1.086   4.747  12.942  0.2801 -0.3995  0.0707
  628TIP3    H123299   1.108   4.812  13.009  0.3073  0.1480 -0.4687
  628TIP3    H223300   0.991   4.747  12.938  0.2893  1.3087 -1.5541
  629TIP3   OH223301   3.109   5.155   0.734 -0.2582 -0.6888  0.2799
  629TIP3    H123302   3.182   5.167   0.673 -1.1744 -0.0305 -0.7204
  629TIP3    H223303   3.103   5.239   0.780  0.8215 -1.3828  1.7650
  630TIP3   OH223304   1.700   5.543   0.902 -0.1660  0.2443 -0.1324
  630TIP3    H123305   1.705   5.499   0.987  1.5090  0.0344 -0.3042
  630TIP3    H223306   1.631   5.496   0.855  0.9834 -1.6792  0.0101
  631TIP3   OH223307   2.808   5.844  11.352 -0.0703 -0.8160 -0.4078
  631TIP3    H123308   2.821   5.876  11.263  0.3885 -0.0932 -0.0889
  631TIP3    H223309   2.742   5.776  11.343  0.6609 -1.4273 -1.4357
  632TIP3   OH223310   4.910   2.834  15.849  0.0320 -0.4087  0.4669
  632TIP3    H123311   4.873   2.867  15.931  1.1864  0.6328  0.6021
  632TIP3    H223312   4.837   2.836  15.787 -0.2773  1.1437  0.8448
  633TIP3   OH223313   2.568   3.116  15.536 -0.5523  0.9564  1.1979
  633TIP3    H123314   2.649   3.149  15.574 -1.0572  1.6377  1.7401
  633TIP3    H223315   2.588   3.102  15.444  0.6061 -0.3940  1.6217
  634TIP3   OH223316   0.062   0.308   5.069  0.0356  0.0868  0.0591
  634TIP3    H123317   0.065   0.229   5.123 -1.5322  0.9856  1.5784
  634TIP3    H223318   0.005   0.284   4.995 -0.1339 -0.3192  0.3136
  635TIP3   OH223319   5.634   3.127  14.401 -0.3982 -0.0604 -0.4596
  635TIP3    H123320   5.621   3.108  14.494  0.8122  2.6116  0.3393
  635TIP3    H223321   5.549   3.160  14.372 -1.0544 -1.7495 -0.6149
  636TIP3   OH223322   6.194   4.768  12.287  0.6351 -0.1688  0.2128
  636TIP3    H123323   6.160   4.841  12.338 -0.1832 -0.9288  0.8060
  636TIP3    H223324   6.206   4.698  12.352  2.3706 -0.2508 -0.1662
  637TIP3   OH223325   5.354   0.044  12.383 -0.4926  0.5547 -0.2288
  637TIP3    H123326   5.433   0.022  12.335  0.1125  2.2534 -0.0685
  637TIP3    H223327   5.345   0.139  12.374 -1.4877  0.6503  1.3041
  638TIP3   OH223328   3.686   4.757   4.259  0.4484  0.3259  0.0893
  638TIP3    H123329   3.591   4.766   4.260  0.4475  0.3213  1.2193
  638TIP3    H223330   3.703   4.675   4.304  1.0563  1.2702  1.6661
  639TIP3   OH223331   2.931   6.047  14.534 -0.1079 -0.1514 -0.5017
  639TIP3    H123332   2.982   6.113  14.581 -1.4246  0.5796 -0.0581
  639TIP3    H223333   2.978   5.965  14.549  1.0691  0.5289 -0.3221
  640TIP3   OH223334   2.784   0.295   5.307  0.8377 -0.1457 -0.5282
  640TIP3    H123335   2.735   0.249   5.239  2.0014  0.7463 -2.0368
  640TIP3    H223336   2.876   0.275   5.287  1.2268  0.5561  0.4889
  641TIP3   OH223337   1.715   4.523  15.180  0.1114  0.1694  0.3697
  641TIP3    H123338   1.799   4.567  15.179  0.2425 -0.0151  1.4404
  641TIP3    H223339   1.719   4.465  15.257 -1.9130  2.0214  2.0049
  642TIP3   OH223340   6.221   1.679  13.343  0.0044  0.1549  0.1903
  642TIP3    H123341   6.222   1.774  13.334  1.1471  0.0318 -1.3814
  642TIP3    H223342   6.129   1.655  13.343 -0.3357  0.9609 -3.5924
  643TIP3   OH223343   2.974   2.193   5.548  1.0812  0.3850 -0.1208
  643TIP3    H123344   2.954   2.100   5.549 -0.6465  0.6982 -1.1863
  643TIP3    H223345   3.041   2.204   5.616 -0.3591 -1.2404  1.6724
  644TIP3   OH223346   5.578   3.503   1.679  0.6368 -0.4030  0.6881
  644TIP3    H123347   5.586   3.598   1.683 -0.5374 -0.2947  0.7968
  644TIP3    H223348   5.548   3.478   1.766 -3.3223 -0.3787 -0.4735
  645TIP3   OH223349   5.714   2.628  12.619 -0.0348 -0.0615  0.6625
  645TIP3    H123350   5.621   2.609  12.625  0.3809 -2.1732  1.2496
  645TIP3    H223351   5.738   2.661  12.706  0.0500 -1.1492  1.0759
  646TIP3   OH223352   4.400   1.471  15.129  0.3703  0.6331  0.1368
  646TIP3    H123353   4.368   1.459  15.219 -1.1584 -1.1361 -0.5550
  646TIP3    H223354   4.388   1.564  15.111 -0.0567  0.8662  1.5018
  647TIP3   OH223355   3.571   0.800   3.659 -0.0318  0.2351  0.1013
  647TIP3    H123356   3.658   0.779   3.693  0.5498  0.4278 -1.2146
  647TIP3    H223357   3.520   0.721   3.676  0.8482 -0.4914 -0.5494
  648TIP3   OH223358   1.901   4.277   4.964  0.1880  0.6550 -0.1426
  648TIP3    H123359   1.940   4.190   4.960 -0.8745  0.1315  0.5885
  648TIP3    H223360   1.860   4.289   4.878 -0.2424  0.1584 -0.0089
  649TIP3   OH223361   0.426   5.670  16.074 -0.0556 -0.0895 -0.1522
  649TIP3    H123362   0.352   5.729  16.085 -0.3865 -0.8425  2.1245
  649TIP3    H223363   0.387   5.584  16.059  0.2257 -0.7604  2.4812
  650TIP3   OH223364   6.726   2.430  12.671 -0.1095  0.5227 -0.4632
  650TIP3    H123365   6.647   2.382  12.696 -0.6203  0.4607 -2.1247
  650TIP3    H223366   6.709   2.461  12.582  1.5789  0.8595 -0.7050
  651TIP3   OH223367   6.638   6.081  10.492  0.0482  0.3894  0.2962
  651TIP3    H123368   6.632   6.026  10.570  1.3841 -1.8176 -1.0613
  651TIP3    H223369   6.689   6.157  10.520 -1.6913  0.9614  2.1849
  652TIP3   OH223370   1.346   3.959  15.328  0.3343  0.6330  0.3487
  652TIP3    H123371   1.326   3.870  15.302 -2.7051  0.9957  1.1626
  652TIP3    H223372   1.309   3.969  15.415  2.3266  2.1572  1.1116
  653TIP3   OH223373   3.929   2.688   6.683 -0.2116  0.4135 -0.0844
  653TIP3    H123374   3.990   2.640   6.627 -1.0415 -0.6575 -0.0960
  653TIP3    H223375   3.941   2.780   6.658  0.2989  0.0714 -1.1565
  654TIP3   OH223376   2.158   2.409  15.761  0.5631  0.5407  0.2366
  654TIP3    H123377   2.064   2.399  15.777  0.7139 -0.9064  0.3685
  654TIP3    H223378   2.195   2.428  15.847  0.6039 -0.8597  0.5569
  655TIP3   OH223379   5.214   4.694  11.324 -0.2849  0.2056  0.2416
  655TIP3    H123380   5.179   4.766  11.272 -2.1119 -1.2620 -0.7007
  655TIP3    H223381   5.241   4.629  11.258  0.9048 -0.1659  1.0692
  656TIP3   OH223382   2.118   1.558  13.936 -0.0930 -0.1073 -0.1765
  656TIP3    H123383   2.155   1.480  13.894 -0.1216 -1.1476  1.6451
  656TIP3    H223384   2.186   1.625  13.924  1.5717 -1.4165  1.2943
  657TIP3   OH223385   3.163   1.231  13.941 -0.2257  0.3395 -0.4332
  657TIP3    H123386   3.218   1.272  13.874  0.6664 -1.9607 -1.2353
  657TIP3    H223387   3.225   1.186  13.998 -1.0937  0.8166  0.9102
  658TIP3   OH223388   4.777   0.803   1.453  0.6193  0.1881 -0.7873
  658TIP3    H123389   4.860   0.788   1.408  0.3888  0.0719 -1.1828
  658TIP3    H223390   4.712   0.805   1.383  0.2521  0.0055 -0.4585
  659TIP3   OH223391   2.432   2.307  13.967 -0.4847  0.2137 -0.5723
  659TIP3    H123392   2.437   2.295  13.872 -0.2286  0.9364 -0.6579
  659TIP3    H223393   2.514   2.269  14.000 -0.7220 -0.3343 -0.6028
  660TIP3   OH223394   1.969   6.647   2.611  0.5267  0.1156  0.0950
  660TIP3    H123395   2.000   6.580   2.551 -0.2634 -0.2776  0.1069
  660TIP3    H223396   1.956   6.724   2.556  0.9384  0.1046 -0.0178
  661TIP3   OH223397   5.849   1.917   0.749 -0.5944 -0.4769 -0.4242
  661TIP3    H123398   5.890   1.833   0.726  2.1565  0.1989  1.5141
  661TIP3    H223399   5.849   1.918   0.844 -2.6390  0.8734 -0.3669
  662TIP3   OH223400   2.263   5.433  15.520 -0.3932 -0.2335 -0.2224
  662TIP3    H123401   2.219   5.486  15.454 -1.7404  2.1618  2.3630
  662TIP3    H223402   2.351   5.470  15.526 -0.1049 -0.7819 -0.9802
  663TIP3   OH223403   1.501   2.490   4.599 -0.5468  0.4714  0.0815
  663TIP3    H123404   1.537   2.402   4.606 -1.9727 -0.4113 -2.4901
  663TIP3    H223405   1.536   2.536   4.675  2.9185 -1.3202 -0.2498
  664TIP3   OH223406   3.246   0.589  17.164  0.2932 -0.1682  0.1085
  664TIP3    H123407   3.321   0.570  17.108  0.2068 -1.1335  0.2942
  664TIP3    H223408   3.245   0.684  17.172  0.5368 -0.0433 -1.1960
  665TIP3   OH223409   1.939   3.484  17.244 -0.1717  0.2760  0.2673
  665TIP3    H123410   1.991   3.446  17.315  0.3742 -1.0835 -0.8041
  665TIP3    H223411   1.979   3.569  17.227  0.4060  0.1248  0.8236
  666TIP3   OH223412   5.057   1.951  15.381  0.4044 -0.1525  0.1527
  666TIP3    H123413   5.004   1.872  15.381  1.9712 -1.2859 -1.2545
  666TIP3    H223414   4.995   2.022  15.363 -0.5462 -1.5424 -2.5973
  667TIP3   OH223415   3.127   3.710  13.770 -0.3463  0.0524 -0.4856
  667TIP3    H123416   3.190   3.712  13.842  0.4457 -0.7556 -1.1268
  667TIP3    H223417   3.045   3.683  13.810 -0.9257  3.2027  0.7859
  668TIP3   OH223418   4.520   6.488   0.606 -0.0243 -0.0307  0.0323
  668TIP3    H123419   4.466   6.524   0.536  1.0155 -1.0667 -1.3621
  668TIP3    H223420   4.538   6.563   0.663 -1.4055  0.6996 -0.4538
  669TIP3   OH223421   5.956   2.112  12.785  0.0137 -0.3243  0.7206
  669TIP3    H123422   5.881   2.143  12.836 -0.0960 -0.2820  0.5326
  669TIP3    H223423   6.026   2.103  12.850  0.3432  1.2686  0.6229
  670TIP3   OH223424   2.045   2.522  14.665  0.0012 -0.1472 -0.1079
  670TIP3    H123425   1.985   2.469  14.718 -1.2500  1.8699  0.5982
  670TIP3    H223426   1.987   2.572  14.607  1.1852  0.0807 -1.1367
  671TIP3   OH223427   0.508   3.457  15.321 -0.1465 -0.0265  0.3876
  671TIP3    H123428   0.477   3.545  15.343 -0.0719  0.2419 -0.5223
  671TIP3    H223429   0.428   3.409  15.297 -0.3298 -0.5576  1.9425
  672TIP3   OH223430   2.376   4.285   0.803  0.1488 -0.5108  0.0559
  672TIP3    H123431   2.317   4.294   0.728 -1.4023 -2.3651  0.9733
  672TIP3    H223432   2.377   4.191   0.822  1.6726 -0.2561  1.4608
  673TIP3   OH223433   5.729   3.251   1.534  0.3228 -0.5501 -0.1365
  673TIP3    H123434   5.696   3.321   1.589 -0.6638  0.0274 -1.4054
  673TIP3    H223435   5.802   3.213   1.583  1.8149  2.2735 -0.0041
  674TIP3   OH223436   3.392   1.853  11.388  0.0159 -0.2789  0.4151
  674TIP3    H123437   3.342   1.934  11.389 -1.2144 -1.0213  0.6923
  674TIP3    H223438   3.372   1.813  11.303  2.7536  0.9419 -0.9524
  675TIP3   OH223439   2.793   4.560  14.158  0.6388  0.7960  0.2846
  675TIP3    H123440   2.773   4.653  14.158  1.9132  1.0932  1.1395
  675TIP3    H223441   2.774   4.531  14.069 -0.0673  1.7924  0.0981
  676TIP3   OH223442   0.347   3.702   6.854  0.4315 -1.0734  0.1762
  676TIP3    H123443   0.441   3.713   6.867  0.1669  0.7226  0.7497
  676TIP3    H223444   0.307   3.730   6.936 -0.5609 -3.4002  0.5632
  677TIP3   OH223445   1.416   2.988   0.644  0.3342  0.3153  0.3009
  677TIP3    H123446   1.398   2.970   0.736 -2.0083  0.0977 -0.1348
  677TIP3    H223447   1.371   3.071   0.627  1.6513  0.9071 -0.4085
  678TIP3   OH223448   3.407   5.610  10.937  0.1564  0.2215 -0.5957
  678TIP3    H123449   3.476   5.550  10.964 -0.8218 -0.1218  1.3533
  678TIP3    H223450   3.350   5.558  10.880 -1.2023 -1.1173  1.8171
  679TIP3   OH223451   2.861   6.283  10.774  0.0631  0.5192  0.4474
  679TIP3    H123452   2.862   6.366  10.727  0.9406  0.6366  0.6480
  679TIP3    H223453   2.853   6.216  10.706  0.4034  0.7268  0.2045
  680TIP3   OH223454   6.255   2.864   1.721 -0.4259 -0.6067 -0.1567
  680TIP3    H123455   6.261   2.852   1.816 -0.3143  0.7308  0.0274
  680TIP3    H223456   6.326   2.926   1.701 -2.6662  2.0247 -0.5245
  681TIP3   OH223457   6.762   1.320  16.089  0.4001 -1.0254 -0.6048
  681TIP3    H123458   6.685   1.342  16.142  0.6339  1.6034 -1.2026
  681TIP3    H223459   6.836   1.331  16.149  0.4085 -3.2690 -0.1118
  682TIP3   OH223460   5.051   5.281   3.586 -0.1671  0.0628 -0.0832
  682TIP3    H123461   4.960   5.254   3.584  0.4310 -2.0185 -0.8558
  682TIP3    H223462   5.072   5.286   3.680 -0.9194  0.1062  0.0920
  683TIP3   OH223463   2.553   3.695   1.610 -0.3927  0.1370 -0.4791
  683TIP3    H123464   2.623   3.643   1.649 -1.0767 -0.6461 -0.2572
  683TIP3    H223465   2.516   3.745   1.683 -2.0654 -1.7774  0.0676
  684TIP3   OH223466   0.972   5.518  12.603  0.2353 -0.3121 -0.9793
  684TIP3    H123467   0.945   5.552  12.688  1.5224  0.6150 -0.9158
  684TIP3    H223468   1.025   5.588  12.565  1.8700 -1.7443 -1.4212
  685TIP3   OH223469   3.733   5.361  12.534  0.0809  0.1811  1.2569
  685TIP3    H123470   3.759   5.448  12.562  4.7489 -1.1305  1.9932
  685TIP3    H223471   3.702   5.318  12.613  0.2965  0.4190  1.4718
  686TIP3   OH223472   4.599   0.747  16.798  0.1923 -0.3751  0.0705
  686TIP3    H123473   4.650   0.716  16.723  0.5602  1.9343 -0.7346
  686TIP3    H223474   4.519   0.695  16.798  0.4044 -0.7312 -1.6620
  687TIP3   OH223475   3.718   0.485   4.882 -0.3158 -0.0499 -0.0883
  687TIP3    H123476   3.784   0.550   4.905  0.8273 -0.8924 -0.8661
  687TIP3    H223477   3.721   0.420   4.953 -0.0473 -0.2794 -0.3098
  688TIP3   OH223478   4.597   5.891   2.787  0.6202 -0.2802  0.6295
  688TIP3    H123479   4.682   5.898   2.744  0.5732 -0.2732  0.5380
  688TIP3    H223480   4.534   5.917   2.720  0.5838  0.2254  0.8563
  689TIP3   OH223481   0.520   3.107  14.323 -0.3233 -0.3794  0.3812
  689TIP3    H123482   0.490   3.088  14.234  0.5228 -0.6726  0.1414
  689TIP3    H223483   0.489   3.033  14.375 -0.1606 -0.5997  0.1683
  690TIP3   OH223484   3.620   3.331   5.764 -0.4938 -0.0102  0.2155
  690TIP3    H123485   3.606   3.410   5.815  0.3108 -1.4206  2.7675
  690TIP3    H223486   3.540   3.280   5.778  0.3985 -1.1172  1.5125
  691TIP3   OH223487   2.524   1.736   2.446  0.7220  0.4304 -0.3311
  691TIP3    H123488   2.466   1.734   2.370  0.7048  0.8477 -0.3298
  691TIP3    H223489   2.612   1.727   2.410  0.6461 -0.5868 -0.3062
  692TIP3   OH223490   1.783   1.742   3.268 -0.2518 -0.2137  0.4055
  692TIP3    H123491   1.709   1.797   3.294 -1.0248 -1.9527  2.1775
  692TIP3    H223492   1.746   1.654   3.260  1.0502 -0.6474 -1.7406
  693TIP3   OH223493   2.602   2.691  12.451  0.2079 -0.6898 -0.6864
  693TIP3    H123494   2.668   2.700  12.520 -1.9748 -1.6891  1.6602
  693TIP3    H223495   2.540   2.762  12.468 -0.2747 -0.8427 -1.7502
  694TIP3   OH223496   5.719   0.699   5.328 -0.1699  0.1583 -0.2915
  694TIP3    H123497   5.755   0.765   5.268 -0.6264  0.3351 -0.3785
  694TIP3    H223498   5.657   0.649   5.274  1.0200 -1.1010 -0.5308
  695TIP3   OH223499   2.430   3.220   0.901 -0.0637  0.1382 -0.6737
  695TIP3    H123500   2.483   3.213   0.821  0.3619  0.2052 -0.3991
  695TIP3    H223501   2.340   3.214   0.870  0.1210 -0.9465 -1.0511
  696TIP3   OH223502   2.469   2.867   1.223 -0.3739 -0.1653  0.0253
  696TIP3    H123503   2.526   2.836   1.294 -0.8691  2.9527  2.0230
  696TIP3    H223504   2.530   2.903   1.158  0.0359 -0.8080  0.0462
  697TIP3   OH223505   0.842   4.468   5.578 -0.5560  0.2613 -0.8417
  697TIP3    H123506   0.779   4.532   5.611  1.9476  2.6085 -0.1775
  697TIP3    H223507   0.858   4.496   5.487 -0.6214 -0.4481 -1.0777
  698TIP3   OH223508   4.750   2.570  13.219  0.7759 -0.2962  0.5709
  698TIP3    H123509   4.665   2.567  13.175 -0.1271  0.5389  2.1607
  698TIP3    H223510   4.811   2.598  13.151 -0.5754  1.0371 -0.1672
  699TIP3   OH223511   3.952   6.027   2.859  0.3499 -0.0242 -0.3484
  699TIP3    H123512   4.022   6.021   2.794 -0.4445  0.9768 -1.3499
  699TIP3    H223513   3.889   5.961   2.833  0.0800  0.3054 -0.5408
  700TIP3   OH223514   0.358   6.258   2.923  0.4621 -0.1717 -0.0712
  700TIP3    H123515   0.452   6.242   2.913  0.5187  0.6968 -1.1112
  700TIP3    H223516   0.335   6.213   3.004  2.2461  1.5697  1.4822
  701TIP3   OH223517   0.622   2.103   2.452  0.4086 -0.1331 -0.0644
  701TIP3    H123518   0.577   2.176   2.493  0.6761  0.4587 -0.8102
  701TIP3    H223519   0.570   2.083   2.374  1.9254  1.2116 -1.4931
  702TIP3   OH223520   2.850   0.212  14.559 -0.2857 -0.0887  0.1331
  702TIP3    H123521   2.830   0.234  14.650  3.9707  1.2246  0.9881
  702TIP3    H223522   2.845   0.117  14.555 -1.1379 -0.1340  1.5260
  703TIP3   OH223523   6.205   6.748   5.333 -0.3769 -0.1063  0.2179
  703TIP3    H123524   6.220   6.812   5.263 -0.5433  1.8093  1.8397
  703TIP3    H223525   6.110   6.750   5.347 -0.4361 -1.0530  0.0037
  704TIP3   OH223526   6.019   5.026   1.997  0.6308  0.0665  0.6273
  704TIP3    H123527   6.066   5.105   2.023  0.9248  0.3228 -0.6362
  704TIP3    H223528   6.089   4.962   1.981  0.6319  0.5995 -1.7657
  705TIP3   OH223529   2.950   6.155  15.474 -0.1713 -0.3265 -0.3536
  705TIP3    H123530   3.001   6.107  15.409 -0.5615 -2.1788  0.6239
  705TIP3    H223531   2.859   6.141  15.447 -0.2852  0.0942 -0.1911
  706TIP3   OH223532   1.402   3.805  11.768 -0.4794 -0.0059 -0.6247
  706TIP3    H123533   1.404   3.898  11.787  3.2884 -0.1901  0.5982
  706TIP3    H223534   1.412   3.799  11.673 -0.6843  0.8195 -0.7022
  707TIP3   OH223535   6.318   3.438   5.142  0.1036 -0.5236  0.4788
  707TIP3    H123536   6.365   3.422   5.060 -0.7915  0.6850 -0.2842
  707TIP3    H223537   6.296   3.531   5.140 -1.1032 -0.7665  1.4780
  708TIP3   OH223538   1.407   0.507   4.180 -0.0632  0.1231  0.1359
  708TIP3    H123539   1.436   0.479   4.267 -2.0895 -1.3258  0.4158
  708TIP3    H223540   1.488   0.516   4.129  1.0691 -0.4004  1.7645
  709TIP3   OH223541   6.515   2.692  12.613  0.2473  0.3978  0.0884
  709TIP3    H123542   6.457   2.735  12.549  2.4548  0.2219 -2.2253
  709TIP3    H223543   6.486   2.601  12.615 -1.4511  0.9315  1.3525
  710TIP3   OH223544   5.406   4.592  13.079 -0.1279 -0.2940 -0.5395
  710TIP3    H123545   5.361   4.644  13.013  1.0724  2.3896  0.5706
  710TIP3    H223546   5.495   4.580  13.044  0.5462  1.2295  0.4971
  711TIP3   OH223547   2.150   2.764   1.386  0.2666  0.2603 -0.1577
  711TIP3    H123548   2.192   2.836   1.434  0.2530 -0.3005  0.7010
  711TIP3    H223549   2.081   2.807   1.335  1.3326  1.0899 -0.9690
  712TIP3   OH223550   4.388   2.710  15.981  0.1428  0.0169 -0.5278
  712TIP3    H123551   4.374   2.713  15.887 -0.0484 -1.2845 -0.5642
  712TIP3    H223552   4.379   2.801  16.010 -0.5947  0.3179 -1.6434
  713TIP3   OH223553   0.000   2.297   4.940 -0.3252  0.1188  0.1859
  713TIP3    H123554   0.034   2.284   5.029 -0.3075  1.2617  0.3588
  713TIP3    H223555   0.053   2.369   4.905 -2.1974  1.5999  0.2723
  714TIP3   OH223556   3.533   4.772  13.558 -0.2197 -0.3811 -0.5254
  714TIP3    H123557   3.509   4.848  13.504 -0.9023  0.3055  0.7068
  714TIP3    H223558   3.620   4.793  13.591 -0.2387 -0.3212 -0.5129
  715TIP3   OH223559   4.703   0.571   6.228 -0.2372 -0.2885  0.5484
  715TIP3    H123560   4.640   0.630   6.270 -1.3756 -0.1426 -1.2537
  715TIP3    H223561   4.785   0.620   6.227 -0.8210  0.7165  0.3538
  716TIP3   OH223562   2.095   6.451   5.051  0.3220  0.9348  0.2940
  716TIP3    H123563   2.187   6.428   5.063  0.0574 -0.3754 -0.0232
  716TIP3    H223564   2.053   6.421   5.132  0.2101  1.8250  0.5759
  717TIP3   OH223565   5.941   1.295  11.531 -0.0541 -0.0319 -0.1979
  717TIP3    H123566   6.002   1.245  11.478 -0.4683  0.0392 -0.7499
  717TIP3    H223567   5.917   1.370  11.477 -2.3372 -1.1981 -0.9452
  718TIP3   OH223568   5.608   0.642   2.957  0.3970  0.3237  0.7558
  718TIP3    H123569   5.560   0.568   2.919 -0.1360  0.0339  1.9651
  718TIP3    H223570   5.647   0.686   2.881  1.3358 -1.5931  0.0458
  719TIP3   OH223571   5.758   5.464   3.033  0.3429 -0.3291  0.1725
  719TIP3    H123572   5.830   5.404   3.054 -0.2732 -1.3737 -0.6091
  719TIP3    H223573   5.800   5.535   2.984  1.1438  0.1273  1.4519
  720TIP3   OH223574   3.953   4.394  16.358  0.1472  0.5734  0.3162
  720TIP3    H123575   3.868   4.355  16.379 -0.6353  0.6413 -2.3447
  720TIP3    H223576   3.931   4.476  16.313  1.6619  1.0828  0.4361
  721TIP3   OH223577   0.152   3.699  17.142  0.3090 -0.2030 -0.3720
  721TIP3    H123578   0.065   3.672  17.113 -0.3057  2.4555 -1.3240
  721TIP3    H223579   0.206   3.697  17.063  0.5089  0.2919 -0.2539
  722TIP3   OH223580   1.746   0.104  12.657 -0.0796 -0.1550 -0.0063
  722TIP3    H123581   1.789   0.019  12.653  0.3669  0.0540  0.2235
  722TIP3    H223582   1.814   0.166  12.629 -0.2888  0.1612  0.1809
  723TIP3   OH223583   1.491   5.244   4.140 -0.0900  0.3256 -0.6159
  723TIP3    H123584   1.528   5.245   4.228  0.1357 -0.8380 -0.6883
  723TIP3    H223585   1.555   5.195   4.087 -0.6391  0.2623 -1.2357
  724TIP3   OH223586   2.455   6.727  13.014  0.1793 -0.2684 -0.3400
  724TIP3    H123587   2.422   6.779  13.087  0.9822  0.9858 -0.8295
  724TIP3    H223588   2.548   6.749  13.009  0.1430 -0.3238 -1.7323
  725TIP3   OH223589   3.287   5.147   4.858  0.8613  0.1088 -0.0849
  725TIP3    H123590   3.305   5.109   4.773  3.1207  0.6533  0.0695
  725TIP3    H223591   3.371   5.141   4.905 -0.5440 -1.0799  2.4727
  726TIP3   OH223592   3.328   5.553   1.035  0.4079 -0.0726  0.1362
  726TIP3    H123593   3.325   5.599   1.119  0.8173  0.3478 -0.0823
  726TIP3    H223594   3.288   5.614   0.973  1.5716  0.2820 -0.2872
  727TIP3   OH223595   0.339   4.451  17.185 -0.2985  0.0683  0.2906
  727TIP3    H123596   0.355   4.370  17.234 -1.5229  1.0959  2.5007
  727TIP3    H223597   0.419   4.503  17.197  0.4568 -0.7119 -1.0641
  728TIP3   OH223598   2.392   6.719  14.465 -0.1580 -0.0139  0.3282
  728TIP3    H123599   2.430   6.805  14.483  1.2157 -0.3230 -0.9076
  728TIP3    H223600   2.301   6.737  14.444 -0.5361  0.8489  2.4989
  729TIP3   OH223601   5.934   3.465  17.104 -0.3063 -0.3609  0.2434
  729TIP3    H123602   6.028   3.478  17.094 -0.2476 -1.1637 -0.3686
  729TIP3    H223603   5.912   3.397  17.040 -1.6060  0.9999 -0.8320
  730TIP3   OH223604   0.924   3.488  16.644  0.9305  0.7926  0.4747
  730TIP3    H123605   0.908   3.475  16.737 -1.3253  0.7724  0.1360
  730TIP3    H223606   0.891   3.408  16.603  0.7252  1.3260 -0.4259
  731TIP3   OH223607   0.458   1.288   4.909 -0.3258  0.3909  0.2197
  731TIP3    H123608   0.392   1.263   4.845  0.3317 -0.9927  0.0404
  731TIP3    H223609   0.525   1.333   4.858 -0.5374  0.6797  0.1956
  732TIP3   OH223610   2.378   6.535  15.830 -0.5583 -0.0397  0.1864
  732TIP3    H123611   2.427   6.513  15.909 -1.5582 -1.7275  0.3979
  732TIP3    H223612   2.289   6.554  15.861 -0.7985 -0.0820 -0.4516
  733TIP3   OH223613   3.718   5.784   5.687 -0.1023 -0.2038 -0.0509
  733TIP3    H123614   3.672   5.760   5.606 -0.6691  0.0012  0.2017
  733TIP3    H223615   3.763   5.704   5.713  0.6083 -0.0999 -0.9064
  734TIP3   OH223616   0.794   2.903  16.351 -0.4729  0.2752 -0.2883
  734TIP3    H123617   0.709   2.943  16.368  0.5866  2.6146 -0.2125
  734TIP3    H223618   0.784   2.860  16.265 -1.3312  1.7450 -0.9556
  735TIP3   OH223619   1.268   1.944  14.707 -0.6705  0.1675 -0.6981
  735TIP3    H123620   1.227   1.983  14.784  1.8597  0.7584  0.4805
  735TIP3    H223621   1.361   1.967  14.716  0.0381 -1.5084 -2.8720
  736TIP3   OH223622   5.525   5.745  11.553  0.0232  0.6877  0.3356
  736TIP3    H123623   5.496   5.748  11.644 -0.5564 -0.4836  0.2068
  736TIP3    H223624   5.587   5.672  11.550  0.6656  1.2401 -0.0449
  737TIP3   OH223625   0.327   2.982   5.943 -0.4509 -0.3442  0.0687
  737TIP3    H123626   0.326   3.076   5.961  1.1283  0.5335 -3.4844
  737TIP3    H223627   0.417   2.955   5.960  0.1047 -0.2624 -2.2953
  738TIP3   OH223628   4.785   1.316  16.980 -0.0749 -0.1218  0.4844
  738TIP3    H123629   4.847   1.384  16.954 -1.8293  1.4853  0.3579
  738TIP3    H223630   4.835   1.235  16.972  1.7965  1.0350 -0.2791
  739TIP3   OH223631   5.250   2.464   6.267 -0.3648 -0.4951  0.4718
  739TIP3    H123632   5.239   2.406   6.342 -0.5274 -2.3730 -0.9331
  739TIP3    H223633   5.188   2.432   6.202 -0.3869  1.2147 -0.4077
  740TIP3   OH223634   6.056   2.677  14.625  0.3244 -0.2042 -0.0910
  740TIP3    H123635   5.973   2.683  14.671  0.7072 -1.6653  0.8590
  740TIP3    H223636   6.113   2.740  14.669  0.5915 -1.3644  1.2803
  741TIP3   OH223637   2.894   0.886  15.262  0.3605 -0.0647  0.6774
  741TIP3    H123638   2.822   0.853  15.209  0.5002  0.0257  0.4315
  741TIP3    H223639   2.959   0.815  15.261  0.3343 -0.0911  0.7869
  742TIP3   OH223640   2.630   2.424   1.262  0.0385  0.0037  0.3084
  742TIP3    H123641   2.631   2.328   1.259  0.6696  0.0313 -0.6930
  742TIP3    H223642   2.582   2.444   1.342  1.5203 -1.1750  1.5758
  743TIP3   OH223643   2.447   3.731   2.585 -0.3754 -0.3725 -0.3475
  743TIP3    H123644   2.416   3.788   2.656 -0.5691  1.0922 -1.5605
  743TIP3    H223645   2.368   3.710   2.536  0.0719  0.7949 -1.6286
  744TIP3   OH223646   0.685   0.060   5.246  0.3813 -0.3651  0.9507
  744TIP3    H123647   0.606   0.006   5.248 -0.1654 -0.0512 -3.4036
  744TIP3    H223648   0.653   0.149   5.263  0.0926 -0.4413  0.8134
  745TIP3   OH223649   2.831   0.273  12.028 -0.6143  0.4384  0.0989
  745TIP3    H123650   2.830   0.177  12.027 -1.4679  0.4420 -0.6971
  745TIP3    H223651   2.800   0.296  12.115  2.9952  0.0215  1.6689
  746TIP3   OH223652   2.415   1.470  11.703  1.0955  0.2301  0.3019
  746TIP3    H123653   2.340   1.486  11.646  1.4000  0.1907 -0.1149
  746TIP3    H223654   2.492   1.487  11.647  1.3979  1.5728  1.0830
  747TIP3   OH223655   3.691   3.761  13.347  0.0873 -0.2655 -0.0010
  747TIP3    H123656   3.642   3.790  13.270 -0.6307 -0.4096  0.3832
  747TIP3    H223657   3.781   3.788  13.331  0.1545 -1.2371 -1.3593
  748TIP3   OH223658   0.015   5.162  16.245  0.0306 -0.0242  0.0344
  748TIP3    H123659  -0.045   5.132  16.314  0.5122 -0.1133  0.4237
  748TIP3    H223660   0.088   5.201  16.293  1.3711 -1.9307 -0.3230
  749TIP3   OH223661   4.264   5.422   3.234 -0.2320  0.0578 -0.1367
  749TIP3    H123662   4.232   5.353   3.176 -0.1913  0.8672 -1.1509
  749TIP3    H223663   4.345   5.452   3.193  0.7428 -0.5177  1.2725
  750TIP3   OH223664   3.888   0.626  16.252 -0.1032  0.1961  0.2782
  750TIP3    H123665   3.844   0.666  16.328 -2.9412 -0.3613 -0.9442
  750TIP3    H223666   3.874   0.688  16.181 -1.2159 -1.1158 -0.7252
  751TIP3   OH223667   0.545   6.408   4.455 -0.1339  0.1853 -0.2127
  751TIP3    H123668   0.469   6.366   4.416  0.4660  0.2239 -1.4761
  751TIP3    H223669   0.524   6.502   4.454 -1.0140  0.0542  1.6001
  752TIP3   OH223670   2.683   5.456  14.445 -0.1399  0.0319  0.2112
  752TIP3    H123671   2.703   5.475  14.537  1.8707 -1.4453  0.1303
  752TIP3    H223672   2.637   5.372  14.448 -1.0954  0.5251 -0.0886
  753TIP3   OH223673   1.045   1.528   2.996  0.7498 -0.0335  0.2766
  753TIP3    H123674   1.117   1.589   2.975  0.6613  0.7182  1.9700
  753TIP3    H223675   1.049   1.519   3.091 -2.3287  1.2473  0.6511
  754TIP3   OH223676   0.157   1.138  12.482 -0.3746 -0.5925  0.1050
  754TIP3    H123677   0.156   1.043  12.471 -0.0859 -0.7196  1.0503
  754TIP3    H223678   0.232   1.155  12.539  0.4487  0.3463 -1.1739
  755TIP3   OH223679   0.684   5.196   1.299  0.2669  0.2474  0.4632
  755TIP3    H123680   0.775   5.185   1.325  0.4297 -0.7700 -0.5048
  755TIP3    H223681   0.634   5.156   1.371  0.6548 -0.9128  0.1031
  756TIP3   OH223682   0.073   5.177  16.801  0.0775  0.0013 -0.4754
  756TIP3    H123683   0.104   5.266  16.786  1.2592 -0.6502 -2.1252
  756TIP3    H223684  -0.022   5.182  16.786  0.3522  0.6847 -2.1941
  757TIP3   OH223685   3.843   4.932   0.689  0.0568 -0.2184  0.5616
  757TIP3    H123686   3.827   4.843   0.658 -0.9548 -0.0862  0.6786
  757TIP3    H223687   3.836   4.987   0.611  1.2327 -0.2770  0.3853
  758TIP3   OH223688   2.415   4.224   4.543 -0.2056  0.5913  0.3216
  758TIP3    H123689   2.431   4.239   4.636 -0.8162  0.3298  0.4735
  758TIP3    H223690   2.331   4.266   4.527 -1.8741 -2.3732  0.7022
  759TIP3   OH223691   0.922   5.232  13.636 -0.5556 -0.9175  0.5309
  759TIP3    H123692   0.900   5.210  13.726  0.1500 -1.9605  0.4659
  759TIP3    H223693   0.985   5.165  13.609  1.2769  0.8762  0.1223
  760TIP3   OH223694   3.459   2.337   3.375 -0.1222  0.4126 -0.0649
  760TIP3    H123695   3.459   2.415   3.430 -2.0598  0.1036  0.4865
  760TIP3    H223696   3.486   2.367   3.289  2.4159  1.0277  0.8644
  761TIP3   OH223697   3.968   1.274  11.902  0.3345 -0.1849  0.0200
  761TIP3    H123698   3.944   1.332  11.830 -3.9095 -1.3599  0.2140
  761TIP3    H223699   3.995   1.193  11.860  1.3111  0.2401 -0.2051
  762TIP3   OH223700   0.775   4.713   4.906  0.2120 -0.5798 -0.0685
  762TIP3    H123701   0.754   4.620   4.900  0.0660 -0.5878  0.5137
  762TIP3    H223702   0.740   4.740   4.991 -0.5590  0.2118 -0.6121
  763TIP3   OH223703   4.694   1.046  17.043 -0.0694  0.2339  0.0812
  763TIP3    H123704   4.728   1.101  17.114 -0.3507 -0.6056  0.8820
  763TIP3    H223705   4.772   1.007  17.004  0.1174  1.0365 -0.3671
  764TIP3   OH223706   1.881   3.705   1.985 -0.1608 -0.1532 -0.2897
  764TIP3    H123707   1.972   3.729   2.006 -0.0175  0.0517 -1.0974
  764TIP3    H223708   1.889   3.638   1.917 -0.6058 -0.8927  0.3697
  765TIP3   OH223709   1.328   5.265   6.273  0.5684  0.1197  0.6026
  765TIP3    H123710   1.329   5.169   6.273 -0.6374 -0.0451 -2.7512
  765TIP3    H223711   1.419   5.290   6.284  0.7847 -1.3346  2.5641
  766TIP3   OH223712   1.794   3.309  14.897  0.4639 -0.4600  0.1010
  766TIP3    H123713   1.871   3.293  14.842  0.0533 -2.6184  0.0813
  766TIP3    H223714   1.730   3.347  14.837 -0.3485 -3.7370 -1.3044
  767TIP3   OH223715   4.357   1.260   1.670  0.2554 -0.2954 -0.2914
  767TIP3    H123716   4.283   1.295   1.622 -0.5621 -0.2315  0.9616
  767TIP3    H223717   4.391   1.189   1.615 -0.7586 -0.3456 -0.8656
  768TIP3   OH223718   6.478   3.225   3.569 -0.1512  0.0859 -0.0225
  768TIP3    H123719   6.408   3.160   3.571 -0.7154  0.6826 -0.1269
  768TIP3    H223720   6.433   3.309   3.558  0.3636  0.7713  2.4319
  769TIP3   OH223721   0.610   6.133   0.231 -0.9949  0.0190  0.5443
  769TIP3    H123722   0.547   6.080   0.280  0.6354 -1.7819  0.7992
  769TIP3    H223723   0.584   6.123   0.139 -1.3135 -0.3991  0.6796
  770TIP3   OH223724   0.590   0.254  11.503 -0.2154  0.0404 -0.1014
  770TIP3    H123725   0.552   0.249  11.415  0.2984 -1.8909 -0.2480
  770TIP3    H223726   0.682   0.276  11.487 -0.8479  3.4611  0.1980
  771TIP3   OH223727   6.180   3.723  12.187  0.2426 -0.2674 -0.0172
  771TIP3    H123728   6.220   3.749  12.270 -0.1816 -1.7976  0.6947
  771TIP3    H223729   6.251   3.730  12.123  1.3492 -1.7309  1.0010
  772TIP3   OH223730   3.496   6.630   3.577 -0.7077  0.6165 -0.2407
  772TIP3    H123731   3.588   6.654   3.580 -0.4150 -0.5307  2.4482
  772TIP3    H223732   3.450   6.713   3.563  0.5554  2.0341  3.0094
  773TIP3   OH223733   3.825   3.356   0.827 -0.1207  0.3378  0.2156
  773TIP3    H123734   3.857   3.294   0.761 -0.8552  1.4233 -1.2280
  773TIP3    H223735   3.903   3.404   0.854  0.3368 -0.7045  0.8246
  774TIP3   OH223736   2.560   4.995  14.987  0.2523  0.8391 -0.1458
  774TIP3    H123737   2.490   4.974  15.049  0.4952  0.3265 -0.0351
  774TIP3    H223738   2.637   4.950  15.023  0.5318  1.0325 -0.5018
  775TIP3   OH223739   6.268   3.813  12.923  0.1698 -0.4385 -0.0572
  775TIP3    H123740   6.257   3.725  12.959 -0.2914 -0.2230  0.3478
  775TIP3    H223741   6.205   3.866  12.971 -0.3877 -0.1132 -1.1095
  776TIP3   OH223742   0.526   6.000   4.606  0.0542 -0.2844  0.1238
  776TIP3    H123743   0.516   6.091   4.637 -0.8558 -0.1359 -0.5649
  776TIP3    H223744   0.557   6.009   4.516  0.4776 -0.6728  0.2298
  777TIP3   OH223745   1.605   6.267  12.153  0.0027  0.2958 -0.5137
  777TIP3    H123746   1.582   6.254  12.061 -1.3395  1.0751 -0.3100
  777TIP3    H223747   1.699   6.250  12.157  0.6423  2.7289 -2.5478
  778TIP3   OH223748   6.207   3.309  12.807  0.4682  0.5465  0.0720
  778TIP3    H123749   6.273   3.250  12.843 -0.2530 -1.9394 -2.3871
  778TIP3    H223750   6.256   3.368  12.750  0.7762 -0.3262 -0.5861
  779TIP3   OH223751   2.063   4.694  16.643 -0.4387  0.2055 -0.0624
  779TIP3    H123752   1.981   4.661  16.607 -0.6896  0.0261  0.6493
  779TIP3    H223753   2.090   4.626  16.705 -0.0580  0.5364  0.1321
  780TIP3   OH223754   0.251   4.311  12.842 -0.1473  0.0654  0.2085
  780TIP3    H123755   0.168   4.270  12.818  0.3546 -0.9581  0.1391
  780TIP3    H223756   0.241   4.334  12.935 -0.9220  1.0502 -0.1045
  781TIP3   OH223757   5.756   6.171  16.732  0.0676 -0.1366 -0.1782
  781TIP3    H123758   5.663   6.193  16.739 -0.4155 -2.4763  2.5911
  781TIP3    H223759   5.801   6.237  16.786 -0.1867 -0.0181 -0.1118
  782TIP3   OH223760   2.026   5.822   4.942  0.2534  0.1697  0.1605
  782TIP3    H123761   2.105   5.774   4.967 -0.5421 -1.3117 -0.0400
  782TIP3    H223762   2.032   5.829   4.846  0.4026  0.5328  0.1962
  783TIP3   OH223763   3.023   5.090   1.768 -0.0955  0.5271  0.1745
  783TIP3    H123764   3.114   5.109   1.790 -0.4090  0.9570  1.1689
  783TIP3    H223765   3.024   4.999   1.737  0.7427  0.6981 -0.3323
  784TIP3   OH223766   2.331   6.772  12.575  0.0156  0.4447  0.1589
  784TIP3    H123767   2.420   6.782  12.608  0.9428 -0.8915 -1.7491
  784TIP3    H223768   2.340   6.769  12.480 -2.2420  1.6262 -0.1770
  785TIP3   OH223769   2.836   3.548   0.155  0.4254 -0.7115 -0.3268
  785TIP3    H123770   2.836   3.492   0.232  1.5490 -0.2783  0.0115
  785TIP3    H223771   2.866   3.491   0.084 -1.4343 -1.3360 -0.6435
  786TIP3   OH223772   5.783   6.312  14.716  0.0147 -0.4806  0.2517
  786TIP3    H123773   5.756   6.255  14.788  0.0020  0.3264  0.9003
  786TIP3    H223774   5.721   6.386  14.719 -0.7385 -1.0014 -1.3367
  787TIP3   OH223775   0.264   2.225   3.937  0.2280 -1.0185 -0.0177
  787TIP3    H123776   0.313   2.202   4.016  0.1066 -1.4923 -0.0781
  787TIP3    H223777   0.239   2.316   3.950  1.8730 -0.4860 -0.3726
  788TIP3   OH223778   1.225   0.200  12.590 -0.2165 -0.1769 -0.0208
  788TIP3    H123779   1.226   0.105  12.601  0.3357  0.0515  2.4156
  788TIP3    H223780   1.146   0.218  12.540  0.6223 -2.0322 -2.1618
  789TIP3   OH223781   1.779   4.025  16.819 -0.6067 -0.2302 -0.0351
  789TIP3    H123782   1.707   3.986  16.870  0.4279 -2.0975  0.0880
  789TIP3    H223783   1.787   4.114  16.853 -0.2162 -1.2606  2.8526
  790TIP3   OH223784   6.244   0.350  11.716  0.3857 -0.0147  0.0156
  790TIP3    H123785   6.313   0.299  11.674  0.7804  1.1398 -0.7912
  790TIP3    H223786   6.171   0.289  11.724  0.5617 -0.5099 -1.6785
  791TIP3   OH223787   4.702   5.304  15.221 -0.0692  0.5154 -0.6068
  791TIP3    H123788   4.660   5.305  15.135  0.1063  0.4912 -0.6928
  791TIP3    H223789   4.791   5.335  15.205 -0.2213  1.1035 -0.3368
  792TIP3   OH223790   2.137   0.859   0.256  0.4727 -0.7025 -0.1617
  792TIP3    H123791   2.189   0.823   0.328  1.1145 -0.4088 -0.4777
  792TIP3    H223792   2.096   0.782   0.216  0.1304 -0.8738  0.4909
  793TIP3   OH223793   1.795   5.098   3.909  0.0179 -0.6170 -0.2177
  793TIP3    H123794   1.809   5.004   3.917  2.8422 -0.1398  1.6057
  793TIP3    H223795   1.815   5.117   3.817  2.1066 -1.4836  0.0020
  794TIP3   OH223796   2.647   3.749   1.928 -0.4923 -0.5867 -0.0517
  794TIP3    H123797   2.645   3.672   1.985 -1.8984 -0.1877  0.4950
  794TIP3    H223798   2.563   3.792   1.945  0.9150  1.9673  0.9154
  795TIP3   OH223799   1.048   2.771   0.171 -0.0948 -0.5673  0.1908
  795TIP3    H123800   0.957   2.745   0.155 -0.4745  0.0858  1.1801
  795TIP3    H223801   1.076   2.719   0.245  0.4967 -1.0797 -0.3807
  796TIP3   OH223802   0.886   1.763  13.281 -0.0911  0.3839  0.7555
  796TIP3    H123803   0.978   1.791  13.280  0.3868 -0.9082  2.4179
  796TIP3    H223804   0.881   1.697  13.212  0.7950 -0.9387  1.8774
  797TIP3   OH223805   5.552   0.677  16.949  0.2044 -0.2410  0.3929
  797TIP3    H123806   5.620   0.708  17.008 -1.1483 -0.0727  1.9152
  797TIP3    H223807   5.554   0.582  16.958 -1.1514 -0.1534  2.1199
  798TIP3   OH223808   0.647   1.584  15.970  0.1911  0.1722  0.5347
  798TIP3    H123809   0.616   1.505  16.014 -0.7838  0.8274  1.0523
  798TIP3    H223810   0.593   1.655  16.006  2.3253  1.3885  1.5500
  799TIP3   OH223811   4.713   1.437  15.325  0.4597 -0.5558 -0.1252
  799TIP3    H123812   4.735   1.372  15.392  2.9358 -0.0760 -0.3832
  799TIP3    H223813   4.700   1.385  15.245 -1.7455 -1.0523  0.4873
  800TIP3   OH223814   5.023   1.600   3.451 -0.1596  0.1561  0.3690
  800TIP3    H123815   4.969   1.541   3.504 -0.0236 -0.0902  0.2375
  800TIP3    H223816   5.113   1.572   3.469 -0.1585 -1.1870 -1.4181
  801TIP3   OH223817   6.634   1.651   0.970  0.2124 -0.1813 -0.1531
  801TIP3    H123818   6.581   1.621   0.896 -0.4487  0.9014 -0.1350
  801TIP3    H223819   6.686   1.722   0.934 -0.3905  0.6047  0.5093
  802TIP3   OH223820   4.685   2.100   4.142 -0.1885  0.2296  0.0105
  802TIP3    H123821   4.770   2.070   4.109 -0.6396 -0.4659 -0.5479
  802TIP3    H223822   4.680   2.192   4.115 -0.1085 -0.0502 -0.9985
  803TIP3   OH223823   4.450   5.620   2.717 -0.0085 -0.4295 -0.0985
  803TIP3    H123824   4.518   5.687   2.720 -0.0175 -0.3906 -0.5723
  803TIP3    H223825   4.458   5.583   2.629 -0.5678 -0.4570 -0.1397
  804TIP3   OH223826   5.077   0.048   5.979 -0.2782 -0.1686 -0.4665
  804TIP3    H123827   5.078   0.087   6.067 -0.0499 -1.4717  0.1300
  804TIP3    H223828   5.041  -0.040   5.992 -0.4874 -0.2900 -1.7306
  805TIP3   OH223829   0.468   0.242   1.985 -0.3882  0.1455  0.3964
  805TIP3    H123830   0.500   0.162   1.944 -0.1627  0.7227 -0.6003
  805TIP3    H223831   0.539   0.269   2.043  0.5012  0.8002 -0.9376
  806TIP3   OH223832   0.366   6.169  12.155 -0.2476  0.0811  0.0134
  806TIP3    H123833   0.402   6.081  12.165 -0.2264  0.3049  2.6813
  806TIP3    H223834   0.354   6.200  12.245  1.3034  3.4609 -0.8011
  807TIP3   OH223835   4.382   3.742   3.686  0.5533  0.1538 -0.5260
  807TIP3    H123836   4.320   3.793   3.738  0.5648  0.0370 -0.3981
  807TIP3    H223837   4.346   3.744   3.597  0.2782 -0.0507 -0.4220
  808TIP3   OH223838   0.337   5.282   3.221 -0.1018 -0.2359 -0.1851
  808TIP3    H123839   0.412   5.261   3.277  1.4017  2.8909 -0.8278
  808TIP3    H223840   0.291   5.198   3.211  1.2561 -1.5731  3.1197
  809TIP3   OH223841   5.969   4.993   2.651  0.1691 -0.1208 -0.7800
  809TIP3    H123842   6.025   5.029   2.583  2.2219  0.0742  0.9179
  809TIP3    H223843   6.021   4.924   2.692 -0.9768 -0.2234  0.6062
  810TIP3   OH223844   1.498   2.737  12.938  0.7622  0.3341  0.0861
  810TIP3    H123845   1.533   2.676  12.873  0.0647  0.3644 -0.3188
  810TIP3    H223846   1.417   2.696  12.968  1.6677 -0.2994  1.8573
  811TIP3   OH223847   0.059   4.792   5.067 -0.6363 -0.4405  0.0772
  811TIP3    H123848   0.139   4.795   5.118 -1.0479  0.2145  0.7049
  811TIP3    H223849   0.081   4.738   4.990  0.2763 -0.5889  0.4331
  812TIP3   OH223850   3.779   0.023  11.762 -0.7110  0.0660 -0.1270
  812TIP3    H123851   3.839  -0.043  11.795 -0.0477 -0.1296 -1.6361
  812TIP3    H223852   3.710  -0.026  11.718 -0.5976  0.3573 -0.6365
  813TIP3   OH223853   3.597   6.345  13.357 -0.2081 -1.2124 -0.2314
  813TIP3    H123854   3.538   6.416  13.328  0.4131  0.1543  1.6440
  813TIP3    H223855   3.561   6.267  13.316 -2.9151 -0.3236  0.1798
  814TIP3   OH223856   5.807   4.732   4.676 -0.3343  0.7496 -0.2762
  814TIP3    H123857   5.880   4.754   4.617  0.5137  0.3243  0.5809
  814TIP3    H223858   5.800   4.808   4.734  1.4381 -0.3734  1.5554
  815TIP3   OH223859   1.404   5.404  14.282 -0.1011 -0.1798 -0.2882
  815TIP3    H123860   1.396   5.330  14.344  1.2591  1.2087  1.6576
  815TIP3    H223861   1.492   5.396  14.247  0.0886  0.5636  0.0132
  816TIP3   OH223862   6.754   1.061  16.499  0.2901  0.7724  0.0703
  816TIP3    H123863   6.830   1.021  16.542  0.1631 -0.3147 -0.6963
  816TIP3    H223864   6.792   1.130  16.445  1.0156 -1.0897 -1.9309
  817TIP3   OH223865   2.166   1.621   5.191 -0.2660 -0.2231 -0.1505
  817TIP3    H123866   2.192   1.530   5.182 -0.1746 -0.2398  0.2568
  817TIP3    H223867   2.236   1.662   5.242 -0.1249  0.1611 -0.6370
  818TIP3   OH223868   3.961   3.017  14.283  0.6277 -0.7955 -0.0410
  818TIP3    H123869   3.996   3.106  14.291  1.1761 -1.0348  0.2352
  818TIP3    H223870   3.929   3.012  14.193  0.7193 -0.3606 -0.0994
  819TIP3   OH223871   3.023   2.150   3.634 -0.5819  0.1614  0.7502
  819TIP3    H123872   2.962   2.135   3.562 -0.5476 -1.3937  1.0087
  819TIP3    H223873   3.110   2.146   3.593 -0.5753 -0.3804  0.8043
  820TIP3   OH223874   0.170   5.421   4.049 -0.3589 -0.2390  0.2346
  820TIP3    H123875   0.220   5.490   4.006 -0.6322 -1.3786 -2.0942
  820TIP3    H223876   0.225   5.394   4.123 -0.8922  3.3443  2.1632
  821TIP3   OH223877   1.997   3.661  16.102 -0.0436  0.2634  0.4088
  821TIP3    H123878   1.923   3.602  16.114  1.6592 -2.2995 -0.8124
  821TIP3    H223879   2.025   3.684  16.191 -1.3720  0.0694  0.8929
  822TIP3   OH223880   6.503   4.570   3.308  0.3921 -0.1981 -0.3688
  822TIP3    H123881   6.521   4.594   3.217  1.7708  3.0724  0.6185
  822TIP3    H223882   6.408   4.576   3.315  0.3879  1.7296 -1.1627
  823TIP3   OH223883   0.155   0.121  15.661  0.6090 -0.4577  0.1436
  823TIP3    H123884   0.147   0.184  15.589 -3.8280 -2.2909 -1.2721
  823TIP3    H223885   0.173   0.176  15.738  1.6250  1.9771 -1.6797
  824TIP3   OH223886   1.957   4.687   1.474  0.0751  0.3161 -0.1756
  824TIP3    H123887   1.912   4.717   1.395  0.4921  1.0134 -0.1549
  824TIP3    H223888   2.019   4.757   1.494  0.2185 -0.0196  0.5697
  825TIP3   OH223889   5.053   4.043   2.541 -0.3152 -0.1614 -0.1282
  825TIP3    H123890   5.044   4.119   2.599 -0.3988 -0.6038  0.4518
  825TIP3    H223891   5.026   3.969   2.596  1.6951 -0.8649 -0.0262
  826TIP3   OH223892   2.687   5.034  16.458  0.3964 -0.6331  0.6284
  826TIP3    H123893   2.675   4.943  16.483 -2.4135 -0.7213 -0.6161
  826TIP3    H223894   2.612   5.079  16.497  1.0336  0.9191  0.1365
  827TIP3   OH223895   4.007   6.349   2.222  0.7209 -0.2870 -0.3564
  827TIP3    H123896   3.984   6.277   2.162  0.2682 -0.0322 -0.4924
  827TIP3    H223897   4.067   6.403   2.171 -2.8537  2.2861 -2.2641
  828TIP3   OH223898   1.969   1.320   4.305  0.0439  0.4174 -0.4341
  828TIP3    H123899   2.064   1.313   4.297  0.0791  1.2038 -0.8003
  828TIP3    H223900   1.945   1.391   4.245 -0.6616  0.8426  0.3207
  829TIP3   OH223901   3.536   2.470   5.167  0.6379 -0.2345  0.1312
  829TIP3    H123902   3.553   2.390   5.217  2.4888 -0.5035 -0.8612
  829TIP3    H223903   3.587   2.538   5.210  0.6705 -0.0345 -0.2143
  830TIP3   OH223904   3.718   2.923  17.027  0.2602 -0.0374 -1.2575
  830TIP3    H123905   3.812   2.940  17.027 -0.0735  2.2256 -0.0606
  830TIP3    H223906   3.695   2.918  16.934  1.7528 -2.1823 -1.5731
  831TIP3   OH223907   4.615   4.588  16.822 -0.6926 -0.0811 -0.0295
  831TIP3    H123908   4.649   4.544  16.744 -1.4712  0.9256 -0.9572
  831TIP3    H223909   4.617   4.520  16.890  1.2236 -0.6070 -0.5631
  832TIP3   OH223910   4.701   0.264  15.918  0.7191  0.1392  0.6273
  832TIP3    H123911   4.727   0.244  15.828 -0.0521  0.0985  0.4052
  832TIP3    H223912   4.694   0.178  15.961  0.2509  0.1056  0.4860
  833TIP3   OH223913   4.724   3.952   0.413  0.2612  0.2231 -0.3248
  833TIP3    H123914   4.748   4.029   0.466 -1.0214  0.1492  0.4179
  833TIP3    H223915   4.649   3.914   0.459  0.5773 -1.2104 -0.9456
  834TIP3   OH223916   6.749   3.544   1.312 -0.8770 -0.1139  0.0643
  834TIP3    H123917   6.773   3.455   1.286 -0.4772 -0.2653  0.9176
  834TIP3    H223918   6.795   3.600   1.250 -2.5980 -0.5172 -1.6579
  835TIP3   OH223919   6.408   5.804  13.366  0.8371  0.1769  0.0484
  835TIP3    H123920   6.440   5.793  13.277  0.7796 -1.2476  0.1814
  835TIP3    H223921   6.334   5.744  13.373  0.5485  0.6104  0.9192
  836TIP3   OH223922   1.449   2.612   2.365 -0.9663  0.1760 -0.0767
  836TIP3    H123923   1.492   2.579   2.286  1.3373 -1.0943  1.6011
  836TIP3    H223924   1.517   2.658   2.412 -1.7953 -0.6100  1.9989
  837TIP3   OH223925   0.737   4.047   6.058 -0.4048  0.0846  0.1819
  837TIP3    H123926   0.829   4.046   6.032 -0.5311  0.0223 -0.2758
  837TIP3    H223927   0.735   4.100   6.138 -0.1802  1.2968 -0.5960
  838TIP3   OH223928   4.258   1.861   3.927 -0.3975  0.6192  0.0095
  838TIP3    H123929   4.166   1.840   3.911 -0.5717  1.7545 -0.5636
  838TIP3    H223930   4.259   1.896   4.016 -0.2437 -0.8451  0.6261
  839TIP3   OH223931   4.746   3.380  12.740  0.8125 -0.5342  0.1514
  839TIP3    H123932   4.742   3.287  12.761 -1.0699 -0.2676  1.1541
  839TIP3    H223933   4.658   3.412  12.757  1.4602  1.4749 -0.0700
  840TIP3   OH223934   4.969   1.329   4.955  0.4439 -0.3316 -0.3158
  840TIP3    H123935   5.020   1.339   5.035  2.0533 -0.4659 -1.2816
  840TIP3    H223936   4.997   1.245   4.919 -2.6092 -1.8478  0.5504
  841TIP3   OH223937   4.217   5.206   4.758 -0.5050  0.7204  0.3626
  841TIP3    H123938   4.288   5.215   4.821 -1.1435  0.8955  1.0661
  841TIP3    H223939   4.174   5.292   4.758 -1.1723  0.3925  0.5008
  842TIP3   OH223940   5.174   0.525   0.262 -0.3486  0.1751  0.4303
  842TIP3    H123941   5.117   0.599   0.282 -3.3952 -2.0448  0.7017
  842TIP3    H223942   5.174   0.472   0.342  1.1013 -0.5474 -0.0075
  843TIP3   OH223943   4.032   3.286  17.058 -0.2524  0.1911 -0.1665
  843TIP3    H123944   4.104   3.283  16.994 -0.3820 -1.4261 -0.2889
  843TIP3    H223945   4.005   3.378  17.059  1.5226  0.7691 -0.4355
  844TIP3   OH223946   1.314   5.001   2.697  0.2844  0.4988  0.4022
  844TIP3    H123947   1.266   4.942   2.754  0.8833  1.5771  2.0835
  844TIP3    H223948   1.316   5.085   2.743  0.0133  1.7003 -1.6174
  845TIP3   OH223949   1.534   3.633  14.934  0.0344 -0.4579 -0.4841
  845TIP3    H123950   1.556   3.551  14.978 -0.4060 -0.8521 -0.9739
  845TIP3    H223951   1.445   3.619  14.901  0.2526 -0.0857 -1.2621
  846TIP3   OH223952   3.980   2.531  12.971  0.2637  0.2506  0.6185
  846TIP3    H123953   4.024   2.447  12.982  0.2663  0.1816  0.0931
  846TIP3    H223954   3.895   2.519  13.015  1.0473  0.6417  2.3276
  847TIP3   OH223955   4.095   4.403  12.292  0.3939  0.1992 -0.0544
  847TIP3    H123956   4.103   4.475  12.354 -1.6816 -0.1821  0.7220
  847TIP3    H223957   4.089   4.324  12.346  0.5903 -0.3526 -0.8164
  848TIP3   OH223958   4.825   2.256  11.366  0.3963 -0.1713 -0.6330
  848TIP3    H123959   4.908   2.250  11.414  0.5676  1.6133 -0.6559
  848TIP3    H223960   4.818   2.171  11.322  2.1520 -0.4342 -0.5099
  849TIP3   OH223961   2.379   1.054   3.385 -0.6893 -0.6804 -0.2169
  849TIP3    H123962   2.428   1.072   3.466 -0.7360  0.6681 -0.4669
  849TIP3    H223963   2.376   1.138   3.340 -2.4616 -0.9466 -0.6512
  850TIP3   OH223964   5.960   2.113  16.763 -0.4731 -0.1700 -0.1111
  850TIP3    H123965   5.929   2.031  16.725 -0.6341 -0.4437  0.6136
  850TIP3    H223966   5.880   2.163  16.782 -0.6835 -1.5930  3.4218
  851TIP3   OH223967   0.668   6.070   3.675  0.0207 -0.4508 -0.0720
  851TIP3    H123968   0.705   6.040   3.758  0.6287  0.4828 -0.0015
  851TIP3    H223969   0.696   6.161   3.667 -0.9480 -0.1986 -0.7818
  852TIP3   OH223970   0.269   1.884  16.413 -0.2010 -0.0212 -0.1907
  852TIP3    H123971   0.349   1.935  16.398 -0.5590  0.9861  1.1794
  852TIP3    H223972   0.218   1.936  16.475 -1.8612 -0.7254 -0.8986
  853TIP3   OH223973   2.626   5.888   6.011 -0.1726 -0.3087 -0.0010
  853TIP3    H123974   2.580   5.822   5.958  1.9160 -2.3779  0.6286
  853TIP3    H223975   2.583   5.884   6.097  1.7813 -3.1778  0.9959
  854TIP3   OH223976   5.946   0.390   1.208  0.0132 -0.3524  0.5435
  854TIP3    H123977   6.034   0.396   1.171  0.3287 -0.5227  1.2493
  854TIP3    H223978   5.889   0.381   1.132  0.7071 -1.4438  0.1265
  855TIP3   OH223979   3.659   2.814  12.254  0.5832  0.4939 -0.2391
  855TIP3    H123980   3.647   2.906  12.276 -0.3457 -0.1186  2.0462
  855TIP3    H223981   3.637   2.808  12.161  0.2186  2.4851 -0.3047
  856TIP3   OH223982   5.528   0.552   5.206  0.0882 -0.2482 -0.5642
  856TIP3    H123983   5.470   0.561   5.131 -1.1979 -0.6085  0.3431
  856TIP3    H223984   5.518   0.460   5.232 -0.0668  0.0533  0.4824
  857TIP3   OH223985   2.507   3.315  12.389  0.3567  0.0540  0.1184
  857TIP3    H123986   2.589   3.318  12.340 -0.8704  0.6007 -2.0600
  857TIP3    H223987   2.532   3.331  12.480  2.6287  0.2715 -0.4868
  858TIP3   OH223988   4.428   5.753   3.424 -0.4208  0.4705  0.2547
  858TIP3    H123989   4.423   5.736   3.518 -1.9856  2.0397  0.4882
  858TIP3    H223990   4.483   5.832   3.417  0.2196 -0.0018 -0.2229
  859TIP3   OH223991   4.959   0.904  11.398 -0.0507  0.1391 -0.3748
  859TIP3    H123992   5.053   0.893  11.395  0.3666  2.3598  1.3042
  859TIP3    H223993   4.924   0.815  11.404  2.0389 -0.6794  0.6306
  860TIP3   OH223994   4.644   6.501  14.875 -0.5823 -0.2543  0.2839
  860TIP3    H123995   4.620   6.554  14.951  2.8424  4.5308 -1.5277
  860TIP3    H223996   4.714   6.444  14.907  1.3547  2.2345  0.7925
  861TIP3   OH223997   2.418   3.593   5.363  0.4422 -0.6775  0.0514
  861TIP3    H123998   2.334   3.583   5.407 -1.1946  1.0375 -2.3951
  861TIP3    H223999   2.428   3.513   5.311  0.0207 -0.6633 -0.0584
  862TIP3   OH224000   5.246   3.706  16.974  0.4992  0.4748 -0.2936
  862TIP3    H124001   5.275   3.693  17.064  1.1296  0.6426 -0.4640
  862TIP3    H224002   5.161   3.664  16.969  0.7392 -0.0794  0.2165
  863TIP3   OH224003   0.685   4.604  12.613  0.2669  0.0149 -0.0622
  863TIP3    H124004   0.776   4.610  12.584 -0.6378  3.8416 -2.8819
  863TIP3    H224005   0.634   4.597  12.532 -2.0723  1.1110  1.1950
  864TIP3   OH224006   1.560   4.933   0.916 -0.0685  0.0724  0.1767
  864TIP3    H124007   1.607   4.903   0.994  0.6177 -0.3904 -0.3947
  864TIP3    H224008   1.525   5.018   0.939  4.2005  2.2806 -0.5129
  865TIP3   OH224009   0.716   3.633  12.983 -0.1006  0.1157  0.0621
  865TIP3    H124010   0.714   3.575  12.907 -1.8247 -0.1104  0.2421
  865TIP3    H224011   0.809   3.644  13.002  0.3464 -3.9428  1.0827
  866TIP3   OH224012   3.879   4.030   6.113  0.3024  0.0131  0.7855
  866TIP3    H124013   3.878   4.015   6.207 -1.6336  4.4084  1.7174
  866TIP3    H224014   3.961   4.076   6.096 -0.4577  1.4970  0.9195
  867TIP3   OH224015   4.570   2.297   6.006  0.0215  0.7526  0.2305
  867TIP3    H124016   4.542   2.230   6.068  2.2635  0.2365  0.7457
  867TIP3    H224017   4.540   2.264   5.921 -1.3062  0.4798  0.7762
  868TIP3   OH224018   6.315   0.134   5.135 -0.2622 -0.2711 -0.1407
  868TIP3    H124019   6.258   0.123   5.060 -1.2692  1.1335  0.3872
  868TIP3    H224020   6.310   0.227   5.156  0.3651 -0.5496  1.3727
  869TIP3   OH224021   0.215   1.783  15.458 -0.0417 -0.0954 -0.0488
  869TIP3    H124022   0.127   1.782  15.497 -0.9917  1.0981 -2.0137
  869TIP3    H224023   0.273   1.806  15.531 -1.6236  1.1684  0.8879
  870TIP3   OH224024   1.317   0.317   1.823 -0.6908  0.2485 -0.9615
  870TIP3    H124025   1.255   0.355   1.885 -0.1155  1.2433 -0.9927
  870TIP3    H224026   1.278   0.232   1.800 -0.6834 -0.3556  1.0873
  871TIP3   OH224027   2.724   0.562   3.438 -0.2788 -0.3541  0.0163
  871TIP3    H124028   2.803   0.517   3.408 -0.6296 -0.6424 -0.4785
  871TIP3    H224029   2.653   0.526   3.385 -0.4989  1.1747 -0.7841
  872TIP3   OH224030   2.705   1.192  13.005 -0.5277 -0.4926 -0.3686
  872TIP3    H124031   2.745   1.124  13.060 -0.4718 -0.0481  0.1527
  872TIP3    H224032   2.757   1.271  13.024 -0.6041 -0.3017 -0.9520
  873TIP3   OH224033   4.687   5.269   1.623  0.0695  0.4083  0.0245
  873TIP3    H124034   4.632   5.345   1.640  0.5491  0.4033  1.8155
  873TIP3    H224035   4.741   5.260   1.701  0.4443 -1.4259 -0.3817
  874TIP3   OH224036   4.849   6.147  14.448 -0.2755  0.3266 -0.2652
  874TIP3    H124037   4.836   6.052  14.453 -0.9688  0.3810 -0.8155
  874TIP3    H224038   4.943   6.159  14.457 -0.0116 -0.5269 -1.5562
  875TIP3   OH224039   1.297   4.384  16.873 -0.0079 -0.3414  0.0737
  875TIP3    H124040   1.229   4.347  16.818 -0.1927  0.6351 -0.3608
  875TIP3    H224041   1.378   4.372  16.823 -0.0406 -0.3173  0.0160
  876TIP3   OH224042   6.129   1.446  16.586  0.1931 -0.2878  0.6722
  876TIP3    H124043   6.218   1.454  16.552  0.3328  0.5242  1.1921
  876TIP3    H224044   6.096   1.536  16.589 -1.6078 -0.7373 -1.9626
  877TIP3   OH224045   0.927   2.128  14.311  0.3418 -0.7981  0.2116
  877TIP3    H124046   1.021   2.108  14.305  0.6219  0.5831 -0.5538
  877TIP3    H224047   0.902   2.100  14.399  0.7883 -3.8114 -0.4919
  878TIP3   OH224048   3.810   2.238   1.243  0.0250  0.7935 -0.9543
  878TIP3    H124049   3.738   2.182   1.274  0.1999  0.6530 -0.7945
  878TIP3    H224050   3.886   2.206   1.291  0.0079  1.5898 -0.3798
  879TIP3   OH224051   5.717   0.877  15.313  0.5074 -0.0185 -0.0871
  879TIP3    H124052   5.776   0.809  15.279  2.2193 -0.2085  2.9379
  879TIP3    H224053   5.650   0.828  15.361 -0.3345  0.3449 -0.8632
  880TIP3   OH224054   1.695   2.093   5.075 -0.2084 -0.5408 -0.0168
  880TIP3    H124055   1.647   2.086   4.993  2.2264 -2.5704 -1.4294
  880TIP3    H224056   1.660   2.022   5.129  1.3610 -2.3652 -1.2443
  881TIP3   OH224057   3.655   3.381   4.238 -0.9413 -0.1335 -0.0945
  881TIP3    H124058   3.695   3.464   4.213  1.7877 -1.2409  0.2297
  881TIP3    H224059   3.660   3.328   4.158 -1.0586 -0.5521  0.1777
  882TIP3   OH224060   6.447   2.926  12.968 -0.4337 -0.1513  0.0510
  882TIP3    H124061   6.489   3.009  12.991 -1.9457  0.6001  0.1891
  882TIP3    H224062   6.391   2.947  12.894 -0.5465 -1.1394 -0.1484
  883TIP3   OH224063   4.883   0.675  12.998 -0.1894  0.0946  0.4018
  883TIP3    H124064   4.979   0.670  12.999 -0.1737  0.3684  1.7276
  883TIP3    H224065   4.861   0.682  12.905  1.0145 -0.9628  0.0042
  884TIP3   OH224066   1.701   3.898  15.265 -0.2120 -0.1416 -0.3199
  884TIP3    H124067   1.772   3.940  15.312 -0.4273  0.7020 -0.7358
  884TIP3    H224068   1.739   3.872  15.181 -0.3164  0.0175 -0.4153
  885TIP3   OH224069   0.016   2.877   0.132 -0.3997 -0.3211  0.3763
  885TIP3    H124070   0.004   2.964   0.094 -1.6053 -0.0452  1.3045
  885TIP3    H224071   0.051   2.824   0.061  0.4650  0.9349 -0.1778
  886TIP3   OH224072   3.000   2.497   5.932 -0.0353  0.5455  0.3477
  886TIP3    H124073   2.940   2.423   5.936  0.1938 -0.1239 -3.9009
  886TIP3    H224074   3.085   2.460   5.956 -0.2817 -0.0705  0.2916
  887TIP3   OH224075   1.673   4.866  13.525  0.4937 -0.0147 -0.0183
  887TIP3    H124076   1.768   4.873  13.518  0.2749  2.9831 -1.3360
  887TIP3    H224077   1.653   4.895  13.614  0.8130 -1.8017  0.6848
  888TIP3   OH224078   4.512   6.223  13.060  0.3124  0.1792 -0.0082
  888TIP3    H124079   4.535   6.143  13.109  1.4149  0.5851  0.1598
  888TIP3    H224080   4.565   6.219  12.981 -1.1568 -0.2597 -1.0143
  889TIP3   OH224081   4.969   2.499  11.946 -0.3702 -0.3696  0.1881
  889TIP3    H124082   4.946   2.488  11.854  1.9548  2.2019 -0.8493
  889TIP3    H224083   5.054   2.456  11.956  0.4614  1.2276  0.4703
  890TIP3   OH224084   0.869   1.582   6.269  0.2698  0.1837 -0.3484
  890TIP3    H124085   0.821   1.665   6.274 -0.0192  0.1491 -2.0350
  890TIP3    H224086   0.937   1.590   6.336 -0.5606  1.2262  0.4223
  891TIP3   OH224087   2.648   6.732  13.875 -0.2143 -0.2249 -0.3350
  891TIP3    H124088   2.661   6.749  13.969  1.1220  0.6531 -0.6581
  891TIP3    H224089   2.717   6.670  13.852  0.3293  0.6159 -1.0196
  892TIP3   OH224090   5.931   0.235  11.686  0.3428 -0.4028 -0.1774
  892TIP3    H124091   5.842   0.251  11.653  0.3754  0.3273  0.0554
  892TIP3    H224092   5.978   0.196  11.613  0.0943  0.1131 -0.6192
  893TIP3   OH224093   6.539   4.712  12.911 -0.7370  0.3664 -0.0306
  893TIP3    H124094   6.515   4.805  12.904  0.7404  0.7308 -0.5898
  893TIP3    H224095   6.465   4.666  12.872 -1.0268  1.3778 -0.7332
  894TIP3   OH224096   0.237   3.649   4.059  0.3392 -0.2596 -0.2293
  894TIP3    H124097   0.163   3.674   4.114  1.7025  0.9143  1.1868
  894TIP3    H224098   0.262   3.730   4.014  1.4053 -0.3685  0.1368
  895TIP3   OH224099   6.331   0.603   1.868  0.2244  0.0851 -0.4191
  895TIP3    H124100   6.357   0.680   1.918  2.3786 -0.9607  0.1774
  895TIP3    H224101   6.252   0.572   1.912  0.9333  0.3535  1.1310
  896TIP3   OH224102   0.788   1.415   2.681 -0.3717 -0.0561 -0.2891
  896TIP3    H124103   0.815   1.336   2.727 -0.8194 -0.6040 -0.9712
  896TIP3    H224104   0.718   1.388   2.623 -0.9064  0.9458 -0.1411
  897TIP3   OH224105   6.147   0.493  15.795 -0.4422 -0.0914  0.1092
  897TIP3    H124106   6.199   0.550  15.737 -0.1042 -2.1458 -1.7447
  897TIP3    H224107   6.167   0.525  15.883  1.6016  1.1219 -0.7033
  898TIP3   OH224108   4.298   4.052   0.972  0.4926  0.1248  0.1638
  898TIP3    H124109   4.297   3.967   0.929 -1.8859  0.4245 -0.4983
  898TIP3    H224110   4.378   4.094   0.940  0.5074 -0.9632 -1.3285
  899TIP3   OH224111   1.490   0.939   0.542 -0.0862 -0.2618  0.0408
  899TIP3    H124112   1.549   0.918   0.614  0.4600 -1.5416 -0.7265
  899TIP3    H224113   1.545   0.932   0.464 -0.8645  0.2143 -0.5600
  900TIP3   OH224114   6.557   5.631  12.462 -0.3977 -0.3333  0.3765
  900TIP3    H124115   6.561   5.556  12.402 -0.5291 -0.7643  0.8904
  900TIP3    H224116   6.474   5.619  12.508  0.1358 -0.5273  1.3003
  901TIP3   OH224117   4.083   5.373  11.523  0.4161  0.5805 -0.3253
  901TIP3    H124118   4.064   5.301  11.462 -0.4270 -0.2131  0.8314
  901TIP3    H224119   4.173   5.400  11.501  0.3754 -0.1307 -1.4532
  902TIP3   OH224120   0.060   6.299  11.052 -0.2177  0.4973 -0.5104
  902TIP3    H124121   0.042   6.226  10.992 -1.6178 -0.5134  1.0705
  902TIP3    H224122   0.135   6.269  11.104 -0.7351  0.2150  0.0771
  903TIP3   OH224123   5.162   5.851  12.915  0.2565  0.4332 -0.3465
  903TIP3    H124124   5.197   5.762  12.911  1.8294  0.9616  0.8746
  903TIP3    H224125   5.234   5.906  12.884 -0.2332  1.3910  0.1897
  904TIP3   OH224126   2.055   0.777  15.254  0.0941  0.4495  0.0857
  904TIP3    H124127   2.137   0.812  15.220 -0.2755  1.6939  0.4288
  904TIP3    H224128   2.045   0.818  15.340  0.0281 -1.1201  0.8681
  905TIP3   OH224129   2.693   0.008   2.412 -0.5646 -0.2388  0.2488
  905TIP3    H124130   2.682  -0.016   2.504  0.2720 -2.1519 -0.1081
  905TIP3    H224131   2.630  -0.048   2.366 -1.5463  1.2649 -0.3230
  906TIP3   OH224132   2.218   5.255  16.406  0.5188 -0.1524 -0.0624
  906TIP3    H124133   2.173   5.172  16.390 -0.8789  0.5101  0.2946
  906TIP3    H224134   2.148   5.321  16.407  1.3113  0.7414  1.8513
  907TIP3   OH224135   4.951   3.376  14.404  0.0772 -0.2297  0.1535
  907TIP3    H124136   4.965   3.348  14.314  0.4873  3.1994 -1.0212
  907TIP3    H224137   4.857   3.387  14.412  0.0006 -0.9442  0.3241
  908TIP3   OH224138   4.246   3.283   4.995 -0.1222  0.0871 -0.0718
  908TIP3    H124139   4.233   3.355   5.057  1.3075 -1.1667  1.8405
  908TIP3    H224140   4.246   3.324   4.909 -0.7525  2.1485  0.8512
  909TIP3   OH224141   6.169   1.506  13.605  0.3403  0.5962  0.0051
  909TIP3    H124142   6.078   1.476  13.612 -0.5146  2.9460 -0.1536
  909TIP3    H224143   6.212   1.439  13.552 -1.2380 -0.6537  0.2092
  910TIP3   OH224144   5.897   5.525  14.203 -0.3362  0.0985 -0.5988
  910TIP3    H124145   5.948   5.577  14.141  0.8862  1.0769  1.1342
  910TIP3    H224146   5.896   5.437  14.165  1.7675  0.2845 -1.2475
  911TIP3   OH224147   0.459   2.167  13.228 -0.2007 -0.0583 -0.0306
  911TIP3    H124148   0.433   2.106  13.296 -0.2961 -2.1587 -1.8422
  911TIP3    H224149   0.376   2.192  13.186 -0.0297  0.1433 -0.2529
  912TIP3   OH224150   5.157   0.214   0.694  0.5277  0.6993 -0.0328
  912TIP3    H124151   5.214   0.165   0.754 -0.0509  0.6129  0.4577
  912TIP3    H224152   5.217   0.249   0.628  1.3890  1.8155  1.2552
  913TIP3   OH224153   1.935   4.549   5.057 -0.6543 -0.1591 -0.1064
  913TIP3    H124154   1.919   4.463   5.019  0.7281 -0.0771 -0.9423
  913TIP3    H224155   1.857   4.600   5.037 -0.7563 -0.7096 -1.1520
  914TIP3   OH224156   6.693   5.482  11.947  0.1087  0.1328 -0.0063
  914TIP3    H124157   6.710   5.491  11.853  0.1778  0.3732  0.0303
  914TIP3    H224158   6.696   5.387  11.963  1.7456  0.1679  0.0690
  915TIP3   OH224159   4.040   3.938   0.837  0.4133  0.4544 -0.5652
  915TIP3    H124160   4.079   3.951   0.923 -0.3079 -0.1313 -0.1340
  915TIP3    H224161   4.102   3.978   0.776  1.4255 -0.0081  0.1361
  916TIP3   OH224162   3.059   2.002   1.789  0.0945  0.4037 -0.2096
  916TIP3    H124163   2.965   2.016   1.782 -0.2096 -1.3700 -0.2097
  916TIP3    H224164   3.094   2.032   1.705 -0.7881 -0.9590 -1.1181
  917TIP3   OH224165   1.230   4.566   5.742 -0.0542  0.0545 -0.1487
  917TIP3    H124166   1.212   4.525   5.657  0.0482  0.2325 -0.2582
  917TIP3    H224167   1.173   4.520   5.804 -0.2535  0.0357 -0.3428
  918TIP3   OH224168   3.444   0.791  15.004  0.4040  0.2700 -0.6806
  918TIP3    H124169   3.539   0.794  15.015  0.3962 -0.7229 -0.2933
  918TIP3    H224170   3.430   0.817  14.913  0.9459  1.6801 -0.3999
  919TIP3   OH224171   3.022   1.592   4.475  0.0003  0.0220 -0.2441
  919TIP3    H124172   2.945   1.549   4.437 -0.8209  0.4013  0.9267
  919TIP3    H224173   3.091   1.580   4.409 -0.8898 -0.8435 -1.0610
  920TIP3   OH224174   4.884   3.883  15.194  0.3013  0.4834 -0.9783
  920TIP3    H124175   4.917   3.956  15.246 -0.4171  0.3653 -0.3261
  920TIP3    H224176   4.882   3.916  15.104 -0.6740  1.5302 -0.6048
  921TIP3   OH224177   4.227   0.136  13.491  0.4146 -0.3448 -0.4131
  921TIP3    H124178   4.256   0.047  13.510  1.6821 -0.0696 -0.9621
  921TIP3    H224179   4.289   0.168  13.426 -0.4968  0.6715 -0.8132
  922TIP3   OH224180   4.771   5.694  16.384  0.5648 -0.3403 -0.0030
  922TIP3    H124181   4.725   5.743  16.316 -1.0108 -0.3251  1.0164
  922TIP3    H224182   4.795   5.759  16.449 -2.6397 -0.9053  1.9681
  923TIP3   OH224183   4.414   4.256   2.473 -0.0344 -0.2476 -1.0872
  923TIP3    H124184   4.437   4.343   2.439  1.1648 -0.6763 -1.4266
  923TIP3    H224185   4.329   4.268   2.514 -1.1047  0.5066 -3.3773
  924TIP3   OH224186   6.750   5.115   2.747 -0.4063  0.2483 -0.0540
  924TIP3    H124187   6.809   5.190   2.739  0.1032 -0.0197  0.9887
  924TIP3    H224188   6.697   5.118   2.668 -0.8956  2.1379  0.2909
  925TIP3   OH224189   0.364   6.589  15.711 -0.0019 -0.1691  0.1926
  925TIP3    H124190   0.447   6.544  15.727  1.1875  1.9029  0.1655
  925TIP3    H224191   0.368   6.613  15.618 -0.4867  0.2671  0.2851
  926TIP3   OH224192   1.185   4.507  12.553 -0.3059 -0.1755 -0.4620
  926TIP3    H124193   1.172   4.432  12.611 -0.2700  0.9868  1.0981
  926TIP3    H224194   1.279   4.504  12.533 -0.2561 -0.4146 -0.2135
  927TIP3   OH224195   3.637   5.445   4.495  0.5165  0.1250  0.0136
  927TIP3    H124196   3.640   5.378   4.426 -0.2908  1.1725 -1.0805
  927TIP3    H224197   3.682   5.405   4.569 -0.2332 -1.7577 -0.4887
  928TIP3   OH224198   5.900   0.678  15.496 -0.5211  0.1986 -0.2508
  928TIP3    H124199   5.943   0.715  15.573 -0.0881 -1.0001  0.1156
  928TIP3    H224200   5.809   0.708  15.501 -0.6863 -0.4840  1.1578
  929TIP3   OH224201   3.217   6.770  13.571  0.1474 -0.0660 -0.0569
  929TIP3    H124202   3.232   6.676  13.556  0.0193 -0.0758 -0.1262
  929TIP3    H224203   3.123   6.777  13.583 -0.0353  0.2367 -1.4452
  930TIP3   OH224204   2.415   0.117   4.299 -0.1504 -0.1683  0.2299
  930TIP3    H124205   2.325   0.109   4.269 -0.0710 -1.1534  0.2324
  930TIP3    H224206   2.446   0.200   4.262 -1.0175  0.1274  0.1559
  931TIP3   OH224207   6.670   0.354  13.070  0.2051 -0.2062 -0.1496
  931TIP3    H124208   6.652   0.281  13.010  1.6105  0.3087 -1.2518
  931TIP3    H224209   6.590   0.361  13.123 -1.5610 -0.0722 -2.6097
  932TIP3   OH224210   0.721   6.332  17.246  0.1967 -0.6443  0.4201
  932TIP3    H124211   0.817   6.333  17.248  0.2450 -1.2088 -0.7143
  932TIP3    H224212   0.699   6.308  17.155 -1.0286  0.8081  0.2947
  933TIP3   OH224213   5.633   5.790   1.246 -0.0873 -0.3954 -0.3557
  933TIP3    H124214   5.579   5.863   1.277  0.4264 -0.2988  0.3373
  933TIP3    H224215   5.643   5.733   1.323 -0.9188 -1.4785 -1.0141
  934TIP3   OH224216   4.483   1.680   5.892 -0.1950  0.0553  0.1375
  934TIP3    H124217   4.429   1.753   5.922  2.2378  1.7171  0.8039
  934TIP3    H224218   4.542   1.720   5.828  2.5698 -0.7925  2.0109
  935TIP3   OH224219   2.744   5.782  12.412 -0.0346  0.1698  0.0038
  935TIP3    H124220   2.783   5.828  12.338 -0.4311  0.6326  0.0843
  935TIP3    H224221   2.743   5.690  12.385 -0.8360  0.4246 -0.8493
  936TIP3   OH224222   0.633   2.591  13.256 -0.6286 -0.0906 -0.3386
  936TIP3    H124223   0.659   2.501  13.239  0.1097  0.0511  0.0302
  936TIP3    H224224   0.539   2.593  13.234 -0.7623 -1.0585  0.1116
  937TIP3   OH224225   6.687   6.485   3.705  0.2497 -0.2705 -0.4419
  937TIP3    H124226   6.733   6.541   3.642 -0.0184  0.4062 -0.0442
  937TIP3    H224227   6.745   6.409   3.716 -0.0369 -0.7539 -2.0465
  938TIP3   OH224228   0.564   5.103   1.527  0.8071  0.0913  0.1395
  938TIP3    H124229   0.503   5.041   1.568 -0.2606  0.4929 -0.7773
  938TIP3    H224230   0.650   5.063   1.539  0.2868 -0.9203  0.7159
  939TIP3   OH224231   2.223   0.058  11.709 -0.0063  0.7232  0.3199
  939TIP3    H124232   2.313   0.073  11.738  0.5361  0.5849 -1.2045
  939TIP3    H224233   2.230   0.045  11.614 -1.4867 -0.4677  0.3292
  940TIP3   OH224234   2.653   6.378   5.593  0.0392  0.7442  0.3540
  940TIP3    H124235   2.649   6.371   5.688  2.7056 -0.6118  0.4686
  940TIP3    H224236   2.628   6.291   5.562 -0.5583  1.1024 -0.2041
  941TIP3   OH224237   5.446   0.951  13.047  0.2568  0.1061 -0.3001
  941TIP3    H124238   5.452   0.856  13.057 -1.1626 -0.0665 -0.8347
  941TIP3    H224239   5.512   0.972  12.981 -0.0753 -0.6517 -0.8956
  942TIP3   OH224240   3.200   0.567  16.252 -0.1774 -0.6839  0.0589
  942TIP3    H124241   3.197   0.480  16.213  0.6519 -1.0252  0.7248
  942TIP3    H224242   3.282   0.605  16.221 -1.5903  0.8234 -2.1335
  943TIP3   OH224243   1.852   2.272   3.010  0.2797 -0.4240  0.2975
  943TIP3    H124244   1.807   2.190   2.991 -1.5653  0.3619  1.0393
  943TIP3    H224245   1.833   2.328   2.935 -0.6174  0.1417  0.9243
  944TIP3   OH224246   5.678   0.494   1.330  0.2562  0.0457  0.4740
  944TIP3    H124247   5.624   0.415   1.330 -0.7014  0.6728 -0.2252
  944TIP3    H224248   5.756   0.470   1.280  0.1093 -0.5481  0.5309
  945TIP3   OH224249   2.580   0.621  16.003 -0.2503  0.1639 -0.4331
  945TIP3    H124250   2.642   0.658  16.065  0.5464  0.0359 -1.1312
  945TIP3    H224251   2.497   0.666  16.021 -0.2271 -0.3649  1.1737
  946TIP3   OH224252   3.639   2.998   1.766 -0.2635  0.0347  0.0170
  946TIP3    H124253   3.553   3.020   1.730 -1.6611  0.2724  3.1853
  946TIP3    H224254   3.701   3.032   1.702 -2.4195 -2.0503 -3.5047
  947TIP3   OH224255   5.336   2.807   1.498 -0.3291  0.6174 -0.0073
  947TIP3    H124256   5.368   2.889   1.535  0.9149 -0.7876  2.2429
  947TIP3    H224257   5.305   2.757   1.573  0.7458 -1.7314 -1.0113
  948TIP3   OH224258   1.101   6.356   0.702  0.1028 -0.0290 -0.0666
  948TIP3    H124259   1.128   6.430   0.757  2.6634 -0.4809 -0.5672
  948TIP3    H224260   1.048   6.301   0.759  1.3269  0.3357  1.5027
  949TIP3   OH224261   1.247   3.504   1.722 -0.1825  0.3358  0.6659
  949TIP3    H124262   1.160   3.543   1.722  0.7341  2.5912  1.5662
  949TIP3    H224263   1.267   3.487   1.630 -1.0474  1.0497  0.3399
  950TIP3   OH224264   6.538   0.354   4.677  0.5182  0.4257  0.0952
  950TIP3    H124265   6.460   0.409   4.671 -0.3257 -0.8486 -0.8728
  950TIP3    H224266   6.505   0.265   4.684  1.8940 -0.1740 -0.7185
  951TIP3   OH224267   1.478   3.431  10.731 -0.3337 -0.1187 -0.1880
  951TIP3    H124268   1.511   3.377  10.659  0.0529 -1.1413  0.7152
  951TIP3    H224269   1.383   3.422  10.727 -0.4253  1.0995 -1.4968
  952TIP3   OH224270   5.905   0.594  17.262  0.3069 -0.0161 -0.1654
  952TIP3    H124271   5.994   0.618  17.237  0.7907 -0.7217  0.8169
  952TIP3    H224272   5.851   0.667  17.232  1.3941  1.0879  0.4866
  953TIP3   OH224273   0.442   6.436   1.461  0.5911  0.3407 -0.3888
  953TIP3    H124274   0.386   6.492   1.516  2.8771  1.1718  1.2307
  953TIP3    H224275   0.438   6.350   1.503 -0.8677 -0.1064 -1.3672
  954TIP3   OH224276   1.524   1.304  11.498 -0.6183  0.3027 -0.3341
  954TIP3    H124277   1.526   1.238  11.428 -2.5556 -0.0145 -0.1429
  954TIP3    H224278   1.450   1.360  11.475 -0.2591  1.1855  0.6130
  955TIP3   OH224279   1.983   6.676  15.572 -0.0974 -0.2114  0.1621
  955TIP3    H124280   1.952   6.764  15.553 -1.2682 -0.6432  0.0077
  955TIP3    H224281   2.078   6.680  15.557 -0.3260  0.6748 -1.1553
  956TIP3   OH224282   1.889   2.427   2.318 -0.6248  0.6952 -0.2041
  956TIP3    H124283   1.854   2.490   2.381 -1.0418  2.5865 -2.2245
  956TIP3    H224284   1.821   2.360   2.311 -0.9571  0.9245  0.6837
  957TIP3   OH224285   2.465   2.416  13.202  0.4223  0.2520  0.1652
  957TIP3    H124286   2.415   2.452  13.128  1.0425 -2.1839 -1.5522
  957TIP3    H224287   2.398   2.395  13.267 -0.1218  2.6232  0.4680
  958TIP3   OH224288   6.095   0.214  15.814  0.2616 -0.1296  0.5545
  958TIP3    H124289   6.148   0.293  15.807 -0.2154  0.2395  0.9241
  958TIP3    H224290   6.137   0.151  15.757 -1.1244  1.3676 -2.3853
  959TIP3   OH224291   6.316   3.170  17.299 -0.2123 -0.1099  0.0610
  959TIP3    H124292   6.381   3.129  17.243 -0.2338 -0.8318  0.5397
  959TIP3    H224293   6.239   3.180  17.244 -0.8909 -2.6167  0.4283
  960TIP3   OH224294   5.440   5.011   0.350 -0.2318  0.3830 -0.0844
  960TIP3    H124295   5.474   5.081   0.294  1.4285  1.5598  2.1939
  960TIP3    H224296   5.363   5.048   0.391  0.0742  0.5230  0.3721
  961TIP3   OH224297   2.541   1.606   4.661  0.5458 -0.3294 -0.6604
  961TIP3    H124298   2.485   1.656   4.721 -0.6532  0.7898 -2.5749
  961TIP3    H224299   2.500   1.520   4.656  0.3244 -0.2481 -0.3149
  962TIP3   OH224300   4.986   1.877  15.080 -0.7450  0.0565 -0.3974
  962TIP3    H124301   4.985   1.972  15.087 -0.5258  0.1073 -0.9678
  962TIP3    H224302   5.058   1.858  15.020  0.1004 -0.5550  0.7649
  963TIP3   OH224303   5.377   1.998   1.822  0.1370 -0.2682 -0.3322
  963TIP3    H124304   5.444   2.004   1.890 -1.6111  0.0649  1.4418
  963TIP3    H224305   5.394   1.914   1.779  1.1667 -0.5695  0.6285
  964TIP3   OH224306   5.472   3.386   4.151 -0.4959 -0.6335 -0.1090
  964TIP3    H124307   5.465   3.328   4.075 -1.1516 -1.5341  0.6059
  964TIP3    H224308   5.520   3.462   4.120 -2.6168  0.0276 -2.0414
  965TIP3   OH224309   6.682   1.236  13.405  0.0884 -0.5107 -0.1775
  965TIP3    H124310   6.640   1.152  13.386 -2.7951  0.3593  1.7718
  965TIP3    H224311   6.699   1.233  13.499  0.6007  0.8324 -0.2117
  966TIP3   OH224312   3.697   2.508  12.069 -0.0263  0.1456  0.0851
  966TIP3    H124313   3.738   2.422  12.076  0.0833  0.0951 -0.9628
  966TIP3    H224314   3.692   2.524  11.975 -0.0146  1.3011  0.2675
  967TIP3   OH224315   4.422   4.410   3.092  0.5295 -0.1156 -0.4308
  967TIP3    H124316   4.351   4.404   3.028 -1.2995  1.0534  1.3611
  967TIP3    H224317   4.417   4.329   3.142 -0.3997  0.4903  0.4909
  968TIP3   OH224318   3.541   3.095   4.654 -0.2374  0.1406  0.4967
  968TIP3    H124319   3.611   3.034   4.631 -0.0414  0.0104  1.3832
  968TIP3    H224320   3.583   3.157   4.715 -0.5838  0.8148  0.0658
  969TIP3   OH224321   4.663   1.704   2.252 -0.0622 -0.7700 -0.2360
  969TIP3    H124322   4.751   1.699   2.213  0.7960 -0.8243  1.6048
  969TIP3    H224323   4.653   1.797   2.275 -0.1619 -0.9137  0.2912
  970TIP3   OH224324   0.104   1.314  11.887 -0.0913  0.1724 -0.4866
  970TIP3    H124325   0.018   1.311  11.844 -0.9710 -1.7261  1.2070
  970TIP3    H224326   0.092   1.375  11.960  0.4438  0.9677 -1.0524
  971TIP3   OH224327   4.323   2.099  13.686 -0.2836 -0.4524  0.3448
  971TIP3    H124328   4.384   2.157  13.731  0.6925 -0.6288 -0.7105
  971TIP3    H224329   4.261   2.158  13.643 -0.0088 -0.2384  0.2477
  972TIP3   OH224330   4.085   0.363   2.791  0.3528  0.3247 -0.5074
  972TIP3    H124331   4.050   0.408   2.869  1.4333  2.1737 -1.0300
  972TIP3    H224332   4.019   0.297   2.770 -0.6100  0.6880  1.1745
  973TIP3   OH224333   5.310   5.311   1.323  0.1982 -0.0530  0.0943
  973TIP3    H124334   5.340   5.400   1.304 -1.1451  0.5837  0.8014
  973TIP3    H224335   5.323   5.301   1.417 -1.5065  0.1647  0.3849
  974TIP3   OH224336   2.234   6.293  13.980  0.5303 -0.2746  0.0061
  974TIP3    H124337   2.199   6.338  13.903 -2.2305 -2.5569 -0.2274
  974TIP3    H224338   2.282   6.219  13.944 -0.5652 -1.2106  0.4227
  975TIP3   OH224339   1.902   4.713   2.270 -0.2326 -0.3736  0.8241
  975TIP3    H124340   1.818   4.741   2.234 -0.3840 -0.0324  1.4326
  975TIP3    H224341   1.949   4.677   2.195 -2.0738 -3.4434  0.9811
  976TIP3   OH224342   3.088   2.278  11.636 -1.0208 -0.5775 -0.3386
  976TIP3    H124343   3.000   2.305  11.660  0.0217  3.4766 -0.3378
  976TIP3    H224344   3.095   2.297  11.543  0.2832  0.7938 -0.0062
  977TIP3   OH224345   0.262   2.493   2.433 -0.1104 -0.1280  0.0289
  977TIP3    H124346   0.209   2.564   2.397  0.4799  0.6469  0.6832
  977TIP3    H224347   0.344   2.534   2.459 -0.4381 -0.6812  2.0834
  978TIP3   OH224348   0.405   3.341  14.863 -0.1629  0.1715 -0.5004
  978TIP3    H124349   0.376   3.428  14.890  3.0963  2.1851 -2.7502
  978TIP3    H224350   0.384   3.338  14.769  1.2319 -0.7239 -0.8155
  979TIP3   OH224351   1.165   6.554  15.975  0.1784  0.4415  0.0924
  979TIP3    H124352   1.112   6.495  15.921  0.7992  1.6120 -1.8749
  979TIP3    H224353   1.151   6.523  16.065 -1.1641 -1.3573 -0.6813
  980TIP3   OH224354   0.448   4.242   3.989 -0.3220  0.0900 -0.0365
  980TIP3    H124355   0.369   4.191   3.973 -1.0574  0.9656  0.6595
  980TIP3    H224356   0.489   4.250   3.903 -0.4146 -1.2776 -0.2216
  981TIP3   OH224357   4.696   2.263   3.781  0.6936  0.4219 -0.1958
  981TIP3    H124358   4.777   2.312   3.769  1.4198 -0.6673  0.0607
  981TIP3    H224359   4.710   2.181   3.734 -1.2898  1.2378 -2.3695
  982TIP3   OH224360   5.275   4.513   1.293  0.3236 -0.0509  0.3894
  982TIP3    H124361   5.218   4.566   1.238  1.1484  0.1711 -0.2747
  982TIP3    H224362   5.255   4.541   1.383  1.1221  1.7922  0.0290
  983TIP3   OH224363   6.342   2.578  14.508  0.0919 -0.6621  0.1542
  983TIP3    H124364   6.287   2.580  14.430  0.2509  0.9608  0.0469
  983TIP3    H224365   6.281   2.568  14.581 -0.2096 -0.4466 -0.0679
  984TIP3   OH224366   2.430   0.945   4.670 -0.0735 -0.6058 -0.1094
  984TIP3    H124367   2.488   0.916   4.600 -0.9872 -0.2133 -1.0617
  984TIP3    H224368   2.346   0.959   4.627 -0.5457  0.0702  0.9880
  985TIP3   OH224369   3.758   3.267   1.944 -0.3208  0.3690 -0.3128
  985TIP3    H124370   3.788   3.178   1.963 -0.9460  0.0682 -0.6675
  985TIP3    H224371   3.663   3.263   1.959 -0.1195  1.4817  1.4902
  986TIP3   OH224372   2.370   2.513   4.784  0.8604  0.3902 -0.1672
  986TIP3    H124373   2.368   2.541   4.692 -0.0577 -1.0703 -0.6205
  986TIP3    H224374   2.443   2.451   4.789 -0.3396 -1.0949 -0.4242
  987TIP3   OH224375   2.931   3.195  13.197 -0.0980 -0.0914  0.3000
  987TIP3    H124376   2.974   3.115  13.166  0.2637 -0.1678  0.9939
  987TIP3    H224377   2.988   3.266  13.166 -0.3426 -0.1062 -0.1911
  988TIP3   OH224378   2.885   6.693   5.801  0.4779 -0.1511  0.1690
  988TIP3    H124379   2.799   6.715   5.836 -0.3582 -2.4879 -0.2435
  988TIP3    H224380   2.905   6.763   5.739 -1.3360  0.1987 -0.0624
  989TIP3   OH224381   6.674   6.508  15.395 -0.1599 -0.3202  0.3611
  989TIP3    H124382   6.657   6.516  15.489 -0.4300 -0.5021  0.3284
  989TIP3    H224383   6.684   6.598  15.364 -1.5410 -0.1765  0.2969
  990TIP3   OH224384   1.618   1.447  12.687 -0.1977 -0.2858 -0.3595
  990TIP3    H124385   1.545   1.402  12.730 -0.2587  0.8478  0.7894
  990TIP3    H224386   1.578   1.525  12.649 -0.1112 -1.1888 -2.4050
  991TIP3   OH224387   1.042   2.204   5.047 -0.6673 -0.4691 -0.6986
  991TIP3    H124388   1.091   2.168   4.973 -2.3304  0.2681 -2.2254
  991TIP3    H224389   1.056   2.299   5.040 -0.5011 -0.4212  0.2063
  992TIP3   OH224390   5.957   0.642   6.260  0.3930 -0.0793  0.6398
  992TIP3    H124391   5.966   0.737   6.261 -0.6193  0.0793 -1.3453
  992TIP3    H224392   5.866   0.625   6.284  0.0344 -0.4260 -0.9020
  993TIP3   OH224393   0.719   1.994   5.535  0.3484 -0.2604  0.3036
  993TIP3    H124394   0.696   2.086   5.549  1.7634  0.2111 -0.2622
  993TIP3    H224395   0.641   1.945   5.563  0.4666  0.9427  3.0642
  994TIP3   OH224396   1.580   2.294   4.181 -0.3748 -0.1116  0.2593
  994TIP3    H124397   1.573   2.267   4.272 -0.0949  1.7919  0.9013
  994TIP3    H224398   1.651   2.241   4.145 -1.5532 -2.0419  0.6594
  995TIP3   OH224399   5.006   4.816   0.041 -0.5303  0.0445 -0.3141
  995TIP3    H124400   5.090   4.861   0.042 -1.1779  1.3489 -1.2434
  995TIP3    H224401   5.016   4.748  -0.027 -0.5892  0.9956 -1.3101
  996TIP3   OH224402   6.689   0.574   6.191  0.2180  0.1290 -0.4433
  996TIP3    H124403   6.719   0.618   6.270 -1.6397  0.7786 -0.0454
  996TIP3    H224404   6.645   0.495   6.223 -0.4442  0.3341 -0.8309
  997TIP3   OH224405   1.509   4.350   4.905 -0.2772 -0.0657  0.2329
  997TIP3    H124406   1.525   4.284   4.972 -0.8093 -0.2772  0.1541
  997TIP3    H224407   1.414   4.350   4.893 -0.5849  2.4231  1.9580
  998TIP3   OH224408   1.156   0.970  16.179  0.0493  0.4399 -0.3053
  998TIP3    H124409   1.194   1.045  16.133  0.0449  0.9978  0.5709
  998TIP3    H224410   1.228   0.908  16.189  0.5401  1.1310  0.5958
  999TIP3   OH224411   1.083   4.771  16.033 -0.0085 -0.3609 -0.6090
  999TIP3    H124412   1.071   4.681  16.064  1.3813 -0.8052 -1.2666
  999TIP3    H224413   1.072   4.766  15.939  1.7461 -0.1878 -0.8484
 1000TIP3   OH224414   4.226   2.328  17.216  0.1110 -0.2491  0.2638
 1000TIP3    H124415   4.162   2.278  17.166  0.8176  0.2261 -1.1566
 1000TIP3    H224416   4.310   2.289  17.194  0.3370 -1.0424  2.3222
 1001TIP3   OH224417   0.879   4.341   1.102 -0.0830  0.0061  0.4351
 1001TIP3    H124418   0.872   4.361   1.009  1.1781  0.4931  0.4299
 1001TIP3    H224419   0.840   4.417   1.146 -2.8546 -1.2193  0.3305
 1002TIP3   OH224420   6.265   6.622   0.909 -0.0671 -0.1512 -0.4157
 1002TIP3    H124421   6.249   6.635   1.002 -0.1709  0.3656 -0.5034
 1002TIP3    H224422   6.324   6.547   0.905  0.3379  0.1317  0.0935
 1003TIP3   OH224423   4.702   6.084  15.171  0.3829  0.2566 -0.6550
 1003TIP3    H124424   4.797   6.089  15.176  0.5695 -1.2790 -1.7851
 1003TIP3    H224425   4.685   6.000  15.127 -1.4853  0.5009 -0.4758
 1004TIP3   OH224426   6.606   2.541   4.011 -0.1810 -0.2501  0.1759
 1004TIP3    H124427   6.512   2.541   4.032 -0.3195  1.8072 -0.2067
 1004TIP3    H224428   6.613   2.486   3.933 -0.5873 -2.8122  1.8518
 1005TIP3   OH224429   1.984   6.599   0.568 -0.2722  0.3277 -0.1246
 1005TIP3    H124430   2.072   6.562   0.569 -0.1945  0.4160 -1.5517
 1005TIP3    H224431   1.952   6.582   0.480 -1.9703 -0.3278  0.5817
 1006TIP3   OH224432   0.108   0.260  14.790  0.3611  0.0212 -0.1596
 1006TIP3    H124433   0.125   0.169  14.764 -1.0415 -0.1061 -0.7095
 1006TIP3    H224434   0.195   0.299  14.796  0.9526 -1.1542 -0.6706
 1007TIP3   OH224435   4.621   2.147   4.621 -0.0587 -0.4904  0.3678
 1007TIP3    H124436   4.699   2.167   4.570 -0.6132 -0.1457 -0.3547
 1007TIP3    H224437   4.611   2.052   4.614 -1.3178 -0.2548 -1.9687
 1008TIP3   OH224438   4.849   0.647   1.124 -0.0987  0.3231  0.1769
 1008TIP3    H124439   4.824   0.739   1.138 -2.0328 -0.1192 -0.1499
 1008TIP3    H224440   4.874   0.643   1.032 -0.3951  0.4357  0.0919
 1009TIP3   OH224441   0.630   0.094   1.527  0.5929  0.4562 -0.1114
 1009TIP3    H124442   0.548   0.112   1.573  0.3419  1.6761 -0.9986
 1009TIP3    H224443   0.684   0.050   1.592  0.0864  1.7343  1.2273
 1010TIP3   OH224444   2.352   6.634   2.521  0.1770 -0.2113 -0.3364
 1010TIP3    H124445   2.442   6.602   2.526  0.0991 -0.3859 -0.0316
 1010TIP3    H224446   2.300   6.568   2.566  0.1325  0.8031  1.1614
 1011TIP3   OH224447   1.636   6.760   5.706  0.2422 -0.0480 -0.3393
 1011TIP3    H124448   1.637   6.764   5.801  1.0983 -1.1515 -0.2864
 1011TIP3    H224449   1.543   6.770   5.683 -0.3124 -2.1955  0.7493
 1012TIP3   OH224450   4.789   5.596   0.802  0.3276  0.4170  0.4814
 1012TIP3    H124451   4.765   5.657   0.732  1.8554 -0.3431 -0.7697
 1012TIP3    H224452   4.883   5.608   0.813  0.0689  0.9056  2.8564
 1013TIP3   OH224453   2.979   0.923  13.790  0.0625 -0.2469  0.4333
 1013TIP3    H124454   3.050   0.877  13.745 -1.5425 -1.2583 -1.2044
 1013TIP3    H224455   2.964   0.872  13.869  0.7980 -0.3339  0.5233
 1014TIP3   OH224456   0.396   2.179   0.169 -0.9374  0.0396 -0.0580
 1014TIP3    H124457   0.359   2.226   0.243 -2.3857  0.7542 -1.1952
 1014TIP3    H224458   0.397   2.087   0.197 -0.9338  0.3583  1.0386
 1015TIP3   OH224459   2.676   5.321  11.275  0.7297  0.6488 -0.2443
 1015TIP3    H124460   2.621   5.326  11.353 -0.8256 -3.1360 -0.8726
 1015TIP3    H224461   2.759   5.285  11.306 -0.0437 -1.2862 -0.3035
 1016TIP3   OH224462   4.054   4.649  12.469  0.3811 -0.2056 -0.0127
 1016TIP3    H124463   4.135   4.657  12.519  0.9843 -1.1171 -0.7892
 1016TIP3    H224464   4.081   4.666  12.378 -0.4733  0.3487 -0.1704
 1017TIP3   OH224465   3.489   3.254   6.309 -0.0361 -0.3208 -0.1396
 1017TIP3    H124466   3.567   3.198   6.309  0.1306 -0.0899 -0.4224
 1017TIP3    H224467   3.523   3.343   6.300 -0.3645 -0.2653 -0.9294
 1018TIP3   OH224468   3.192   2.078  16.583  0.0386  0.2869  0.1313
 1018TIP3    H124469   3.262   2.013  16.579  2.3958  2.3237  3.1402
 1018TIP3    H224470   3.155   2.067  16.671  0.5945  2.8949  0.7902
 1019TIP3   OH224471   3.832   0.316  12.406 -0.2232 -0.2022 -0.4104
 1019TIP3    H124472   3.814   0.320  12.500 -0.6242  0.2599 -0.5005
 1019TIP3    H224473   3.764   0.259  12.371  0.4423 -1.0759 -0.3061
 1020TIP3   OH224474   6.309   1.561  12.541  0.4137 -0.4171 -0.2619
 1020TIP3    H124475   6.299   1.475  12.581 -2.5435 -0.0267  0.0673
 1020TIP3    H224476   6.348   1.543  12.455  1.3860 -1.8775  0.4542
 1021TIP3   OH224477   1.590   1.565   3.614  0.4373 -0.0880 -0.3774
 1021TIP3    H124478   1.508   1.517   3.625  0.3153  0.2585  0.3508
 1021TIP3    H224479   1.658   1.506   3.647  0.3788 -0.0639 -0.2116
 1022TIP3   OH224480   0.275   3.792   0.571  0.5527 -0.1277  0.1964
 1022TIP3    H124481   0.276   3.698   0.587  1.4303 -0.0154  0.8524
 1022TIP3    H224482   0.312   3.802   0.484  0.1731 -0.4074  0.0011
 1023TIP3   OH224483   1.253   5.218  17.043 -0.2497 -0.4138  0.1502
 1023TIP3    H124484   1.173   5.190  16.999 -0.8031 -1.2894  1.6575
 1023TIP3    H224485   1.239   5.311  17.062 -1.3100 -0.7828  1.2257
 1024TIP3   OH224486   2.641   2.305  11.860  0.0228  0.4334 -0.8271
 1024TIP3    H124487   2.551   2.271  11.858 -0.6478  1.5183  2.7835
 1024TIP3    H224488   2.630   2.400  11.856  1.0249  0.5642 -0.5593
 1025TIP3   OH224489   3.809   5.789   6.079  0.1731 -0.3618 -0.2547
 1025TIP3    H124490   3.884   5.782   6.138 -0.5465  1.2132  0.9320
 1025TIP3    H224491   3.745   5.840   6.128 -2.0942 -2.4799 -0.8415
 1026TIP3   OH224492   1.759   4.520   0.762  0.8143  0.0878  0.4095
 1026TIP3    H124493   1.674   4.481   0.747  0.3501 -0.3729  3.5806
 1026TIP3    H224494   1.783   4.559   0.678 -3.0261  1.2520 -0.3287
 1027TIP3   OH224495   2.130   1.238  11.716 -0.6884 -0.1100 -0.4645
 1027TIP3    H124496   2.074   1.168  11.750 -2.2465  0.0555 -2.4749
 1027TIP3    H224497   2.076   1.280  11.649  1.7566  0.2542 -2.3235
 1028TIP3   OH224498   6.359   3.340  12.342  0.2384  0.3568 -0.5567
 1028TIP3    H124499   6.283   3.320  12.286  0.0454  0.3477 -0.2922
 1028TIP3    H224500   6.358   3.271  12.408 -0.3795  1.1726  0.3140
 1029TIP3   OH224501   2.539   6.654   5.035  0.0246  0.3143  0.7236
 1029TIP3    H124502   2.533   6.559   5.024 -1.1277  0.1935  2.0698
 1029TIP3    H224503   2.531   6.689   4.946  0.8121 -0.8486  0.1742
 1030TIP3   OH224504   0.541   6.085   4.235 -0.2951  0.1597  0.1314
 1030TIP3    H124505   0.462   6.138   4.250 -1.6883 -1.7704  0.0622
 1030TIP3    H224506   0.507   6.001   4.203  1.8637 -0.4776 -0.6215
 1031TIP3   OH224507   3.190   5.249   1.571  0.3099 -0.2917  0.2746
 1031TIP3    H124508   3.238   5.177   1.613 -0.1893 -0.2907  0.8472
 1031TIP3    H224509   3.109   5.256   1.621  0.8609  1.4657  0.9911
 1032TIP3   OH224510   2.993   1.358  16.187 -0.1127  0.0066 -0.5476
 1032TIP3    H124511   3.045   1.434  16.160  1.0688 -0.3752  0.5469
 1032TIP3    H224512   2.926   1.350  16.119  1.0064  0.7742 -1.8049
 1033TIP3   OH224513   2.849   5.239   5.213 -0.1272 -0.2069  0.0926
 1033TIP3    H124514   2.915   5.181   5.176  0.8953  0.9673  0.0026
 1033TIP3    H224515   2.861   5.322   5.166  0.3403  0.9368  2.1228
 1034TIP3   OH224516   0.939   5.598   4.979 -0.2748 -0.6095  0.2304
 1034TIP3    H124517   0.887   5.524   5.009 -1.5371 -0.4800 -1.5056
 1034TIP3    H224518   1.030   5.567   4.983 -0.5087 -1.1851  2.3284
 1035TIP3   OH224519   4.150   2.361  14.011  0.2009  0.3972  0.2429
 1035TIP3    H124520   4.118   2.390  14.097 -0.9859 -0.8776  0.2685
 1035TIP3    H224521   4.144   2.439  13.956 -0.1817  0.9276  1.0125
 1036TIP3   OH224522   6.368   2.642   0.208 -0.1647  0.1138  0.5046
 1036TIP3    H124523   6.440   2.579   0.215  0.1045  0.3409 -0.1606
 1036TIP3    H224524   6.346   2.663   0.298 -0.7958 -1.5509  0.7851
 1037TIP3   OH224525   6.175   4.930   4.271  0.1652 -0.0441 -0.4662
 1037TIP3    H124526   6.146   4.978   4.193  0.1108  1.3895  0.3945
 1037TIP3    H224527   6.098   4.926   4.327  0.4447 -0.2222 -0.0890
 1038TIP3   OH224528   5.360   3.310   0.544 -0.1378  0.2201 -0.5183
 1038TIP3    H124529   5.308   3.360   0.480 -0.7962  1.7706  1.1499
 1038TIP3    H224530   5.420   3.374   0.581  1.9967 -1.2243 -1.3228
 1039TIP3   OH224531   4.722   0.526   6.521 -0.0545 -0.5214  0.5553
 1039TIP3    H124532   4.782   0.542   6.448  1.9709 -1.7134  1.8568
 1039TIP3    H224533   4.654   0.593   6.511  1.5511  0.9928 -0.9203
 1040TIP3   OH224534   2.921   5.817  15.836 -0.0443 -0.1537 -0.4452
 1040TIP3    H124535   2.873   5.895  15.863  0.6576  0.4302 -0.8546
 1040TIP3    H224536   2.874   5.745  15.877 -1.8653  0.2975 -1.6012
 1041TIP3   OH224537   5.867   1.255  10.276 -0.5571 -1.0087 -0.0912
 1041TIP3    H124538   5.948   1.207  10.259 -0.5361 -2.2616  2.8258
 1041TIP3    H224539   5.896   1.342  10.304 -0.3195 -0.9193 -0.6086
 1042TIP3   OH224540   2.688   0.235  11.591 -0.0269  0.1460 -0.1818
 1042TIP3    H124541   2.706   0.290  11.667 -1.4558 -1.8866  1.7629
 1042TIP3    H224542   2.593   0.231  11.587  0.0366 -1.4275 -0.7933
 1043TIP3   OH224543   1.706   6.259  10.783 -0.4486 -0.2435  0.5522
 1043TIP3    H124544   1.776   6.319  10.807 -0.1540 -0.2605 -0.2574
 1043TIP3    H224545   1.716   6.246  10.689 -1.5488 -0.2274  0.4174
 1044TIP3   OH224546   4.842   5.647   4.953  0.0176  0.2455 -0.0594
 1044TIP3    H124547   4.821   5.568   5.003 -4.0048 -0.1178 -1.9448
 1044TIP3    H224548   4.821   5.719   5.013  2.0723 -0.0288  1.0787
 1045TIP3   OH224549   6.330   3.228   5.633 -0.1404 -0.0504 -0.0613
 1045TIP3    H124550   6.313   3.142   5.596  0.5318 -0.5813  0.8236
 1045TIP3    H224551   6.289   3.227   5.719  0.5969  0.1967  0.3071
 1046TIP3   OH224552   6.054   2.059  11.140  0.6790  0.0832  0.8021
 1046TIP3    H124553   6.061   2.149  11.171 -0.9635  0.3392  0.5367
 1046TIP3    H224554   6.089   2.061  11.051 -0.6897  0.8210  0.2438
 1047TIP3   OH224555   3.137   1.454   6.661 -0.0706 -0.8714  0.3195
 1047TIP3    H124556   3.208   1.434   6.599  0.1594 -1.5831  0.7955
 1047TIP3    H224557   3.140   1.549   6.671  0.6226 -0.8619  0.0996
 1048TIP3   OH224558   3.726   0.811   2.357 -0.1094  0.1779  0.0241
 1048TIP3    H124559   3.700   0.809   2.449 -1.1050  0.3837 -0.2365
 1048TIP3    H224560   3.697   0.726   2.323 -2.7234  1.3251 -0.8403
 1049TIP3   OH224561   6.715   0.700  11.938 -0.2076  0.2899  0.1255
 1049TIP3    H124562   6.753   0.704  11.850  0.9994 -4.0385  0.2081
 1049TIP3    H224563   6.769   0.759  11.990  0.8695  0.8240 -1.4998
 1050TIP3   OH224564   1.682   5.196   1.096  0.5410  0.0193  0.7231
 1050TIP3    H124565   1.658   5.130   1.161 -1.5054 -1.1007 -1.0888
 1050TIP3    H224566   1.764   5.163   1.058 -0.2578 -1.3146  0.1009
 1051TIP3   OH224567   3.711   5.219   4.021  0.0662  0.4853  0.0821
 1051TIP3    H124568   3.728   5.197   4.113 -0.0420  2.3879  0.6076
 1051TIP3    H224569   3.791   5.262   3.991 -0.4040  1.1350 -0.2711
 1052TIP3   OH224570   0.815   5.382   3.197 -0.1965  0.1259 -0.0844
 1052TIP3    H124571   0.900   5.365   3.240 -0.9611  0.3004  1.5856
 1052TIP3    H224572   0.792   5.299   3.156  0.5280 -0.0852 -0.0784
 1053TIP3   OH224573   1.361   5.502   3.668 -0.1821  1.0695 -0.5164
 1053TIP3    H124574   1.388   5.592   3.652  0.4219  0.8983 -0.4946
 1053TIP3    H224575   1.364   5.492   3.763  1.3812  0.5516 -0.5934
 1054TIP3   OH224576   3.004   0.970   5.125 -0.0316  0.0769 -0.1042
 1054TIP3    H124577   2.916   0.945   5.098  0.2418 -1.1299  0.0330
 1054TIP3    H224578   3.045   0.887   5.152  0.9849  0.6819  0.2817
 1055TIP3   OH224579   5.170   1.976  10.676 -0.6916  0.6917  0.2546
 1055TIP3    H124580   5.140   1.898  10.723  0.1414  0.4281  0.3702
 1055TIP3    H224581   5.181   2.042  10.744  0.5575  0.2970  0.4627
 1056TIP3   OH224582   2.996   3.223   3.776 -0.2406 -0.6475 -0.2844
 1056TIP3    H124583   2.953   3.163   3.836 -2.0681 -1.5663 -2.3586
 1056TIP3    H224584   2.996   3.307   3.822 -1.0936 -1.4147  1.1843
 1057TIP3   OH224585   0.720   1.317  15.061  0.1792  0.0071  0.3143
 1057TIP3    H124586   0.725   1.296  14.967  0.9728  2.1710 -0.1831
 1057TIP3    H224587   0.691   1.235  15.102 -2.5871 -0.3932 -2.0802
 1058TIP3   OH224588   5.658   3.728   4.967 -0.6727 -0.2627 -0.4207
 1058TIP3    H124589   5.567   3.744   4.991 -0.7623 -1.7597  0.3404
 1058TIP3    H224590   5.653   3.678   4.886 -0.6064 -1.4571  0.2789
 1059TIP3   OH224591   1.231   0.434  12.235  0.2480 -0.4990  0.3075
 1059TIP3    H124592   1.302   0.418  12.172 -0.8363 -2.3981 -0.5036
 1059TIP3    H224593   1.252   0.378  12.310  0.0571 -0.3971  0.4386
 1060TIP3   OH224594   1.292   3.310  16.791 -0.2140 -0.4869 -0.2380
 1060TIP3    H124595   1.379   3.339  16.764 -0.4876 -0.8655 -1.6283
 1060TIP3    H224596   1.284   3.222  16.754 -1.4602 -0.1611 -0.7736
 1061TIP3   OH224597   6.668   0.647  14.493 -0.2059  0.0546 -0.1628
 1061TIP3    H124598   6.737   0.651  14.427 -0.6518 -3.1336 -1.0164
 1061TIP3    H224599   6.709   0.603  14.568 -1.1983 -1.9876 -0.7237
 1062TIP3   OH224600   5.127   0.706  14.706  0.4053 -0.2479 -0.5522
 1062TIP3    H124601   5.220   0.682  14.708  0.1116 -1.3677  0.9575
 1062TIP3    H224602   5.104   0.722  14.797 -0.9390 -0.1660 -0.8814
 1063TIP3   OH224603   5.118   5.396  13.342 -0.3315 -0.8369 -0.5510
 1063TIP3    H124604   5.182   5.410  13.412 -0.3194 -0.1908 -0.6810
 1063TIP3    H224605   5.082   5.483  13.325 -1.9098 -1.3409  0.1394
 1064TIP3   OH224606   5.887   0.382   5.030 -0.6633  0.1327 -0.2277
 1064TIP3    H124607   5.877   0.305   4.973 -1.2095 -0.6480  0.8952
 1064TIP3    H224608   5.915   0.452   4.970 -0.1904 -0.9172 -1.2831
 1065TIP3   OH224609   5.569   1.323  12.439  0.7536 -0.2000  0.0774
 1065TIP3    H124610   5.560   1.351  12.348 -1.7127  1.7825  0.8271
 1065TIP3    H224611   5.628   1.387  12.478  1.6477 -0.9300 -0.0620
 1066TIP3   OH224612   1.693   4.173   0.691 -0.8431  0.7861 -1.2247
 1066TIP3    H124613   1.646   4.155   0.772 -1.1908  1.4485 -1.2660
 1066TIP3    H224614   1.682   4.094   0.638  1.0704 -0.4521  0.1135
 1067TIP3   OH224615   2.006   5.417  16.470 -0.2528  0.5934 -0.2675
 1067TIP3    H124616   2.004   5.349  16.537  2.2420 -1.8376 -2.4125
 1067TIP3    H224617   2.015   5.499  16.518 -0.7270 -0.7959  2.3552
 1068TIP3   OH224618   0.917   6.501   0.905 -0.6848 -0.0049 -0.4306
 1068TIP3    H124619   0.843   6.547   0.943  2.2090  2.1926  3.3808
 1068TIP3    H224620   0.937   6.432   0.969 -0.1260 -1.3582 -1.9931
 1069TIP3   OH224621   0.675   6.253   6.240  0.0182 -0.1981  0.5047
 1069TIP3    H124622   0.580   6.265   6.248  0.1244  0.4554  0.8822
 1069TIP3    H224623   0.702   6.218   6.324  0.2071  0.2902  0.6508
 1070TIP3   OH224624   6.300   0.276   0.053 -0.2755 -0.2110 -0.3650
 1070TIP3    H124625   6.322   0.369   0.059  0.6135 -0.3564 -1.1066
 1070TIP3    H224626   6.266   0.266  -0.036  0.1427 -0.6855 -0.4763
 1071TIP3   OH224627   6.440   1.083  16.043  0.1286 -0.2637 -0.6418
 1071TIP3    H124628   6.482   1.088  16.129  0.6648  2.6881 -0.9436
 1071TIP3    H224629   6.347   1.097  16.062  0.2821  0.6892 -0.5016
 1072TIP3   OH224630   5.137   3.291   2.008  0.0877 -0.8480 -0.7734
 1072TIP3    H124631   5.106   3.214   1.961  2.6367 -1.6687 -1.2669
 1072TIP3    H224632   5.230   3.274   2.023  0.6942  2.0523 -0.7141
 1073TIP3   OH224633   6.710   5.511   5.849  0.1584 -0.1714 -0.4228
 1073TIP3    H124634   6.638   5.452   5.873  0.7659 -0.2925  1.1788
 1073TIP3    H224635   6.695   5.530   5.756 -0.6835 -1.9457 -0.6879
 1074TIP3   OH224636   4.299   1.726   1.450  0.0919 -0.1885 -0.1554
 1074TIP3    H124637   4.352   1.806   1.452 -1.3462  0.7962 -0.1930
 1074TIP3    H224638   4.311   1.691   1.362 -0.2020  0.6500 -0.5381
 1075TIP3   OH224639   5.992   4.373  13.373 -0.4543  0.4904 -0.3018
 1075TIP3    H124640   5.914   4.339  13.329 -1.1678  0.8223  0.6701
 1075TIP3    H224641   6.042   4.295  13.397 -1.2062  0.1860  0.3392
 1076TIP3   OH224642   3.890   1.161  16.830 -0.0075  0.0067 -0.2714
 1076TIP3    H124643   3.956   1.218  16.870  0.4288 -0.1114 -0.8037
 1076TIP3    H224644   3.876   1.198  16.743 -2.1306  1.2173  0.5055
 1077TIP3   OH224645   0.050   2.158   0.350 -0.0139  0.1292 -0.0751
 1077TIP3    H124646   0.097   2.157   0.434  0.8311  2.0551 -0.4860
 1077TIP3    H224647   0.026   2.066   0.336  0.5328 -0.3645  1.8681
 1078TIP3   OH224648   4.116   5.159  11.834 -0.1376 -0.4720  0.1933
 1078TIP3    H124649   4.027   5.123  11.837  0.3762 -1.8298 -0.0000
 1078TIP3    H224650   4.137   5.163  11.741 -0.3457  0.7995  0.1883
 1079TIP3   OH224651   4.539   3.749  14.515  0.3553 -0.0275  0.0908
 1079TIP3    H124652   4.456   3.795  14.507  0.1085 -0.6449 -1.2723
 1079TIP3    H224653   4.577   3.780  14.597 -1.8873 -0.8359  1.5188
 1080TIP3   OH224654   4.173   1.845   6.217  0.0306 -0.4768 -0.1903
 1080TIP3    H124655   4.182   1.830   6.311  4.3400  1.4593 -0.0176
 1080TIP3    H224656   4.163   1.940   6.209  1.2384 -0.4262 -1.6305
 1081TIP3   OH224657   6.537   4.979  13.586 -0.3832 -0.6058  0.3282
 1081TIP3    H124658   6.524   5.070  13.613  0.1768  0.2772 -2.1808
 1081TIP3    H224659   6.468   4.931  13.631 -1.0928  1.1408  1.2153
 1082TIP3   OH224660   4.643   0.140  13.291  0.7189 -0.1253  0.0427
 1082TIP3    H124661   4.693   0.180  13.363  0.3782 -0.0484  0.2385
 1082TIP3    H224662   4.599   0.214  13.249  0.3717 -0.2549  0.1809
 1083TIP3   OH224663   4.749   6.543  14.228 -0.2410 -0.3955  0.3721
 1083TIP3    H124664   4.698   6.596  14.289  0.6654 -0.8337  1.5675
 1083TIP3    H224665   4.840   6.565  14.249  0.1309 -1.9185  0.4492
 1084TIP3   OH224666   6.609   2.873  14.877 -0.0072  0.5827 -0.0657
 1084TIP3    H124667   6.613   2.804  14.943  1.5905  2.1516  1.5917
 1084TIP3    H224668   6.698   2.877  14.842 -0.5820  0.4696 -1.6271
 1085TIP3   OH224669   4.100   0.428  15.318  0.1721  0.0482 -0.3050
 1085TIP3    H124670   4.075   0.520  15.324  0.6039  0.2055 -0.8272
 1085TIP3    H224671   4.077   0.391  15.404  0.0552  0.6527 -0.0723
 1086TIP3   OH224672   3.966   4.000  16.166 -0.6724 -0.6976 -0.0606
 1086TIP3    H124673   4.018   3.921  16.148 -0.6915 -0.1816 -2.7130
 1086TIP3    H224674   4.026   4.059  16.211 -0.0063 -1.3690 -0.0462
 1087TIP3   OH224675   1.651   5.757   5.283 -0.1888  0.2147 -0.3726
 1087TIP3    H124676   1.643   5.852   5.290 -0.2500  0.1702  0.2405
 1087TIP3    H224677   1.573   5.724   5.328 -0.4161 -0.1229 -0.9947
 1088TIP3   OH224678   3.819   2.588  17.010 -0.2406 -0.0665 -0.5438
 1088TIP3    H124679   3.867   2.670  16.996 -1.1926  0.4076 -1.1364
 1088TIP3    H224680   3.750   2.589  16.943  0.9289 -2.2976 -1.9007
 1089TIP3   OH224681   1.922   1.666   4.349 -0.4680  0.2347  0.7910
 1089TIP3    H124682   1.975   1.739   4.319 -2.6122  1.1742 -1.0647
 1089TIP3    H224683   1.971   1.628   4.422  1.6799  2.2492  0.5027
 1090TIP3   OH224684   1.321   1.904   5.335 -0.0738  0.2519  0.4351
 1090TIP3    H124685   1.228   1.887   5.349  0.1180  0.2953  1.8600
 1090TIP3    H224686   1.332   1.996   5.358  0.4705  0.0325  1.0639
 1091TIP3   OH224687   6.395   6.727  13.898 -0.4851 -0.6229 -0.5374
 1091TIP3    H124688   6.442   6.749  13.818  2.3544 -1.0594  0.8729
 1091TIP3    H224689   6.461   6.732  13.967 -2.2742 -2.4018  1.4876
 1092TIP3   OH224690   6.613   4.140   0.462 -0.2337 -1.0331  0.2368
 1092TIP3    H124691   6.699   4.158   0.501 -0.5994 -0.8299  0.9764
 1092TIP3    H224692   6.630   4.074   0.395  0.4193 -1.4198  0.7687
 1093TIP3   OH224693   1.395   3.627  12.011 -0.1939 -0.2383  0.4808
 1093TIP3    H124694   1.442   3.658  12.089 -0.6659  1.0562  0.2812
 1093TIP3    H224695   1.419   3.689  11.942 -2.0628  0.4174  0.3518
 1094TIP3   OH224696   0.614   3.258  16.357  0.4009  0.3735 -0.3622
 1094TIP3    H124697   0.567   3.191  16.307  0.7817 -0.0342 -0.1818
 1094TIP3    H224698   0.615   3.335  16.300  0.0262  0.2000 -0.6024
 1095TIP3   OH224699   2.813   0.416  12.560 -0.2655 -0.3175 -0.0418
 1095TIP3    H124700   2.755   0.454  12.626  2.3464  2.7510  0.7327
 1095TIP3    H224701   2.839   0.332  12.596 -0.6389  0.3175  1.7878
 1096TIP3   OH224702   6.558   6.474  16.320 -0.2539  0.6668 -0.3620
 1096TIP3    H124703   6.524   6.537  16.383  1.9582  1.0482  0.5425
 1096TIP3    H224704   6.538   6.512  16.234 -1.8638  0.9377  0.1152
 1097TIP3   OH224705   6.087   2.194   3.304 -0.3000 -0.2160  0.4956
 1097TIP3    H124706   6.072   2.194   3.209  2.4323 -1.2887 -0.0110
 1097TIP3    H224707   6.007   2.154   3.339 -0.8532 -0.9763 -1.4490
 1098TIP3   OH224708   1.019   4.671   4.281 -0.0654  0.0779  0.2475
 1098TIP3    H124709   0.998   4.620   4.203 -0.8099 -0.1098  0.5653
 1098TIP3    H224710   0.948   4.734   4.289  0.6056  0.8696  0.1242
 1099TIP3   OH224711   3.027   5.192  12.864  0.9764 -0.2692 -0.1581
 1099TIP3    H124712   3.101   5.253  12.857 -0.4741  1.5032 -0.7254
 1099TIP3    H224713   3.016   5.178  12.958  1.1971  0.5292 -0.0078
 1100TIP3   OH224714   4.775   1.680  12.335  0.0005  0.4675  0.1487
 1100TIP3    H124715   4.770   1.770  12.369 -1.3904  1.2540 -1.9056
 1100TIP3    H224716   4.726   1.628  12.398  0.7292  1.1626  1.3210
 1101TIP3   OH224717   6.346   5.879   3.447 -0.2536  0.0623 -0.0459
 1101TIP3    H124718   6.289   5.955   3.459 -1.3026 -0.7374  0.1855
 1101TIP3    H224719   6.430   5.906   3.484 -0.6045  1.1072  0.0220
 1102TIP3   OH224720   1.738   0.409   2.522 -0.3316  0.0171  0.5346
 1102TIP3    H124721   1.728   0.315   2.512 -0.8856 -0.1165  2.0717
 1102TIP3    H224722   1.817   0.430   2.472 -1.1276 -0.9751 -1.1885
 1103TIP3   OH224723   3.797   1.402  14.136 -0.0068  0.1103  0.0918
 1103TIP3    H124724   3.833   1.431  14.220  0.9030  0.7744 -0.5142
 1103TIP3    H224725   3.859   1.336  14.105  1.4421  2.1130 -1.5272
 1104TIP3   OH224726   5.307   2.197  13.392 -0.9462 -0.1591  0.1940
 1104TIP3    H124727   5.244   2.130  13.365 -1.4243  0.7172 -0.9026
 1104TIP3    H224728   5.287   2.273  13.338  1.7572 -0.1842 -0.9839
 1105TIP3   OH224729   0.941   3.720   2.419 -0.1176 -0.1873 -0.1512
 1105TIP3    H124730   0.900   3.806   2.432  1.5443  0.3935  1.6684
 1105TIP3    H224731   0.967   3.720   2.326  0.0032  1.3533 -0.1408
 1106TIP3   OH224732   5.598   1.265  14.572 -0.2196 -0.2833 -0.4721
 1106TIP3    H124733   5.508   1.233  14.582  0.8264 -2.8538  3.3028
 1106TIP3    H224734   5.640   1.201  14.515 -0.0907 -1.0345  0.4292
 1107TIP3   OH224735   4.049   5.602   2.252  0.1177  0.0834  0.1747
 1107TIP3    H124736   4.024   5.520   2.210  0.8245  0.6788 -1.5201
 1107TIP3    H224737   4.015   5.670   2.193  1.2814  0.9670  0.4812
 1108TIP3   OH224738   0.688   0.869  15.635 -0.2479 -0.0309 -0.0680
 1108TIP3    H124739   0.782   0.854  15.625 -0.3656  0.0886 -1.7098
 1108TIP3    H224740   0.661   0.905  15.550 -1.7324  0.1455  0.4566
 1109TIP3   OH224741   4.269   2.857   3.502 -0.0016 -0.2271  0.2043
 1109TIP3    H124742   4.320   2.831   3.579  0.3322 -1.5103 -0.4320
 1109TIP3    H224743   4.205   2.920   3.536 -0.7045 -1.7234  1.7675
 1110TIP3   OH224744   1.845   4.408   2.201  0.0797 -0.1101  0.4176
 1110TIP3    H124745   1.782   4.476   2.179 -1.1532 -0.8159  1.5992
 1110TIP3    H224746   1.926   4.455   2.221  0.1855  0.7642 -1.8297
 1111TIP3   OH224747   3.619   5.746   0.923 -0.4191  0.3995  0.4698
 1111TIP3    H124748   3.623   5.668   0.979 -1.3627 -0.2551 -0.3430
 1111TIP3    H224749   3.705   5.787   0.933 -0.0673 -0.4860  1.2716
 1112TIP3   OH224750   4.169   3.008   3.172  0.3071  0.5682 -0.2173
 1112TIP3    H124751   4.186   2.921   3.209 -1.2423  0.3795  0.0992
 1112TIP3    H224752   4.084   3.001   3.130 -0.8657  2.4531  1.6377
 1113TIP3   OH224753   6.322   5.999   3.762 -0.3079  0.4463 -0.1341
 1113TIP3    H124754   6.377   6.036   3.693 -1.3148 -1.0773 -1.8373
 1113TIP3    H224755   6.294   5.914   3.727 -1.7878  0.1451  1.6792
 1114TIP3   OH224756   3.400   1.941  15.142  0.4401  0.0539 -0.1240
 1114TIP3    H124757   3.456   1.878  15.098  0.6705  0.3554 -0.2683
 1114TIP3    H224758   3.458   1.991  15.199  0.2265 -0.0019  0.1459
 1115TIP3   OH224759   2.740   3.115  13.794 -0.0782 -0.6855 -0.2760
 1115TIP3    H124760   2.675   3.128  13.863  0.2133 -1.0970  0.0811
 1115TIP3    H224761   2.758   3.203  13.761  0.2244 -0.4203  0.5830
 1116TIP3   OH224762   5.573   6.713  12.829  0.1060 -0.1308  0.4252
 1116TIP3    H124763   5.545   6.732  12.739 -1.6390 -0.3044  0.8990
 1116TIP3    H224764   5.518   6.640  12.857  1.1640 -0.5877  1.3843
 1117TIP3   OH224765   4.775   4.149   0.646  0.2864  0.1343 -0.7191
 1117TIP3    H124766   4.856   4.099   0.645  0.5721  0.5700 -0.0228
 1117TIP3    H224767   4.802   4.239   0.665 -0.5073 -0.0457  1.5789
 1118TIP3   OH224768   2.824   5.561  14.029  0.4622 -0.2318 -0.2328
 1118TIP3    H124769   2.778   5.483  13.997  1.3418 -1.3206  1.0174
 1118TIP3    H224770   2.841   5.613  13.951 -0.6389 -1.0163 -1.0339
 1119TIP3   OH224771   2.882   2.482  15.952  0.3107  0.5614 -0.7944
 1119TIP3    H124772   2.966   2.440  15.930  2.1012  1.1419  3.7507
 1119TIP3    H224773   2.907   2.570  15.982 -2.2015  1.4145 -1.0088
 1120TIP3   OH224774   5.082   2.301   5.079  0.0794  0.1426 -0.2527
 1120TIP3    H124775   5.090   2.396   5.083 -1.3634  0.2865 -0.1138
 1120TIP3    H224776   5.160   2.272   5.031 -0.0661  1.5005 -1.3766
 1121TIP3   OH224777   5.683   3.413  11.000  0.5173  0.7158 -0.4119
 1121TIP3    H124778   5.777   3.394  10.991  0.8018  2.6039 -2.1360
 1121TIP3    H224779   5.675   3.505  10.975 -2.0375  0.1518 -1.9717
 1122TIP3   OH224780   4.946   3.605   2.868  0.0200  0.3979 -0.0767
 1122TIP3    H124781   5.008   3.638   2.933  0.6428 -1.2301  0.2215
 1122TIP3    H224782   4.989   3.527   2.832 -1.8381 -0.8292  0.1844
 1123TIP3   OH224783   4.508   1.734  16.299  0.3236  0.0237 -1.1143
 1123TIP3    H124784   4.601   1.753  16.294  0.2754  0.1316 -1.6618
 1123TIP3    H224785   4.482   1.714  16.209 -0.0268 -0.7596 -0.8483
 1124TIP3   OH224786   3.427   2.422  11.624 -0.5440 -0.2510 -0.0327
 1124TIP3    H124787   3.505   2.471  11.600 -1.5661  1.4799  0.0589
 1124TIP3    H224788   3.405   2.371  11.546  0.6201 -0.7274 -0.0722
 1125TIP3   OH224789   3.936   5.538   5.982 -0.1074  0.1545  0.0934
 1125TIP3    H124790   3.927   5.549   5.887 -0.0832  1.4077  0.2178
 1125TIP3    H224791   3.887   5.612   6.019 -0.3335 -0.4702  1.0622
 1126TIP3   OH224792   1.553   0.665   3.571  0.1800 -0.3203  0.0967
 1126TIP3    H124793   1.587   0.743   3.528 -0.9116  0.0303 -0.1650
 1126TIP3    H224794   1.474   0.643   3.522  0.5478 -1.6798  0.0886
 1127TIP3   OH224795   2.287   1.925   1.262  0.3943 -0.3058  0.1602
 1127TIP3    H124796   2.312   2.017   1.273  2.1308 -0.5658 -1.1499
 1127TIP3    H224797   2.263   1.896   1.350 -0.3025  1.4178  0.5777
 1128TIP3   OH224798   3.415   1.087   0.978  0.3335 -0.4952 -0.2478
 1128TIP3    H124799   3.360   1.011   0.999 -1.1392  0.4273 -0.6346
 1128TIP3    H224800   3.391   1.152   1.044  2.3707 -0.6826  0.7498
 1129TIP3   OH224801   3.546   4.546   5.924  0.0925  0.2011  0.1858
 1129TIP3    H124802   3.501   4.463   5.904 -1.5493  1.3673 -1.1837
 1129TIP3    H224803   3.508   4.573   6.008 -0.9629  0.6011 -0.4017
 1130TIP3   OH224804   6.077   5.279   5.118 -0.4963  0.0634  0.4073
 1130TIP3    H124805   6.073   5.365   5.076  1.7195 -0.5316 -1.2295
 1130TIP3    H224806   6.138   5.290   5.191 -0.1698 -0.1167  0.1643
 1131TIP3   OH224807   5.811   1.945  16.534 -0.0367 -0.0960  0.1967
 1131TIP3    H124808   5.846   1.924  16.448  1.7728  1.1357  0.5817
 1131TIP3    H224809   5.764   1.866  16.561  1.1120 -1.2440 -1.0560
 1132TIP3   OH224810   2.669   4.993   1.903 -0.3252  0.1669 -0.1699
 1132TIP3    H124811   2.692   5.029   1.989  1.1296 -0.3670 -0.3082
 1132TIP3    H224812   2.719   4.911   1.897 -2.6695 -1.3427 -0.3352
 1133TIP3   OH224813   1.213   5.940  15.319  0.4378  0.5996 -0.1151
 1133TIP3    H124814   1.233   6.030  15.347 -0.9146  0.1306  2.6655
 1133TIP3    H224815   1.157   5.951  15.242  2.1217  2.0430 -1.2202
 1134TIP3   OH224816   4.818   6.396   3.994 -0.4760  0.5099  0.2854
 1134TIP3    H124817   4.886   6.401   3.927 -0.8875 -0.7807 -0.2724
 1134TIP3    H224818   4.801   6.487   4.019  2.3412  0.8213  1.3903
 1135TIP3   OH224819   4.220   3.281   3.194 -0.2045 -0.1207 -0.2758
 1135TIP3    H124820   4.234   3.190   3.221 -0.5344  0.3728  1.7180
 1135TIP3    H224821   4.146   3.311   3.247  1.6488  2.1326  1.2504
 1136TIP3   OH224822   6.182   2.391  12.226  0.1739  0.0915 -0.2705
 1136TIP3    H124823   6.267   2.383  12.269 -0.3394 -2.9184  0.4605
 1136TIP3    H224824   6.196   2.356  12.138 -0.4639 -1.5916  0.2410
 1137TIP3   OH224825   2.492   4.314   4.799 -0.2533 -0.4720  0.0698
 1137TIP3    H124826   2.479   4.363   4.881 -1.3606  0.8009 -0.8377
 1137TIP3    H224827   2.582   4.282   4.805  0.4885  1.5786  0.7751
 1138TIP3   OH224828   2.642   3.324  11.527  0.9064  0.1496 -0.3477
 1138TIP3    H124829   2.703   3.313  11.601  1.6592 -0.2537 -1.0131
 1138TIP3    H224830   2.575   3.383  11.561  0.2998 -1.3355  1.2211
 1139TIP3   OH224831   3.620   5.035   5.218  0.5185  0.3954  0.2386
 1139TIP3    H124832   3.669   4.953   5.210 -1.0457 -0.3868 -3.1030
 1139TIP3    H224833   3.549   5.014   5.279  1.1066 -0.2133  0.7273
 1140TIP3   OH224834   0.356   1.598   2.430  0.1497  0.0433  0.7851
 1140TIP3    H124835   0.300   1.633   2.361 -0.2988 -0.1122  1.0669
 1140TIP3    H224836   0.299   1.592   2.506  0.4244 -0.5771  0.9429
 1141TIP3   OH224837   5.101   5.824  12.144  0.6252 -0.1739 -0.2372
 1141TIP3    H124838   5.132   5.832  12.234 -1.3456 -1.4094  0.6112
 1141TIP3    H224839   5.122   5.908  12.104 -0.4263  1.2734  2.0475
 1142TIP3   OH224840   3.805   1.762   0.328  0.0247 -0.3538 -0.1075
 1142TIP3    H124841   3.819   1.669   0.348  2.8740  0.3216  1.5014
 1142TIP3    H224842   3.786   1.801   0.413 -1.1267  0.5898 -0.7714
 1143TIP3   OH224843   5.895   6.620   2.021 -0.2668  0.0186  0.5800
 1143TIP3    H124844   5.973   6.645   1.973 -0.6127 -1.2114 -0.7006
 1143TIP3    H224845   5.922   6.543   2.072 -0.2591  0.4993  1.3128
 1144TIP3   OH224846   0.134   2.055   6.435  0.8762 -0.4073  0.1514
 1144TIP3    H124847   0.185   1.974   6.436 -0.8090 -1.5107  0.9245
 1144TIP3    H224848   0.049   2.031   6.470 -0.5450  1.1339 -1.9788
 1145TIP3   OH224849   3.083   3.733   1.646 -0.1836 -0.4530 -0.2444
 1145TIP3    H124850   3.157   3.793   1.661 -1.4010  0.6146  2.0046
 1145TIP3    H224851   3.005   3.788   1.656 -1.3201 -1.8786 -0.9560
 1146TIP3   OH224852   2.223   5.545   3.607  0.1772  0.0052  0.2315
 1146TIP3    H124853   2.276   5.622   3.625  0.3430 -0.1750  0.5115
 1146TIP3    H224854   2.253   5.479   3.669 -0.3956 -0.0906  0.4136
 1147TIP3   OH224855   1.753   4.765   5.028  0.0885 -0.1195  0.1903
 1147TIP3    H124856   1.745   4.832   4.960  0.9357  0.1064  0.3045
 1147TIP3    H224857   1.676   4.710   5.016 -1.9205  2.1453  1.5123
 1148TIP3   OH224858   1.360   4.622   2.951 -0.5933  0.1568  0.0309
 1148TIP3    H124859   1.381   4.605   2.859  3.0171 -1.2294  0.9482
 1148TIP3    H224860   1.372   4.537   2.994  0.8467  1.3602  2.2082
 1149TIP3   OH224861   1.104   4.646   0.413 -0.2332 -0.2523  0.5375
 1149TIP3    H124862   1.047   4.653   0.337 -0.7440 -1.8664  0.7287
 1149TIP3    H224863   1.192   4.660   0.378 -0.1434 -3.4829 -0.9619
 1150TIP3   OH224864   6.647   1.415  12.550  0.5234 -0.1218  0.5073
 1150TIP3    H124865   6.590   1.340  12.536 -1.6394  1.5591 -0.4222
 1150TIP3    H224866   6.654   1.456  12.464 -0.9321  2.3765  1.4516
 1151TIP3   OH224867   6.623   6.496  15.674  0.0011 -0.9116 -0.2241
 1151TIP3    H124868   6.701   6.544  15.703 -0.8012  0.8809 -0.8669
 1151TIP3    H224869   6.552   6.560  15.682 -1.5475 -2.6659  0.9011
 1152TIP3   OH224870   6.679   2.033   1.658  0.3124  0.0379  0.1646
 1152TIP3    H124871   6.695   1.979   1.580  1.6248  1.1445 -0.3723
 1152TIP3    H224872   6.584   2.029   1.670 -0.1462  0.9413 -2.3654
 1153TIP3   OH224873   1.699   2.452   5.838 -0.4579 -0.3178 -0.7752
 1153TIP3    H124874   1.770   2.395   5.868 -1.0979 -1.1664 -0.8478
 1153TIP3    H224875   1.714   2.535   5.884 -0.2960 -0.9728  0.3707
 1154TIP3   OH224876   1.790   1.436  14.760 -0.1417 -0.0155 -0.2821
 1154TIP3    H124877   1.774   1.517  14.712  0.0740  0.6178  0.6844
 1154TIP3    H224878   1.747   1.368  14.708 -1.6147  0.9226 -0.3433
 1155TIP3   OH224879   6.373   2.327  16.386 -0.1059 -0.4170 -0.6375
 1155TIP3    H124880   6.393   2.409  16.432  1.0466 -1.0760  0.0660
 1155TIP3    H224881   6.456   2.298  16.350 -0.6037 -1.0239 -1.3360
 1156TIP3   OH224882   1.215   0.796   1.791 -0.3410 -0.0236 -0.0346
 1156TIP3    H124883   1.136   0.792   1.735 -0.9964  1.3957  0.7462
 1156TIP3    H224884   1.234   0.889   1.799  2.0488 -0.3600 -1.0053
 1157TIP3   OH224885   0.196   2.440  15.272  0.0484  0.1617  0.1303
 1157TIP3    H124886   0.289   2.448  15.253 -0.3143  0.5989 -1.5901
 1157TIP3    H224887   0.186   2.351  15.306  0.9320 -0.2702 -0.7076
 1158TIP3   OH224888   5.429   5.459  12.306  0.1836  0.5949  0.7803
 1158TIP3    H124889   5.422   5.489  12.216 -1.9410 -0.3671  0.5631
 1158TIP3    H224890   5.360   5.394  12.315  0.2526  0.7631  3.1486
 1159TIP3   OH224891   3.196   3.277   2.739 -0.6624 -0.1843  0.0412
 1159TIP3    H124892   3.156   3.264   2.653  1.5074 -2.3612 -0.7599
 1159TIP3    H224893   3.200   3.372   2.750 -4.3185  0.1514 -0.5293
 1160TIP3   OH224894   1.969   5.813  16.449  0.2218  0.1032 -0.0403
 1160TIP3    H124895   1.876   5.826  16.466 -0.0093 -1.1995 -0.2379
 1160TIP3    H224896   1.979   5.834  16.356  0.3430  1.2554  0.2115
 1161TIP3   OH224897   3.083   0.009   0.155  1.1492 -0.2699  0.8779
 1161TIP3    H124898   3.144  -0.029   0.092  0.8758 -0.0545  0.4778
 1161TIP3    H224899   3.098   0.103   0.149  1.3309 -0.2633  1.3561
 1162TIP3   OH224900   4.205   4.784  14.055 -0.3084 -0.3293 -0.0634
 1162TIP3    H124901   4.266   4.741  13.995  0.8209 -0.3760  1.0920
 1162TIP3    H224902   4.122   4.785  14.007  0.8452  0.8617 -2.2111
 1163TIP3   OH224903   0.287   1.086  15.836 -0.0377 -0.1975  0.5507
 1163TIP3    H124904   0.355   1.094  15.768 -2.0256  0.6950 -1.4651
 1163TIP3    H224905   0.312   1.150  15.902  0.8993  0.3497 -0.2989
 1164TIP3   OH224906   4.601   5.515   3.332 -0.2770  0.3758  0.3717
 1164TIP3    H124907   4.577   5.516   3.239 -1.2766 -0.6345  0.5962
 1164TIP3    H224908   4.528   5.558   3.376  0.1706  0.8064  0.7032
 1165TIP3   OH224909   0.329   1.472  15.363 -0.4079 -0.1571 -0.0211
 1165TIP3    H124910   0.332   1.543  15.426 -0.2546  0.3874 -0.6348
 1165TIP3    H224911   0.412   1.477  15.315 -0.6810 -0.3207 -0.5254
 1166TIP3   OH224912   4.492   0.991   1.871 -0.1362  0.1749  0.0798
 1166TIP3    H124913   4.481   1.055   1.800 -0.7068 -1.2242 -1.1606
 1166TIP3    H224914   4.545   0.921   1.832 -0.3900 -0.5883  1.0609
 1167TIP3   OH224915   3.958   6.358   6.046  0.0163  0.2294  0.1869
 1167TIP3    H124916   3.946   6.276   5.997  2.0494 -0.5527  0.8793
 1167TIP3    H224917   3.900   6.349   6.121 -0.2545 -0.3015 -0.0771
 1168TIP3   OH224918   6.288   5.467   0.112 -0.3294 -0.0084 -0.2870
 1168TIP3    H124919   6.211   5.522   0.096  1.1828  1.4947 -3.0525
 1168TIP3    H224920   6.335   5.513   0.182 -1.3211 -0.3014  0.5971
 1169TIP3   OH224921   5.196   0.318  10.574  0.1818  0.6877  0.2031
 1169TIP3    H124922   5.237   0.302  10.489 -1.2178 -1.6422 -0.1148
 1169TIP3    H224923   5.118   0.262  10.574  0.0975  0.6733  2.9852
 1170TIP3   OH224924   1.690   6.067  12.767  0.0903  0.0569 -0.1972
 1170TIP3    H124925   1.616   6.098  12.819 -0.7426 -2.0640 -0.0132
 1170TIP3    H224926   1.650   6.018  12.695  1.2758  1.1334 -1.6458
 1171TIP3   OH224927   2.260   0.305  13.690 -0.1408  0.4711  0.0540
 1171TIP3    H124928   2.239   0.251  13.767  0.2147 -1.0391 -0.8640
 1171TIP3    H224929   2.350   0.332  13.704 -0.4093  1.0847  0.6547
 1172TIP3   OH224930   6.429   1.847  16.920  0.1859 -0.3359 -0.4125
 1172TIP3    H124931   6.344   1.869  16.880  0.8144  1.0692 -1.0378
 1172TIP3    H224932   6.417   1.866  17.013  0.1907  1.1392 -0.6893
 1173TIP3   OH224933   2.472   2.479   0.456 -0.1523  0.1971  0.1089
 1173TIP3    H124934   2.393   2.438   0.423  1.7256 -2.1051 -1.9366
 1173TIP3    H224935   2.485   2.556   0.401 -0.4137 -0.0398 -0.2843
 1174TIP3   OH224936   2.690   4.133  16.844 -0.0150  0.1001  0.0978
 1174TIP3    H124937   2.759   4.079  16.805 -0.0381 -1.1598  1.6893
 1174TIP3    H224938   2.736   4.205  16.886  0.3824 -0.8418  1.3200
 1175TIP3   OH224939   0.816   5.862  15.583 -0.2649  0.6752 -0.0554
 1175TIP3    H124940   0.807   5.946  15.628 -2.1867 -0.0804  1.0447
 1175TIP3    H224941   0.845   5.886  15.494 -0.4837  2.4603  0.3180
 1176TIP3   OH224942   1.708   1.645  13.527 -0.2046 -0.0670 -0.0527
 1176TIP3    H124943   1.617   1.671  13.511 -0.2417 -1.0780 -1.6856
 1176TIP3    H224944   1.701   1.559  13.568  0.0093 -0.1051 -0.0967
 1177TIP3   OH224945   5.971   2.653  16.715 -0.1842  0.2648  0.1813
 1177TIP3    H124946   6.013   2.656  16.801  0.0065 -0.4789  0.1245
 1177TIP3    H224947   5.911   2.728  16.714 -1.0802 -0.3985  1.4373
 1178TIP3   OH224948   5.603   4.389   6.364 -0.2840 -0.1342 -0.5642
 1178TIP3    H124949   5.651   4.454   6.415 -1.1805 -0.5810  0.9088
 1178TIP3    H224950   5.514   4.391   6.400 -0.2747 -2.3367 -0.2944
 1179TIP3   OH224951   0.287   4.402  13.111 -0.1728  0.1701 -0.3064
 1179TIP3    H124952   0.208   4.383  13.161 -0.8451  1.7917 -0.6751
 1179TIP3    H224953   0.343   4.451  13.171  0.3164 -0.4943 -0.2164
 1180TIP3   OH224954   1.745   3.891   0.001  0.4774 -0.1926  0.4204
 1180TIP3    H124955   1.707   3.915   0.085  0.4712 -1.8976  0.9493
 1180TIP3    H224956   1.732   3.796  -0.005  2.1309 -0.4044 -0.6450
 1181TIP3   OH224957   2.263   5.927  12.400  0.3508 -0.6382  0.0568
 1181TIP3    H124958   2.242   5.920  12.493 -0.3288 -1.2498 -0.1387
 1181TIP3    H224959   2.222   5.850  12.359 -0.0635  0.0600 -0.8800
 1182TIP3   OH224960   5.765   4.924   4.878 -1.2946  0.3975  0.6625
 1182TIP3    H124961   5.806   4.876   4.950 -1.1106  0.7379  0.7865
 1182TIP3    H224962   5.706   4.986   4.920  0.7345  2.4427  0.6800
 1183TIP3   OH224963   2.068   2.104   1.254  0.1514  0.0057  0.2707
 1183TIP3    H124964   2.135   2.167   1.282  0.1704 -0.3323  1.0061
 1183TIP3    H224965   2.115   2.021   1.248  0.3563  0.2290 -1.6818
 1184TIP3   OH224966   2.150   1.906  17.131  1.0401  0.3961 -0.1335
 1184TIP3    H124967   2.081   1.886  17.067  0.4727 -0.1626  0.6306
 1184TIP3    H224968   2.200   1.824  17.137  0.2579 -0.0226  1.1266
 1185TIP3   OH224969   6.302   5.772  16.273 -0.3030 -0.3454  0.2182
 1185TIP3    H124970   6.235   5.841  16.273 -1.2767 -1.2641 -0.2248
 1185TIP3    H224971   6.253   5.691  16.260  1.0732 -0.8421 -2.7197
 1186TIP3   OH224972   1.482   1.317   2.029  0.1396  0.6779  0.8315
 1186TIP3    H124973   1.427   1.272   2.093  0.0354 -0.9035 -0.3287
 1186TIP3    H224974   1.428   1.390   1.999 -1.1536 -0.5308  0.1095
 1187TIP3   OH224975   1.107   0.806  13.814 -0.0042  0.2660  0.1224
 1187TIP3    H124976   1.148   0.736  13.865  0.3699  1.0671  0.9466
 1187TIP3    H224977   1.019   0.814  13.850 -0.3619 -0.3795 -0.5809
 1188TIP3   OH224978   5.360   6.777   4.245  0.2247  0.3150  0.3347
 1188TIP3    H124979   5.443   6.782   4.198  1.3132  0.2034  2.1518
 1188TIP3    H224980   5.312   6.856   4.218  1.1998  0.7236 -0.2553
 1189TIP3   OH224981   4.658   1.386  14.543 -0.1147 -0.7560 -0.5452
 1189TIP3    H124982   4.583   1.444  14.550  0.2225 -0.4148  0.3650
 1189TIP3    H224983   4.638   1.313  14.601  2.2552  1.6045  3.7632
 1190TIP3   OH224984   4.023   5.537   0.104  0.1552 -0.2159  0.4962
 1190TIP3    H124985   4.093   5.577   0.052 -0.8970 -0.7735 -1.4433
 1190TIP3    H224986   3.950   5.528   0.043 -0.2997 -3.3022  1.3322
 1191TIP3   OH224987   6.617   1.701   0.286 -0.5565  0.4926  0.0638
 1191TIP3    H124988   6.647   1.788   0.314 -2.4286  0.9608  0.8162
 1191TIP3    H224989   6.544   1.720   0.226  1.7866 -0.5381 -3.3883
 1192TIP3   OH224990   4.000   5.838   1.486 -0.4792  0.0568  0.1478
 1192TIP3    H124991   4.045   5.887   1.418  1.5062 -1.3433  0.3641
 1192TIP3    H224992   3.955   5.905   1.538  0.6575  1.4519 -0.6031
 1193TIP3   OH224993   0.799   1.410  10.902 -0.2128  0.1482 -0.0042
 1193TIP3    H124994   0.776   1.343  10.837 -1.3334 -0.4171  0.9358
 1193TIP3    H224995   0.889   1.433  10.882 -0.2966 -0.5449 -1.2977
 1194TIP3   OH224996   2.087   5.669  11.499  0.0411  0.6777  0.3476
 1194TIP3    H124997   2.126   5.695  11.582 -0.6248 -0.5892  1.0868
 1194TIP3    H224998   2.003   5.715  11.497 -0.5364 -0.3099  1.0231
 1195TIP3   OH224999   2.128   4.902  17.317 -0.0920 -0.2992  0.2011
 1195TIP3    H125000   2.162   4.865  17.236  0.1309  0.3493 -0.0119
 1195TIP3    H225001   2.164   4.991  17.319 -1.7506  0.4292 -0.0529
 1196TIP3   OH225002   4.144   4.496  13.029  0.5724  0.6747 -0.2572
 1196TIP3    H125003   4.181   4.443  12.958 -0.5182  0.2776 -0.5543
 1196TIP3    H225004   4.164   4.586  13.004 -0.8858  0.6376 -1.7825
 1197TIP3   OH225005   3.433   4.753  12.092  0.2168  0.3771  0.0349
 1197TIP3    H125006   3.469   4.748  12.181  2.4805  0.2118 -0.8346
 1197TIP3    H225007   3.505   4.785  12.038 -2.0444  3.9927 -1.2592
 1198TIP3   OH225008   6.388   5.504   5.450 -0.0779  0.0613 -0.0620
 1198TIP3    H125009   6.399   5.559   5.527 -0.6309  0.2832 -0.1358
 1198TIP3    H225010   6.324   5.550   5.396 -1.1448 -1.0139  0.2273
 1199TIP3   OH225011   4.652   5.308  12.398 -0.2700 -0.1934 -0.3135
 1199TIP3    H125012   4.712   5.238  12.422 -0.6845 -0.6529 -0.6094
 1199TIP3    H225013   4.572   5.289  12.446 -0.9432 -0.8491 -1.6538
 1200TIP3   OH225014   2.951   3.590  13.992  0.5466  0.2341  0.4702
 1200TIP3    H125015   2.859   3.574  14.013  0.3113  1.8262  0.8426
 1200TIP3    H225016   2.978   3.515  13.939 -1.2061  0.1484 -0.3629
 1201TIP3   OH225017   5.573   5.194   4.415 -0.7814  0.1157 -0.1035
 1201TIP3    H125018   5.533   5.111   4.443 -0.9080  0.4313  0.6795
 1201TIP3    H225019   5.646   5.207   4.475 -0.1001  0.0445 -0.9057
 1202TIP3   OH225020   6.542   2.983  16.604 -0.5646  0.5553 -0.1097
 1202TIP3    H125021   6.473   2.921  16.626  0.7916 -0.9533  0.1175
 1202TIP3    H225022   6.621   2.945  16.644 -0.0227  3.6244  2.0771
 1203TIP3   OH225023   0.322   5.115  12.055 -0.8283 -0.8665 -0.7008
 1203TIP3    H125024   0.295   5.116  12.147 -2.8622 -0.9194 -1.2407
 1203TIP3    H225025   0.397   5.174  12.051  0.0024 -1.7024  1.1547
 1204TIP3   OH225026   0.057   3.061  15.305  0.2420  0.2945 -0.0695
 1204TIP3    H125027   0.014   3.049  15.220  2.0944  1.8274 -1.2883
 1204TIP3    H225028   0.015   3.138  15.343  0.4817  0.5333 -0.2932
 1205TIP3   OH225029   2.776   0.174  15.832  0.3498  0.4451 -0.1462
 1205TIP3    H125030   2.853   0.122  15.857  0.2230  0.0357 -0.5802
 1205TIP3    H225031   2.811   0.260  15.811  0.6680  0.3178 -0.1497
 1206TIP3   OH225032   5.078   4.493  15.284 -0.5810  0.4024  0.0736
 1206TIP3    H125033   4.988   4.523  15.272 -0.6984 -0.2892 -0.9007
 1206TIP3    H225034   5.102   4.454  15.200  0.1998 -0.5375  0.7059
 1207TIP3   OH225035   2.768   0.080  16.303 -0.0114  0.1241 -0.6403
 1207TIP3    H125036   2.769   0.089  16.398  1.9406  0.9342 -0.6893
 1207TIP3    H225037   2.697   0.018  16.286  0.6737 -1.3835  1.4825
 1208TIP3   OH225038   2.715   4.273  13.863  0.3304  0.1043 -0.0217
 1208TIP3    H125039   2.809   4.289  13.855  0.1062  1.1303 -0.9402
 1208TIP3    H225040   2.682   4.279  13.773 -0.1318 -3.8861 -0.2806
 1209TIP3   OH225041   2.594   3.452   5.740  0.0650  0.8096  0.3173
 1209TIP3    H125042   2.621   3.406   5.818  1.6221  0.9187 -0.1224
 1209TIP3    H225043   2.566   3.384   5.679 -0.5555  0.6862  0.7313
 1210TIP3   OH225044   5.834   2.526   2.850 -0.0151  0.4232  0.4078
 1210TIP3    H125045   5.897   2.578   2.900  0.4465 -0.3875  0.6900
 1210TIP3    H225046   5.756   2.525   2.905  0.0553  0.6053  0.5144
 1211TIP3   OH225047   3.017   6.722  16.667 -0.1106 -0.5936 -0.1440
 1211TIP3    H125048   3.040   6.812  16.644 -1.3546 -0.6153 -1.6628
 1211TIP3    H225049   3.068   6.668  16.606 -0.6028 -0.8323 -0.3467
 1212TIP3   OH225050   4.663   4.615   5.174  0.3773 -0.0028 -0.0303
 1212TIP3    H125051   4.719   4.689   5.195  0.9851 -0.0023 -1.5140
 1212TIP3    H225052   4.636   4.631   5.084 -2.6019  0.3438  0.8251
 1213TIP3   OH225053   3.458   0.129   1.101  0.0950  0.2166  0.0306
 1213TIP3    H125054   3.502   0.181   1.033 -0.0335 -0.5884 -0.6917
 1213TIP3    H225055   3.522   0.062   1.125 -0.5993 -0.7868 -0.8212
 1214TIP3   OH225056   1.956   0.935  12.450 -0.3217  0.3829  0.0341
 1214TIP3    H125057   1.861   0.944  12.446 -0.2223  1.0181 -1.2717
 1214TIP3    H225058   1.988   1.025  12.443  0.3619  0.3461  2.0020
 1215TIP3   OH225059   1.758   6.173  14.438  0.6672  0.1132  0.0189
 1215TIP3    H125060   1.849   6.181  14.410  0.6708  0.9198  0.2399
 1215TIP3    H225061   1.763   6.145  14.530  0.8045  3.5763  1.1942
 1216TIP3   OH225062   1.705   6.756  15.001 -0.2305 -0.1628 -0.0404
 1216TIP3    H125063   1.619   6.731  15.034  0.5465  0.1171  2.4287
 1216TIP3    H225064   1.688   6.802  14.920 -2.5664  1.3064  1.1957
 1217TIP3   OH225065   4.582   5.887   4.886  0.0863 -0.0551 -0.0132
 1217TIP3    H125066   4.509   5.948   4.878 -0.8106 -1.2350 -1.1016
 1217TIP3    H225067   4.557   5.828   4.957  0.6964  0.4567  0.6473
 1218TIP3   OH225068   0.231   0.861  11.925 -0.0708 -0.3470  0.2056
 1218TIP3    H125069   0.306   0.801  11.923 -1.8477 -2.7487  0.0353
 1218TIP3    H225070   0.239   0.912  11.844  0.3080 -2.0140 -0.8631
 1219TIP3   OH225071   1.318   1.859  16.601 -0.0844 -0.6698  0.6161
 1219TIP3    H125072   1.409   1.888  16.593 -0.6152  0.5841 -2.1469
 1219TIP3    H225073   1.284   1.909  16.675  1.3370 -0.9043  1.4800
 1220TIP3   OH225074   5.103   5.067  11.586 -0.4033  0.2025  0.0815
 1220TIP3    H125075   5.045   5.116  11.645  1.0281  0.3108  1.4699
 1220TIP3    H225076   5.168   5.026  11.644  2.0112  1.5545 -1.4861
 1221TIP3   OH225077   5.824   3.845   3.729  0.1533 -0.3770  0.0454
 1221TIP3    H125078   5.878   3.882   3.659  2.0865  0.0738  1.6454
 1221TIP3    H225079   5.791   3.921   3.776 -1.1595 -0.6726 -0.3734
 1222TIP3   OH225080   5.685   0.264  11.548  0.0388  0.7903  0.2110
 1222TIP3    H125081   5.761   0.303  11.505  1.0421 -0.0327  1.2020
 1222TIP3    H225082   5.654   0.198  11.487  0.0363  1.2088 -0.2478
 1223TIP3   OH225083   2.728   5.024   1.062 -0.0486 -0.6156  0.0760
 1223TIP3    H125084   2.704   5.096   1.120 -2.1866 -1.0804 -0.1743
 1223TIP3    H225085   2.765   5.068   0.985 -1.0111  0.2026  0.0653
 1224TIP3   OH225086   2.712   0.831  16.134  0.3142  0.7073  0.0942
 1224TIP3    H125087   2.777   0.821  16.204  0.2018 -2.0882 -0.1156
 1224TIP3    H225088   2.636   0.871  16.177  0.3747 -0.6191  1.5239
 1225TIP3   OH225089   6.310   0.950  13.769  0.7126 -0.6773 -0.0555
 1225TIP3    H125090   6.350   1.035  13.751  2.9489 -1.3513  1.3039
 1225TIP3    H225091   6.235   0.946  13.710  0.4516  2.2610 -0.0781
 1226TIP3   OH225092   6.680   2.963   1.209 -0.0924  0.1537 -0.1422
 1226TIP3    H125093   6.765   2.930   1.237 -0.4422 -0.5608  0.0854
 1226TIP3    H225094   6.701   3.023   1.137  0.6385  0.3816  0.2457
 1227TIP3   OH225095   2.329   1.130  14.758 -0.1799  0.0281  0.0430
 1227TIP3    H125096   2.342   1.099  14.668 -0.1948 -1.6086  0.5651
 1227TIP3    H225097   2.350   1.053  14.812 -1.9864  0.4165  1.3583
 1228TIP3   OH225098   6.075   6.563   1.785 -0.2572 -0.0539  0.3872
 1228TIP3    H125099   6.044   6.515   1.709  0.4609  2.2471 -1.4757
 1228TIP3    H225100   6.092   6.496   1.851 -2.3759 -1.9921 -0.9048
 1229TIP3   OH225101   6.575   2.149  17.241 -0.3082 -0.2326  0.0289
 1229TIP3    H125102   6.533   2.181  17.161  1.0476  0.5212 -0.4154
 1229TIP3    H225103   6.547   2.211  17.309  1.2875  1.2351 -0.5771
 1230TIP3   OH225104   2.459   6.280  14.352 -0.2213 -0.2378 -0.2075
 1230TIP3    H125105   2.421   6.199  14.317 -1.2738  0.6920 -1.2891
 1230TIP3    H225106   2.461   6.265  14.447 -0.3254 -1.5500 -0.3814
 1231TIP3   OH225107   5.640   6.052   1.823  0.5610  0.6069 -0.0759
 1231TIP3    H125108   5.647   6.007   1.907  1.0141 -0.4556 -0.6698
 1231TIP3    H225109   5.548   6.079   1.819 -0.3964 -2.3845 -0.7304
 1232TIP3   OH225110   6.568   5.092   2.554 -0.0436  0.4412 -0.1593
 1232TIP3    H125111   6.536   5.044   2.477 -2.3699  1.1793  0.2712
 1232TIP3    H225112   6.572   5.183   2.526  0.7829  0.4909  0.1020
 1233TIP3   OH225113   4.369   0.911  14.425  0.3697  0.2544 -0.3134
 1233TIP3    H125114   4.420   0.859  14.362 -0.8061 -0.4569 -0.7182
 1233TIP3    H225115   4.279   0.902  14.395 -0.4564 -1.4638  2.3722
 1234TIP3   OH225116   3.426   1.342  11.156  0.0706 -0.1698  0.5438
 1234TIP3    H125117   3.498   1.372  11.211 -0.3116  2.0910 -0.0552
 1234TIP3    H225118   3.441   1.248  11.145  2.7191  0.1473  0.7415
 1235TIP3   OH225119   0.788   4.027   6.906 -0.0963  0.0923  0.3831
 1235TIP3    H125120   0.859   4.076   6.866 -0.1944  0.0045  0.0991
 1235TIP3    H225121   0.712   4.085   6.901 -0.0312  0.2139  0.7496
 1236TIP3   OH225122   2.971   4.597   2.188 -0.1774 -1.1390  0.4615
 1236TIP3    H125123   3.034   4.527   2.205  0.0771 -0.4637  2.5182
 1236TIP3    H225124   2.888   4.564   2.221 -0.8126 -1.7340 -1.5832
 1237TIP3   OH225125   4.703   1.994   3.659  0.1564  0.1347  0.4507
 1237TIP3    H125126   4.608   1.996   3.670 -0.3329 -2.3256 -2.1409
 1237TIP3    H225127   4.734   1.929   3.723 -0.2809 -0.8849 -0.3440
 1238TIP3   OH225128   2.461   5.682  16.901 -0.3005  0.3003  0.2318
 1238TIP3    H125129   2.447   5.679  16.807 -1.8775  0.0597  0.4438
 1238TIP3    H225130   2.381   5.722  16.936  0.7269  1.4634  1.3848
 1239TIP3   OH225131   1.717   3.079  16.391 -0.3567  0.7202 -0.1063
 1239TIP3    H125132   1.651   3.126  16.340 -1.4832  0.9121  1.4342
 1239TIP3    H225133   1.666   3.030  16.456  0.7455 -2.6540 -1.5752
 1240TIP3   OH225134   2.766   0.966   5.801  0.0198  0.3045  0.2510
 1240TIP3    H125135   2.737   1.018   5.875  1.3787  1.8563 -0.2214
 1240TIP3    H225136   2.695   0.905   5.783 -0.3895 -0.0224  2.7127
 1241TIP3   OH225137   4.703   2.380   4.328  0.1619 -0.8464  0.5209
 1241TIP3    H125138   4.705   2.460   4.381  1.1757 -0.2409 -0.3889
 1241TIP3    H225139   4.782   2.385   4.274  0.4565 -2.6615  0.7102
 1242TIP3   OH225140   4.189   6.007   4.925  0.6840  0.1031  0.1409
 1242TIP3    H125141   4.127   6.077   4.945  1.8164  0.2782  3.6161
 1242TIP3    H225142   4.274   6.051   4.921  0.9470 -0.4303 -2.6818
 1243TIP3   OH225143   6.628   1.326   3.937  0.2319 -0.2273 -0.0043
 1243TIP3    H125144   6.674   1.323   4.021  1.1351  0.2435 -0.4722
 1243TIP3    H225145   6.596   1.237   3.923 -2.3785  0.2264  2.1696
 1244TIP3   OH225146   1.045   5.640   1.032  0.2229 -0.5188 -0.0571
 1244TIP3    H125147   1.131   5.661   0.997 -0.1502  0.3421 -0.4807
 1244TIP3    H225148   0.986   5.646   0.956 -0.2369 -0.9682  0.2521
 1245TIP3   OH225149   3.920   4.261   1.878 -0.0313 -0.2969  0.0744
 1245TIP3    H125150   3.848   4.314   1.844  0.1456 -0.5094 -0.6463
 1245TIP3    H225151   3.971   4.322   1.932 -0.6778 -0.1184  0.4928
 1246TIP3   OH225152   1.022   2.394   1.913  0.2343  0.1383  0.3941
 1246TIP3    H125153   1.087   2.444   1.864 -2.3211  0.6292 -2.9013
 1246TIP3    H225154   0.972   2.460   1.961  0.0457  0.1695  0.1569
 1247TIP3   OH225155   3.796   6.611  16.597  0.3604  0.0043 -0.1049
 1247TIP3    H125156   3.725   6.547  16.596  1.0937 -0.8273 -1.5428
 1247TIP3    H225157   3.752   6.695  16.578 -0.2526 -0.4868 -0.9283
 1248TIP3   OH225158   0.660   3.288  11.111  0.3176  0.3346  0.0076
 1248TIP3    H125159   0.584   3.235  11.133  0.4195  0.9250  1.9336
 1248TIP3    H225160   0.635   3.378  11.132  1.1935  0.6705 -0.3112
 1249TIP3   OH225161   6.124   3.258  12.214  0.3551  0.1035 -0.2834
 1249TIP3    H125162   6.060   3.190  12.236  0.5701 -0.7209 -2.0617
 1249TIP3    H225163   6.088   3.338  12.253  0.1383 -1.0000  1.9236
 1250TIP3   OH225164   4.988   6.229  15.625 -0.1317  0.3917 -0.0984
 1250TIP3    H125165   4.967   6.139  15.601 -2.4722 -0.1897  3.4209
 1250TIP3    H225166   4.903   6.270  15.642  0.9804  2.5585  0.6637
 1251TIP3   OH225167   0.447   3.192  17.124 -0.0364  0.3793  0.3511
 1251TIP3    H125168   0.472   3.101  17.140 -0.2194  0.2980  0.1837
 1251TIP3    H225169   0.423   3.194  17.031  1.5700  0.9691 -0.0829
 1252TIP3   OH225170   4.467   6.656   2.849 -0.2634 -0.5249 -0.1687
 1252TIP3    H125171   4.376   6.648   2.821 -0.6593  1.9362  0.1090
 1252TIP3    H225172   4.468   6.618   2.937 -0.3623 -2.9856 -1.1796
 1253TIP3   OH225173   2.998   1.196  13.716  0.2518  0.2153 -0.4612
 1253TIP3    H125174   2.974   1.104  13.711  0.0582  0.3163 -1.5641
 1253TIP3    H225175   3.056   1.202  13.793  0.4545 -0.8576 -0.5238
 1254TIP3   OH225176   2.117   1.893  10.972 -0.0151  0.0762  0.2651
 1254TIP3    H125177   2.032   1.931  10.992 -0.4984 -1.3517  1.0148
 1254TIP3    H225178   2.115   1.876  10.878 -0.8353 -0.5744  0.3904
 1255TIP3   OH225179   1.733   6.057  11.268  0.4058  0.4954 -0.3937
 1255TIP3    H125180   1.721   6.150  11.246  0.8120  0.8747  0.8880
 1255TIP3    H225181   1.727   6.055  11.364  0.1411 -0.8518 -0.4255
 1256TIP3   OH225182   2.500   1.463  14.000 -0.0429 -0.0567 -0.0656
 1256TIP3    H125183   2.555   1.504  13.933 -1.9966  0.2428 -1.5893
 1256TIP3    H225184   2.480   1.534  14.061  0.4356  0.0797 -0.0654
 1257TIP3   OH225185   5.145   3.926  14.382  0.2173 -0.0528  0.1091
 1257TIP3    H125186   5.128   4.018  14.358 -0.3927 -0.1136  0.2819
 1257TIP3    H225187   5.139   3.925  14.478  1.1305 -0.1033  0.1713
 1258TIP3   OH225188   6.028   6.738  13.098 -0.6839 -1.0425  0.6608
 1258TIP3    H125189   5.965   6.722  13.027  0.8455  0.5356 -1.1966
 1258TIP3    H225190   5.984   6.801  13.155 -1.5158 -1.4354  0.4717
 1259TIP3   OH225191   6.689   0.432  15.836 -0.3562 -0.0488  0.2851
 1259TIP3    H125192   6.783   0.418  15.843 -0.3614 -0.2364  0.0086
 1259TIP3    H225193   6.657   0.431  15.927 -0.0629  0.2316  0.3891
 1260TIP3   OH225194   4.674   6.489   4.225  0.0923 -0.3802 -0.0419
 1260TIP3    H125195   4.750   6.487   4.284  0.4462  1.1607 -0.3850
 1260TIP3    H225196   4.618   6.418   4.255  0.1612  0.4742  2.3084
 1261TIP3   OH225197   5.258   0.299  12.216 -0.2334 -0.1332 -0.4183
 1261TIP3    H125198   5.308   0.380  12.207 -2.3724  1.1132 -2.1569
 1261TIP3    H225199   5.241   0.272  12.126 -0.3318 -2.0398  0.1404
 1262TIP3   OH225200   2.460   2.573  16.899 -0.0481 -0.6303  0.1638
 1262TIP3    H125201   2.460   2.666  16.875  0.1054  0.1603  2.9379
 1262TIP3    H225202   2.511   2.531  16.830  1.5451  1.6432 -0.1690
 1263TIP3   OH225203   2.586   2.145   6.590  0.3926  0.4871 -0.4574
 1263TIP3    H125204   2.610   2.097   6.510 -0.8756 -0.9653 -0.0108
 1263TIP3    H225205   2.621   2.091   6.661 -1.4713 -0.0944  0.0795
 1264TIP3   OH225206   6.053   6.360  15.780 -0.4486  0.0239  0.0580
 1264TIP3    H125207   6.019   6.331  15.864  0.1336 -0.9207 -0.0220
 1264TIP3    H225208   6.011   6.445  15.765  0.4508  0.8294  1.9061
 1265TIP3   OH225209   2.567   1.841   3.856  0.7189  0.3206  0.2759
 1265TIP3    H125210   2.578   1.922   3.807  1.2681 -0.4888 -0.9869
 1265TIP3    H225211   2.649   1.793   3.843 -0.1399 -1.0731 -0.2251
 1266TIP3   OH225212   5.457   5.154  14.950 -0.0727  0.3583  0.4536
 1266TIP3    H125213   5.388   5.146  15.016 -0.2139  0.6948  0.3502
 1266TIP3    H225214   5.481   5.247  14.952 -0.1428  0.3900 -0.0318
 1267TIP3   OH225215   2.696   2.288  13.527  0.1978  0.7243 -0.6285
 1267TIP3    H125216   2.629   2.286  13.459 -1.5685 -2.7743  0.9526
 1267TIP3    H225217   2.762   2.225  13.498 -0.3902 -0.5182  0.6332
 1268TIP3   OH225218   4.349   3.893  15.696  0.4992  0.1037  0.0058
 1268TIP3    H125219   4.289   3.955  15.654  1.8989 -0.2474 -2.6922
 1268TIP3    H225220   4.295   3.816  15.714 -0.4764  0.8316  0.2826
 1269TIP3   OH225221   0.016   5.027  10.816 -0.3685  0.1340  0.9500
 1269TIP3    H125222   0.060   5.046  10.733 -0.9889  0.0705  0.6089
 1269TIP3    H225223  -0.058   5.087  10.819  1.4237  2.4815  2.9536
 1270TIP3   OH225224   2.590   0.076  12.635  0.5141  0.1778 -0.2960
 1270TIP3    H125225   2.584   0.152  12.693  0.4367  0.7593 -1.0485
 1270TIP3    H225226   2.667   0.028  12.667 -1.9325 -1.9832  3.1253
 1271TIP3   OH225227   1.670   4.413  15.642 -0.6069 -0.3597 -0.6421
 1271TIP3    H125228   1.600   4.475  15.619 -2.4221 -1.7823  0.7178
 1271TIP3    H225229   1.628   4.352  15.702  2.0652 -0.8602  0.8321
 1272TIP3   OH225230   2.213   1.872   0.570  0.0588 -0.1923 -0.6467
 1272TIP3    H125231   2.193   1.839   0.657 -0.6643 -0.5222 -0.9355
 1272TIP3    H225232   2.293   1.826   0.545 -1.1193 -2.0274 -1.1884
 1273TIP3   OH225233   3.680   0.342   2.856  0.4005 -0.2827 -0.3559
 1273TIP3    H125234   3.717   0.414   2.805  1.7692  0.9397  2.1618
 1273TIP3    H225235   3.586   0.349   2.842  0.5602  1.5218 -0.7976
 1274TIP3   OH225236   6.705   1.635  15.443  0.1143 -0.3425  0.6363
 1274TIP3    H125237   6.635   1.679  15.491 -1.6877 -0.3304 -1.8100
 1274TIP3    H225238   6.746   1.576  15.507 -1.4959  0.3565  2.3769
 1275TIP3   OH225239   6.171   1.655   4.299  0.2430 -0.0001  0.0467
 1275TIP3    H125240   6.182   1.592   4.371  1.6882  1.4777  1.1963
 1275TIP3    H225241   6.084   1.636   4.264  0.4069 -2.2829  0.6660
 1276TIP3   OH225242   3.932   1.378  13.261 -0.0711 -0.2307 -0.8950
 1276TIP3    H125243   4.012   1.419  13.227 -0.5311  0.8896 -0.6412
 1276TIP3    H225244   3.941   1.382  13.356  0.2862 -1.5584 -0.8442
 1277TIP3   OH225245   2.561   2.548  16.141 -0.1619  0.1532 -0.5821
 1277TIP3    H125246   2.655   2.535  16.150 -0.4295 -1.3999  0.3957
 1277TIP3    H225247   2.531   2.475  16.086 -0.9146  0.0094 -0.0134
 1278TIP3   OH225248   1.753   4.437  16.223  0.2125  0.3855 -0.6575
 1278TIP3    H125249   1.700   4.384  16.282 -1.9748  1.6164 -1.4235
 1278TIP3    H225250   1.790   4.373  16.161 -0.1224 -0.5379  0.0662
 1279TIP3   OH225251   4.878   0.590   2.795 -0.0767  0.3872  0.1802
 1279TIP3    H125252   4.934   0.515   2.774  1.7800  2.0503 -1.3819
 1279TIP3    H225253   4.894   0.607   2.888  1.4046  0.2702 -0.0214
 1280TIP3   OH225254   1.363   0.622  17.168 -0.4572 -0.0604 -0.4488
 1280TIP3    H125255   1.445   0.587  17.203 -1.5291 -2.3884 -0.0268
 1280TIP3    H225256   1.389   0.670  17.089  1.3753 -0.0704  0.1096
 1281TIP3   OH225257   2.893   6.775   1.760  0.1537  0.3251 -0.8710
 1281TIP3    H125258   2.861   6.743   1.676  0.8246  1.2710 -1.5093
 1281TIP3    H225259   2.858   6.864   1.766  0.2851  0.3378 -0.2419
 1282TIP3   OH225260   0.861   3.522   6.028  0.2774 -0.2968  0.9456
 1282TIP3    H125261   0.948   3.558   6.015 -0.4345  1.2159  0.1790
 1282TIP3    H225262   0.870   3.429   6.005  1.4217  0.0735 -0.2119
 1283TIP3   OH225263   2.868   0.270   1.817  0.6461 -0.2112 -0.4205
 1283TIP3    H125264   2.913   0.331   1.759  1.2502 -1.5978 -1.4704
 1283TIP3    H225265   2.860   0.317   1.900  1.8589  0.9688 -0.9374
 1284TIP3   OH225266   3.748   4.797  13.095 -0.2275  0.0916 -0.4290
 1284TIP3    H125267   3.655   4.773  13.092 -0.2715  0.1147  0.5683
 1284TIP3    H225268   3.765   4.817  13.187  0.6856  0.4255 -0.6606
 1285TIP3   OH225269   1.821   0.656   0.724  0.2492 -0.5050 -0.2127
 1285TIP3    H125270   1.847   0.567   0.701  0.2166 -0.3210 -1.0186
 1285TIP3    H225271   1.851   0.668   0.814  1.0834 -1.0147 -0.4106
 1286TIP3   OH225272   2.417   1.286  14.257  0.3418  0.5959  0.5717
 1286TIP3    H125273   2.412   1.371  14.299 -0.5137 -0.8495  3.7503
 1286TIP3    H225274   2.331   1.274  14.217 -0.0781  0.6445  1.4391
 1287TIP3   OH225275   1.544   3.704   5.106  0.5719  0.2027 -0.1566
 1287TIP3    H125276   1.611   3.670   5.167  1.2473  0.3892 -0.7855
 1287TIP3    H225277   1.574   3.677   5.020 -0.0201  0.5476 -0.4770
 1288TIP3   OH225278   1.466   2.031   3.554  0.1201  0.1848  0.7007
 1288TIP3    H125279   1.447   2.114   3.598 -0.5673  0.2019  0.3846
 1288TIP3    H225280   1.381   1.989   3.545  0.2204  0.2680 -0.7892
 1289TIP3   OH225281   6.123   2.732  13.103  0.1567 -0.6542  0.1690
 1289TIP3    H125282   6.075   2.790  13.044 -0.2486  1.5591  2.5036
 1289TIP3    H225283   6.186   2.687  13.046 -0.7975  0.6696 -2.0609
 1290TIP3   OH225284   1.494   6.283   3.849  0.0786 -0.2403  0.0891
 1290TIP3    H125285   1.422   6.332   3.809 -0.6062 -0.5478  0.9142
 1290TIP3    H225286   1.485   6.194   3.814  0.5958 -0.0689 -0.4862
 1291TIP3   OH225287   5.668   4.782  15.615  0.5642 -0.2511  0.2559
 1291TIP3    H125288   5.639   4.787  15.524 -0.0358  0.9300  0.4834
 1291TIP3    H225289   5.762   4.770  15.611  0.4914 -0.5825 -0.5165
 1292TIP3   OH225290   0.703   6.103   5.805  0.3613 -0.1919  0.0340
 1292TIP3    H125291   0.764   6.077   5.874 -1.0435 -2.3022  0.5595
 1292TIP3    H225292   0.726   6.048   5.730 -1.7866 -2.2114  0.7315
 1293TIP3   OH225293   4.890   2.212  16.325  0.4707  0.5709  0.5853
 1293TIP3    H125294   4.852   2.290  16.367 -1.3137 -0.3244  0.7471
 1293TIP3    H225295   4.816   2.152  16.317  1.5758 -0.6870 -0.5499
 1294TIP3   OH225296   0.597   0.760   4.615 -0.4983  0.1070 -0.0222
 1294TIP3    H125297   0.652   0.688   4.584 -1.3938  0.3095 -2.2009
 1294TIP3    H225298   0.620   0.834   4.559 -0.0808  1.3825  1.7481
 1295TIP3   OH225299   2.600   1.008   3.933 -0.1054 -0.6451  0.1880
 1295TIP3    H125300   2.683   0.967   3.956 -1.1843 -1.4679  3.0296
 1295TIP3    H225301   2.568   0.957   3.859  2.5541  0.7004 -2.0587
 1296TIP3   OH225302   0.618   4.878  16.711 -0.3324  0.0286  0.0637
 1296TIP3    H125303   0.531   4.917  16.719 -0.0432  1.2065 -1.9275
 1296TIP3    H225304   0.613   4.823  16.633  1.2479  1.8042 -1.3773
 1297TIP3   OH225305   2.733   4.242   4.872 -0.3998  0.5771 -0.0896
 1297TIP3    H125306   2.750   4.179   4.941 -0.2291 -0.2254 -0.8497
 1297TIP3    H225307   2.793   4.314   4.890 -0.7051  0.5932  0.8687
 1298TIP3   OH225308   1.566   5.036  11.572  0.4394 -0.5958 -0.6882
 1298TIP3    H125309   1.630   4.974  11.605  1.3377 -0.0926 -1.4599
 1298TIP3    H225310   1.615   5.116  11.556 -0.7070  0.3667  0.3698
 1299TIP3   OH225311   1.061   6.549  11.665  0.6178  0.0904 -0.1599
 1299TIP3    H125312   0.987   6.555  11.604  0.1975  0.3079  0.3704
 1299TIP3    H225313   1.039   6.478  11.724  1.5086 -0.8247 -0.8850
 1300TIP3   OH225314   4.838   1.282  12.793 -0.4482 -0.5847 -0.4783
 1300TIP3    H125315   4.889   1.206  12.765 -0.3024 -0.2400 -1.1677
 1300TIP3    H225316   4.804   1.257  12.878  1.5428 -0.5193  0.3940
 1301TIP3   OH225317   2.865   3.442   0.399 -0.9354  0.0351 -0.4339
 1301TIP3    H125318   2.884   3.354   0.365 -0.5599 -1.9518  4.2440
 1301TIP3    H225319   2.945   3.469   0.443 -1.8964  1.5794  0.4768
 1302TIP3   OH225320   0.347   3.908  16.750 -0.0108  0.9075  0.2771
 1302TIP3    H125321   0.442   3.908  16.734 -0.0301 -0.8303 -0.0429
 1302TIP3    H225322   0.325   4.000  16.765  1.5066  1.5091 -0.9475
 1303TIP3   OH225323   0.061   0.111  11.429  0.0691 -0.0927  0.1432
 1303TIP3    H125324   0.119   0.087  11.500 -0.7651 -0.0722  0.8481
 1303TIP3    H225325  -0.019   0.061  11.445 -0.0903 -0.1862 -0.8518
 1304TIP3   OH225326   4.163   1.756  15.363  0.2503 -0.3492  0.9673
 1304TIP3    H125327   4.198   1.670  15.343  1.2294 -0.1769  1.8760
 1304TIP3    H225328   4.234   1.801  15.410 -0.8508  0.3412  2.0258
 1305TIP3   OH225329   5.754   4.638  11.277 -0.5557 -0.4224  0.3086
 1305TIP3    H125330   5.841   4.635  11.316 -0.0685 -3.5925 -0.7214
 1305TIP3    H225331   5.697   4.596  11.342 -0.9080 -0.1831  0.1555
 1306TIP3   OH225332   2.580   5.066  14.107 -0.0217 -0.1872 -0.0219
 1306TIP3    H125333   2.658   5.103  14.065 -0.2792 -0.3146 -0.6246
 1306TIP3    H225334   2.519   5.139  14.113 -1.1647 -0.8212 -2.7308
 1307TIP3   OH225335   2.079   1.378  15.584  0.8598 -0.7494 -0.0766
 1307TIP3    H125336   2.107   1.459  15.627 -1.8741  0.1169  0.2158
 1307TIP3    H225337   2.068   1.315  15.655 -0.2896 -0.3579  0.0958
 1308TIP3   OH225338   6.160   4.882  16.675 -0.3717  0.2390  0.5323
 1308TIP3    H125339   6.224   4.838  16.732  1.9986  1.9340 -0.6101
 1308TIP3    H225340   6.182   4.975  16.683 -2.9247  0.9404  0.2390
 1309TIP3   OH225341   3.099   2.593   1.331 -0.3388 -0.1256 -0.4075
 1309TIP3    H125342   3.145   2.559   1.254 -0.3774 -0.3883 -0.3128
 1309TIP3    H225343   3.150   2.561   1.405 -0.2923  0.1436 -0.3234
 1310TIP3   OH225344   0.992   5.207  11.935 -0.5404  0.0963  0.5127
 1310TIP3    H125345   0.951   5.155  11.866  1.5854 -0.2269 -0.5975
 1310TIP3    H225346   1.050   5.145  11.979 -0.3057  0.8123  1.2160
 1311TIP3   OH225347   6.459   2.689  17.283  0.2602 -0.1722 -0.1560
 1311TIP3    H125348   6.405   2.614  17.257 -0.0727 -0.0231  0.1029
 1311TIP3    H225349   6.457   2.688  17.379  1.6778 -0.8616 -0.1105
 1312TIP3   OH225350   4.800   0.215  15.292 -0.3190 -0.1872  0.2251
 1312TIP3    H125351   4.849   0.133  15.285 -1.2390 -0.8652  1.4294
 1312TIP3    H225352   4.717   0.198  15.247  0.3363  0.8433 -1.4919
 1313TIP3   OH225353   1.772   6.236   3.047 -0.2094 -0.0633 -0.0267
 1313TIP3    H125354   1.764   6.230   3.143 -0.5422  1.2766  0.0442
 1313TIP3    H225355   1.685   6.261   3.017 -0.1810 -0.7778 -0.7204
 1314TIP3   OH225356   6.074   5.506   4.983 -0.7109  0.0573 -0.2107
 1314TIP3    H125357   6.103   5.457   4.906  0.9323  0.2472  0.2533
 1314TIP3    H225358   6.099   5.597   4.964 -0.3160  0.1094  0.5315
 1315TIP3   OH225359   2.919   2.153  17.064  0.2464 -0.0207 -0.4629
 1315TIP3    H125360   2.955   2.149  16.976 -0.5106 -0.6205 -0.7553
 1315TIP3    H225361   2.833   2.192  17.054  0.4294  0.5443  0.1075
 1316TIP3   OH225362   3.863   1.743  15.680  0.3062  0.2119 -1.0909
 1316TIP3    H125363   3.915   1.819  15.706  0.8125 -0.2320 -0.7836
 1316TIP3    H225364   3.900   1.671  15.730  0.5827 -0.4603 -2.2259
 1317TIP3   OH225365   2.752   1.777   5.814  0.1681 -0.3957 -0.4736
 1317TIP3    H125366   2.829   1.721   5.805 -1.1996 -2.4013 -0.4625
 1317TIP3    H225367   2.680   1.716   5.831 -1.3770  1.4217 -0.1244
 1318TIP3   OH225368   6.355   3.872  16.620  0.0395 -0.3020  0.4129
 1318TIP3    H125369   6.299   3.880  16.543  1.1285 -1.5919 -0.5469
 1318TIP3    H225370   6.388   3.782  16.617  1.7835  0.2730  1.2017
 1319TIP3   OH225371   2.997   3.522  11.727 -0.2061  0.6037  0.2150
 1319TIP3    H125372   2.968   3.596  11.780  0.5115  0.1746  1.2308
 1319TIP3    H225373   3.092   3.535  11.720 -0.3474  1.0050 -1.5257
 1320TIP3   OH225374   5.947   3.948  16.976  0.0370  0.2228  0.2293
 1320TIP3    H125375   5.889   3.955  16.900  1.0685 -0.4977 -0.6564
 1320TIP3    H225376   6.035   3.946  16.939  0.7678  2.6109  1.6007
 1321TIP3   OH225377   4.279   6.577  14.559  0.1362 -0.0451 -0.0300
 1321TIP3    H125378   4.196   6.531  14.572  0.6348 -1.1494 -0.5436
 1321TIP3    H225379   4.321   6.528  14.488  2.2318 -0.9592  1.7310
 1322TIP3   OH225380   0.585   5.218   3.348  0.4899  0.1244 -0.0663
 1322TIP3    H125381   0.637   5.221   3.428 -1.6302  2.2458  1.3745
 1322TIP3    H225382   0.642   5.178   3.283  2.7152 -0.5926  2.1941
 1323TIP3   OH225383   4.933   0.511   4.473  0.3080  0.0292 -0.0792
 1323TIP3    H125384   4.968   0.429   4.506 -2.1975 -0.5097  1.4481
 1323TIP3    H225385   4.848   0.521   4.515 -0.3091  2.4950 -1.6440
 1324TIP3   OH225386   6.454   0.016  13.401 -0.7808 -1.0519  0.3103
 1324TIP3    H125387   6.416   0.026  13.314 -1.5741  0.4298  0.7983
 1324TIP3    H225388   6.398   0.068  13.458  0.1097 -1.4604  1.6119
 1325TIP3   OH225389   2.287   2.687   1.169 -0.2139 -0.5657  0.1092
 1325TIP3    H125390   2.229   2.719   1.238  0.5408  1.1719 -0.0101
 1325TIP3    H225391   2.368   2.736   1.182  0.4699 -1.3475 -1.0727
 1326TIP3   OH225392   6.115   6.446  13.641 -0.3827 -0.2259  0.3710
 1326TIP3    H125393   6.147   6.363  13.605 -0.0874  0.7752 -1.9198
 1326TIP3    H225394   6.143   6.446  13.732  2.1256 -1.4497 -0.3084
 1327TIP3   OH225395   3.757   3.880  16.375  0.0364 -0.0126 -0.1058
 1327TIP3    H125396   3.744   3.941  16.302  0.0614  0.3749  0.2139
 1327TIP3    H225397   3.706   3.803  16.351  0.3238 -0.0289 -0.6984
 1328TIP3   OH225398   3.441   3.533   5.503  0.1766  0.3237 -0.0969
 1328TIP3    H125399   3.440   3.517   5.598  0.3210 -0.0512 -0.1582
 1328TIP3    H225400   3.511   3.477   5.470 -0.9524 -0.8161 -0.6484
 1329TIP3   OH225401   1.978   6.311   4.810  0.1073  0.4647  0.0330
 1329TIP3    H125402   1.920   6.385   4.788  0.6637  1.1414  0.8093
 1329TIP3    H225403   2.011   6.331   4.897 -0.6740 -1.3115  0.7981
 1330TIP3   OH225404   0.897   4.869   3.923 -0.2735  0.7900 -0.3473
 1330TIP3    H125405   0.878   4.800   3.987 -0.1420  1.1704  0.1077
 1330TIP3    H225406   0.813   4.885   3.880 -0.6379  1.3328  0.5328
 1331TIP3   OH225407   2.157   6.651  12.784  0.6282  0.1446 -0.4523
 1331TIP3    H125408   2.208   6.690  12.713  0.8174  1.5690  0.4154
 1331TIP3    H225409   2.221   6.597  12.831  0.6203 -0.4030 -1.0545
 1332TIP3   OH225410   5.679   3.956   4.725 -1.1576 -0.1283 -0.6833
 1332TIP3    H125411   5.735   3.904   4.668  1.0566 -0.2046  1.3673
 1332TIP3    H225412   5.672   3.904   4.805  0.3130  2.1805  1.0744
 1333TIP3   OH225413   1.081   2.454   3.363 -0.1210 -0.3565 -0.7687
 1333TIP3    H125414   1.074   2.404   3.282 -1.0901 -0.0321 -0.8963
 1333TIP3    H225415   1.008   2.422   3.417  1.3214 -1.6073  0.5790
 1334TIP3   OH225416   2.877   6.012   0.837 -0.1015 -0.4429 -0.1195
 1334TIP3    H125417   2.910   5.967   0.759 -0.5969  0.0200 -0.6116
 1334TIP3    H225418   2.914   5.964   0.911  0.0662 -1.1214 -0.6396
 1335TIP3   OH225419   4.066   1.801   2.338 -0.4869  0.0295  0.4478
 1335TIP3    H125420   4.150   1.775   2.301 -1.7492 -2.0305 -1.2016
 1335TIP3    H225421   4.040   1.727   2.394 -1.4082  0.4206  0.5567
 1336TIP3   OH225422   2.481   2.280   1.577 -0.1649  0.0130  0.5935
 1336TIP3    H125423   2.447   2.196   1.609  0.8166 -0.3406  0.7597
 1336TIP3    H225424   2.529   2.316   1.651 -1.0214  0.9935  0.6931
 1337TIP3   OH225425   3.535   4.674   5.702 -0.6688  0.2700 -0.4945
 1337TIP3    H125426   3.516   4.622   5.779 -1.0602 -0.2734 -0.9497
 1337TIP3    H225427   3.529   4.765   5.732  1.4316  0.0863  0.6555
 1338TIP3   OH225428   1.644   0.730  16.055  0.2577  0.1431  0.1432
 1338TIP3    H125429   1.659   0.787  16.130 -0.8308  0.2247  0.3083
 1338TIP3    H225430   1.724   0.678  16.049  1.0791  1.3415  0.2746
 1339TIP3   OH225431   3.089   0.551   0.063  0.4934 -0.2240  0.6328
 1339TIP3    H125432   3.076   0.641   0.093  0.0819 -0.0958  0.0855
 1339TIP3    H225433   3.147   0.559  -0.013 -1.0589 -0.2115 -0.6093
 1340TIP3   OH225434   0.158   1.692   5.416  0.2950  0.5250  0.3391
 1340TIP3    H125435   0.211   1.617   5.443  1.1512  0.4298 -1.5216
 1340TIP3    H225436   0.221   1.761   5.395 -0.3707  0.9249 -0.4296
 1341TIP3   OH225437   5.989   6.107  11.127 -0.4505  0.1929  0.1547
 1341TIP3    H125438   5.996   6.176  11.061  2.3137 -0.1007  0.0219
 1341TIP3    H225439   6.067   6.054  11.114 -1.1939 -1.4590  1.9516
 1342TIP3   OH225440   5.974   1.092  11.730  0.3605  0.0893  0.5947
 1342TIP3    H125441   5.907   1.039  11.686 -0.0626  0.9587  0.1557
 1342TIP3    H225442   5.969   1.177  11.685  0.6760  0.6520  1.6118
 1343TIP3   OH225443   0.877   5.633   0.121  0.1423 -0.6277 -0.4289
 1343TIP3    H125444   0.809   5.654   0.057  0.2569  0.5795 -0.1757
 1343TIP3    H225445   0.829   5.611   0.201  0.0471  0.4146 -0.1941
 1344TIP3   OH225446   1.314   0.225  16.603 -0.4562  0.5111 -0.0245
 1344TIP3    H125447   1.393   0.263  16.642 -0.2116  0.5587 -0.5524
 1344TIP3    H225448   1.337   0.211  16.511 -0.7416 -0.3646  0.0238
 1345TIP3   OH225449   0.722   4.326   4.751 -0.3123  0.6191  0.5478
 1345TIP3    H125450   0.742   4.242   4.712  1.2892  1.1344  0.2054
 1345TIP3    H225451   0.632   4.316   4.784 -0.6673 -0.7384 -0.7229
 1346TIP3   OH225452   4.107   4.711   0.824  0.1393 -0.0487 -0.1133
 1346TIP3    H125453   4.031   4.661   0.852  0.0292  0.3008  0.2200
 1346TIP3    H225454   4.114   4.695   0.730 -0.3587 -0.0623 -0.1473
 1347TIP3   OH225455   0.580   4.296  15.691 -0.0301  0.6873  0.1770
 1347TIP3    H125456   0.515   4.354  15.731 -0.9413  0.5004 -0.9800
 1347TIP3    H225457   0.536   4.210  15.688 -0.2932  0.8440 -1.8528
 1348TIP3   OH225458   3.211   5.268   2.771 -0.2310  0.0595 -0.4600
 1348TIP3    H125459   3.204   5.176   2.744 -0.3943 -0.3632  0.9678
 1348TIP3    H225460   3.293   5.273   2.820  0.7491  1.1166 -2.1161
 1349TIP3   OH225461   3.238   0.640  14.302 -0.0331  0.0821 -0.0132
 1349TIP3    H125462   3.313   0.677  14.348 -2.1442  0.8399  3.0963
 1349TIP3    H225463   3.247   0.545  14.314  0.7701  0.1174 -0.2902
 1350TIP3   OH225464   5.906   3.868   1.913 -0.3216 -0.2788 -0.2256
 1350TIP3    H125465   5.855   3.787   1.909  1.3594 -1.5147  1.5560
 1350TIP3    H225466   5.851   3.927   1.965 -0.8464 -0.8682 -0.0899
 1351TIP3   OH225467   0.163   4.349   2.120  0.0076 -0.1753  0.9424
 1351TIP3    H125468   0.180   4.308   2.035 -1.0795 -1.2780  1.2350
 1351TIP3    H225469   0.070   4.370   2.118 -0.6207 -2.3993  2.7267
 1352TIP3   OH225470   5.450   4.358   0.647 -0.4314 -0.3073  0.2083
 1352TIP3    H125471   5.535   4.401   0.661 -0.6469 -0.1486  1.1418
 1352TIP3    H225472   5.434   4.310   0.728  0.3818 -3.2624 -1.2758
 1353TIP3   OH225473   4.184   6.753   5.878  0.3833 -0.3273 -0.3374
 1353TIP3    H125474   4.192   6.696   5.954 -1.0216 -0.7912 -0.4929
 1353TIP3    H225475   4.177   6.693   5.804 -0.3762  0.0414 -0.5805
 1354TIP3   OH225476   5.743   3.664   5.217  0.0151  0.6450 -0.0733
 1354TIP3    H125477   5.706   3.658   5.129 -1.7677 -1.6174  0.7609
 1354TIP3    H225478   5.838   3.657   5.203 -0.2641 -0.2863 -1.7835
 1355TIP3   OH225479   3.794   0.381   3.366  0.2314 -0.3560 -0.2248
 1355TIP3    H125480   3.790   0.334   3.449 -0.1351 -0.1764 -0.1359
 1355TIP3    H225481   3.853   0.455   3.384 -0.4107  0.0922  0.0950
 1356TIP3   OH225482   6.514   4.330   2.168  0.7011  0.8282  0.1415
 1356TIP3    H125483   6.591   4.355   2.117  0.6763  0.8355  0.1065
 1356TIP3    H225484   6.500   4.238   2.147  1.4178  0.4901  1.0890
 1357TIP3   OH225485   3.841   3.169  15.018 -0.4480  0.1307  0.3043
 1357TIP3    H125486   3.774   3.201  14.957 -0.4913 -0.4044  0.0701
 1357TIP3    H225487   3.913   3.140  14.962 -1.3111 -2.3286  0.3430
 1358TIP3   OH225488   1.692   2.222  12.113  0.1859 -0.4348 -0.3277
 1358TIP3    H125489   1.678   2.230  12.208  0.6776  0.2689 -0.3063
 1358TIP3    H225490   1.783   2.193  12.105  0.4591  0.4434 -0.5949
 1359TIP3   OH225491   1.610   5.112  12.069 -0.4792 -0.2063  0.2791
 1359TIP3    H125492   1.555   5.110  12.147 -0.4888  0.2209  0.2874
 1359TIP3    H225493   1.549   5.126  11.997 -0.3640  0.5622  0.3173
 1360TIP3   OH225494   2.205   5.424   4.827  0.3045 -0.5119 -0.1473
 1360TIP3    H125495   2.265   5.497   4.815  0.8349 -0.7357  1.0463
 1360TIP3    H225496   2.190   5.419   4.921  0.1813 -1.8625 -0.2137
 1361TIP3   OH225497   4.848   0.962   2.499  0.3649  0.5665 -0.0050
 1361TIP3    H125498   4.863   1.056   2.493 -1.0521  1.1945  3.8980
 1361TIP3    H225499   4.754   0.953   2.514  0.7211 -1.3113  1.4445
 1362TIP3   OH225500   5.004   5.646  14.205 -0.2147  0.0440  0.2743
 1362TIP3    H125501   5.022   5.723  14.258 -1.6673 -1.3471  2.9893
 1362TIP3    H225502   4.969   5.682  14.123  2.2554  2.2804  0.0656
 1363TIP3   OH225503   0.524   5.637   5.636 -0.6058  0.1602  0.1380
 1363TIP3    H125504   0.456   5.572   5.650  0.2706 -0.3791  2.3126
 1363TIP3    H225505   0.527   5.687   5.718  0.0626  1.6732 -0.7638
 1364TIP3   OH225506   0.797   3.493   0.123  0.0189  0.0618  0.2035
 1364TIP3    H125507   0.753   3.414   0.156 -0.3886 -0.2070 -0.9117
 1364TIP3    H225508   0.734   3.530   0.061 -0.4934  2.2072  1.9161
 1365TIP3   OH225509   0.878   3.838   5.031  0.2586 -0.3701 -0.3694
 1365TIP3    H125510   0.919   3.906   5.083  0.7163  0.6345 -1.9871
 1365TIP3    H225511   0.839   3.778   5.095  1.5591  0.3329  1.1164
 1366TIP3   OH225512   0.533   1.183   0.663 -0.0038  0.0336  0.4759
 1366TIP3    H125513   0.493   1.196   0.577  1.9587 -2.4217 -0.9429
 1366TIP3    H225514   0.465   1.139   0.714 -0.9175  0.8020 -0.0438
 1367TIP3   OH225515   5.690   2.071  12.057  0.0372  0.4286 -0.8865
 1367TIP3    H125516   5.768   2.080  12.002  1.7270  2.2192  1.6029
 1367TIP3    H225517   5.721   2.031  12.138 -1.4496  1.8451  0.4537
 1368TIP3   OH225518   0.274   4.262  16.521  0.1153 -0.1179 -0.3941
 1368TIP3    H125519   0.300   4.257  16.613 -0.9298  0.7544 -0.0323
 1368TIP3    H225520   0.343   4.314  16.480 -0.7301  1.7862  0.4632
 1369TIP3   OH225521   3.035   1.203   0.792  0.5018 -0.1630  0.1760
 1369TIP3    H125522   2.939   1.204   0.797  0.4454  1.0568 -0.6331
 1369TIP3    H225523   3.055   1.119   0.749 -0.0910 -1.1066  1.6734
 1370TIP3   OH225524   1.026   1.819   3.460  0.3112 -0.1043 -0.4647
 1370TIP3    H125525   0.976   1.815   3.379 -0.1356  0.8899 -0.2504
 1370TIP3    H225526   0.977   1.764   3.521  0.6038 -0.7872 -0.8318
 1371TIP3   OH225527   2.490   5.503  16.253  0.2793  0.2006  0.1819
 1371TIP3    H125528   2.472   5.590  16.290 -0.4890 -0.2997  1.0123
 1371TIP3    H225529   2.410   5.479  16.208 -1.1239 -1.7886  3.4130
 1372TIP3   OH225530   6.551   3.193  11.337  0.0853  0.1737 -0.2359
 1372TIP3    H125531   6.621   3.181  11.272  0.3474  0.5519 -0.0275
 1372TIP3    H225532   6.516   3.280  11.318  1.3090  1.0381  1.1969
 1373TIP3   OH225533   4.757   3.573  13.239 -0.5771  0.6208 -0.3110
 1373TIP3    H125534   4.743   3.579  13.145 -1.6982 -0.3315 -0.2242
 1373TIP3    H225535   4.672   3.595  13.278 -0.2889  0.4311  0.4603
 1374TIP3   OH225536   0.397   4.597  14.338 -0.2924  0.1680 -0.9083
 1374TIP3    H125537   0.372   4.611  14.430  0.4558  0.9062 -0.8098
 1374TIP3    H225538   0.439   4.511  14.338  1.7156  1.0758 -0.1045
 1375TIP3   OH225539   4.122   0.532   2.584 -0.1386 -0.4941  0.6241
 1375TIP3    H125540   4.104   0.492   2.669  0.2349  0.5832  1.2283
 1375TIP3    H225541   4.206   0.495   2.558 -0.1710 -0.7022  0.8078
 1376TIP3   OH225542   3.251   6.606   1.202 -0.0859 -0.3812  0.1338
 1376TIP3    H125543   3.225   6.691   1.235 -0.4478 -0.0954 -0.8418
 1376TIP3    H225544   3.274   6.555   1.280 -0.4564  0.4056  0.7647
 1377TIP3   OH225545   0.466   3.500   4.767  0.3267 -0.1412  0.1222
 1377TIP3    H125546   0.448   3.431   4.703  0.3820 -0.8475  0.8492
 1377TIP3    H225547   0.502   3.572   4.716 -0.7936 -0.2120 -0.8128
 1378TIP3   OH225548   4.282   5.176   4.040 -0.0105 -0.0211  0.2583
 1378TIP3    H125549   4.225   5.102   4.019 -2.0837  1.1900  1.1945
 1378TIP3    H225550   4.221   5.250   4.049  1.6612  1.2319  2.0124
 1379TIP3   OH225551   0.461   0.815  12.589  0.1241 -0.9940 -0.2305
 1379TIP3    H125552   0.501   0.902  12.592 -0.8021 -0.5708  0.0591
 1379TIP3    H225553   0.385   0.821  12.646  1.3037 -2.6496  1.6705
 1380TIP3   OH225554   6.005   4.235  13.824  0.4618  0.1217 -0.5140
 1380TIP3    H125555   6.073   4.268  13.764  2.6745  0.7100  2.1081
 1380TIP3    H225556   5.949   4.311  13.840  0.9840  0.4872 -0.3841
 1381TIP3   OH225557   1.374   2.590   5.117  0.5232 -0.6066  0.0208
 1381TIP3    H125558   1.396   2.589   5.210  1.7998  0.6302 -0.2270
 1381TIP3    H225559   1.355   2.682   5.098  2.8204 -0.3773 -1.4668
 1382TIP3   OH225560   0.702   1.819  11.520  0.4453 -0.0639  0.0258
 1382TIP3    H125561   0.679   1.768  11.442 -1.2651  0.3307  0.2228
 1382TIP3    H225562   0.637   1.793  11.586 -0.3585  2.1294  0.2047
 1383TIP3   OH225563   3.867   3.130  13.768  0.0024 -0.3212  0.0207
 1383TIP3    H125564   3.847   3.207  13.715  1.5847  0.3400  0.3192
 1383TIP3    H225565   3.793   3.071  13.753 -0.2740  0.4051 -1.8200
 1384TIP3   OH225566   5.148   1.306  14.374  0.5410 -0.2205  0.1740
 1384TIP3    H125567   5.053   1.289  14.374 -0.0961  2.8823 -0.0673
 1384TIP3    H225568   5.160   1.379  14.435  2.5717  0.4614 -0.9473
 1385TIP3   OH225569   1.049   3.700   1.662 -0.1660  0.2570  0.4950
 1385TIP3    H125570   1.048   3.770   1.597  0.0034 -0.0928  0.1142
 1385TIP3    H225571   0.958   3.672   1.669  0.0945 -1.1155 -1.1306
 1386TIP3   OH225572   3.112   5.450   5.441 -0.5873 -0.1121  0.2641
 1386TIP3    H125573   3.082   5.361   5.463 -2.7432  0.5273  0.1740
 1386TIP3    H225574   3.170   5.474   5.512 -0.6383 -1.2770  0.7320
 1387TIP3   OH225575   0.013   5.818  16.578  0.1201 -0.0140  0.3333
 1387TIP3    H125576  -0.010   5.729  16.603  1.3062 -0.0516  1.4375
 1387TIP3    H225577  -0.017   5.872  16.651  0.3207  0.3518  0.1489
 1388TIP3   OH225578   6.356   0.900  17.234  0.1027 -0.1995  0.4076
 1388TIP3    H125579   6.450   0.893  17.221  0.4432  2.3830  1.0793
 1388TIP3    H225580   6.345   0.908  17.329 -0.5948  1.4925  0.2150
 1389TIP3   OH225581   5.962   0.265   1.743 -0.1787 -0.5666  0.0599
 1389TIP3    H125582   6.025   0.194   1.730  0.2792 -0.1712  0.1084
 1389TIP3    H225583   5.953   0.305   1.657 -0.3938 -0.6457  0.0456
 1390TIP3   OH225584   2.287   4.302   5.192 -0.1246 -0.6151 -0.2494
 1390TIP3    H125585   2.331   4.375   5.148 -1.6316 -0.0113 -0.8434
 1390TIP3    H225586   2.338   4.288   5.271  0.4508  0.8203 -0.3195
 1391TIP3   OH225587   2.828   1.019   1.914 -0.2131 -0.3593  0.3610
 1391TIP3    H125588   2.760   1.086   1.905 -0.2313 -0.5385 -1.0969
 1391TIP3    H225589   2.784   0.945   1.956 -0.7551 -0.2225  0.0402
 1392TIP3   OH225590   6.622   4.956   4.708 -0.0744 -0.4508  0.6304
 1392TIP3    H125591   6.643   4.870   4.743 -0.8062 -0.2268  1.6970
 1392TIP3    H225592   6.588   4.939   4.620 -0.1711 -1.2439  0.8157
 1393TIP3   OH225593   2.077   0.308  16.511 -0.0354  0.0925 -0.1380
 1393TIP3    H125594   2.151   0.320  16.452 -1.1068  1.5427 -1.2621
 1393TIP3    H225595   2.000   0.318  16.456 -1.0787 -0.5052  1.1610
 1394TIP3   OH225596   5.244   0.854  12.236  0.2118  0.2073  0.4947
 1394TIP3    H125597   5.204   0.939  12.253  0.5788  0.3760  0.5329
 1394TIP3    H225598   5.313   0.846  12.302 -0.6954 -0.7289  1.3853
 1395TIP3   OH225599   2.684   2.409  16.791 -0.3505  0.1367  0.4950
 1395TIP3    H125600   2.776   2.432  16.800 -0.2393 -0.3074  0.5136
 1395TIP3    H225601   2.682   2.344  16.721 -0.6385  0.0766  0.5552
 1396TIP3   OH225602   4.147   3.589   2.319  0.3353  0.5469  0.8751
 1396TIP3    H125603   4.228   3.607   2.366  0.4415 -1.4542  1.5801
 1396TIP3    H225604   4.089   3.552   2.386 -0.1438 -0.6826 -0.1752
 1397TIP3   OH225605   1.442   6.622   1.216 -0.3633  0.2020  0.3125
 1397TIP3    H125606   1.376   6.618   1.285 -0.2681  2.0666  0.5742
 1397TIP3    H225607   1.512   6.677   1.252  0.9289 -0.9861 -0.2997
 1398TIP3   OH225608   1.901   4.478   5.625 -0.1376 -0.0132  0.3348
 1398TIP3    H125609   1.937   4.390   5.636 -0.5356 -0.4622 -1.5870
 1398TIP3    H225610   1.825   4.481   5.684 -0.8019 -1.3853 -0.4135
 1399TIP3   OH225611   0.323   1.736  11.513 -0.1104 -0.5622 -0.3344
 1399TIP3    H125612   0.334   1.828  11.487 -0.0547 -0.5765 -0.3608
 1399TIP3    H225613   0.409   1.709  11.542 -0.2493 -0.4465  0.1965
 1400TIP3   OH225614   4.704   4.718   3.671 -0.4214  0.0702 -0.5187
 1400TIP3    H125615   4.614   4.691   3.652 -1.0770  0.2098  2.0258
 1400TIP3    H225616   4.740   4.743   3.586 -2.1131 -1.8695 -1.9105
 1401TIP3   OH225617   4.118   2.553   0.676 -0.2377  0.0737  0.1521
 1401TIP3    H125618   4.162   2.569   0.592 -0.1514 -1.2037 -0.0820
 1401TIP3    H225619   4.175   2.592   0.741  0.4105 -0.1086 -0.2881
 1402TIP3   OH225620   4.190   2.183  16.168  0.2405  0.1391 -0.1366
 1402TIP3    H125621   4.258   2.175  16.101 -0.0220 -0.5287 -0.3372
 1402TIP3    H225622   4.144   2.264  16.146  3.1578  2.6379  2.0780
 1403TIP3   OH225623   5.040   2.365  17.167 -0.4685  0.4778 -0.4140
 1403TIP3    H125624   5.013   2.288  17.116  1.2422 -0.1352 -0.4494
 1403TIP3    H225625   5.002   2.351  17.254 -0.6235 -0.1347 -0.5778
 1404TIP3   OH225626   1.411   3.501   4.606 -0.0808 -0.2786  0.1423
 1404TIP3    H125627   1.376   3.489   4.694  1.0860  0.4281  0.7161
 1404TIP3    H225628   1.487   3.442   4.602 -0.1431 -0.3266 -0.4008
 1405TIP3   OH225629   3.748   4.092   4.427  0.2292 -0.2792 -0.4746
 1405TIP3    H125630   3.740   4.126   4.516 -0.9230  0.5056 -0.8608
 1405TIP3    H225631   3.659   4.090   4.394  0.3262 -2.8570 -0.8186
 1406TIP3   OH225632   4.400   6.484  12.796 -0.5183  0.1852  0.0032
 1406TIP3    H125633   4.347   6.557  12.766  2.6314  2.2679 -0.9323
 1406TIP3    H225634   4.449   6.518  12.871  3.5454  0.4320 -2.4589
 1407TIP3   OH225635   5.075   2.105   2.195 -0.0986 -0.0359 -0.3931
 1407TIP3    H125636   5.122   2.046   2.254 -0.2868  0.0563 -0.1544
 1407TIP3    H225637   5.137   2.177   2.180 -0.4054  0.4147  0.4420
 1408TIP3   OH225638   0.146   0.178   3.730 -0.5175  0.1954 -0.2626
 1408TIP3    H125639   0.128   0.266   3.695  0.9072  0.3229 -0.7664
 1408TIP3    H225640   0.067   0.154   3.778 -1.2106  1.4555 -0.7320
 1409TIP3   OH225641   0.397   2.667   3.875 -0.3734  0.1798  0.4444
 1409TIP3    H125642   0.428   2.747   3.917  0.4159  0.3917 -0.5115
 1409TIP3    H225643   0.316   2.693   3.831  0.5345  0.7928 -0.9219
 1410TIP3   OH225644   1.064   3.511  11.789 -0.3561  0.2682 -0.0796
 1410TIP3    H125645   1.050   3.582  11.852  0.9261  0.4809  0.0063
 1410TIP3    H225646   1.157   3.518  11.767 -0.8091  0.2890 -2.1326
 1411TIP3   OH225647   5.836   2.491  13.303 -0.7717  0.3144  0.4164
 1411TIP3    H125648   5.812   2.414  13.251  0.3132  0.2269  0.0290
 1411TIP3    H225649   5.851   2.560  13.239  3.4541 -0.5161  0.2029
 1412TIP3   OH225650   6.479   6.341  11.533 -0.1881  0.0232 -0.5953
 1412TIP3    H125651   6.457   6.342  11.626  1.8343 -1.1061 -0.0398
 1412TIP3    H225652   6.553   6.402  11.526  1.3902 -1.8314 -0.9093
 1413TIP3   OH225653   5.137   0.888   3.676  0.1631 -0.4139  0.0668
 1413TIP3    H125654   5.110   0.825   3.609 -0.4150  1.1311 -1.2075
 1413TIP3    H225655   5.055   0.929   3.705  0.5238 -0.2732  0.9189
 1414TIP3   OH225656   5.994   1.917   6.551  0.5088 -0.3199  0.1416
 1414TIP3    H125657   5.958   1.846   6.603  0.6836 -0.9310 -0.5592
 1414TIP3    H225658   5.918   1.971   6.528  0.3587 -0.3487  0.5692
 1415TIP3   OH225659   2.924   6.045  13.949  0.0452 -0.5933  0.0668
 1415TIP3    H125660   2.956   6.002  14.028  0.0007  0.1854  0.5196
 1415TIP3    H225661   2.945   5.984  13.878  1.4877 -0.6099  0.4782
 1416TIP3   OH225662   0.928   4.550   1.451  0.0262  0.5199 -0.2190
 1416TIP3    H125663   1.010   4.564   1.403  0.0338 -0.5234 -0.5190
 1416TIP3    H225664   0.860   4.556   1.384 -0.1647  1.4703  0.0435
 1417TIP3   OH225665   4.255   4.934   3.312  0.2043  0.0950 -0.2704
 1417TIP3    H125666   4.337   4.960   3.354  0.2960 -1.8845  0.8706
 1417TIP3    H225667   4.186   4.976   3.365  0.4140  1.5135 -1.0555
 1418TIP3   OH225668   3.950   5.069  12.367  0.2792  0.0212  0.1204
 1418TIP3    H125669   4.017   5.112  12.315  0.9661  0.2189  1.1450
 1418TIP3    H225670   3.885   5.137  12.385  0.6606  0.2779  0.5502
 1419TIP3   OH225671   3.442   4.454  11.971  0.3207  0.3470  0.2803
 1419TIP3    H125672   3.513   4.517  11.967  0.3796  0.2268 -1.0861
 1419TIP3    H225673   3.485   4.369  11.980  0.2482  0.4488  1.8880
 1420TIP3   OH225674   2.617   1.593  17.233 -0.4221  0.5375 -0.2677
 1420TIP3    H125675   2.694   1.557  17.276 -0.0735  0.9895 -0.4993
 1420TIP3    H225676   2.606   1.539  17.154  1.4034  2.2089 -1.7970
 1421TIP3   OH225677   2.228   2.215  14.154 -0.0342 -0.0553 -0.1154
 1421TIP3    H125678   2.291   2.247  14.090 -0.5814  1.3367  0.0071
 1421TIP3    H225679   2.270   2.139  14.193  1.1291  0.2411 -0.7506
 1422TIP3   OH225680   4.900   6.425   4.914  0.5385  0.1870 -0.7062
 1422TIP3    H125681   4.949   6.393   4.990  1.5731  0.1704 -1.3660
 1422TIP3    H225682   4.962   6.480   4.866 -0.0423  0.0591 -1.6381
 1423TIP3   OH225683   4.207   0.617   0.895  0.0651 -0.0003  0.3011
 1423TIP3    H125684   4.227   0.562   0.819 -0.3766  0.7877 -0.3960
 1423TIP3    H225685   4.131   0.574   0.935  0.2636 -0.3875  0.2680
 1424TIP3   OH225686   6.291   4.460   1.130  0.2895 -0.2949 -0.3607
 1424TIP3    H125687   6.202   4.435   1.107  0.5415 -0.7151 -0.9377
 1424TIP3    H225688   6.328   4.381   1.170  1.0044 -0.7995 -1.9316
 1425TIP3   OH225689   0.541   5.308   4.765  0.4730  0.2089 -0.7999
 1425TIP3    H125690   0.466   5.366   4.761  1.4858  1.8022  1.2388
 1425TIP3    H225691   0.616   5.365   4.747  1.5570 -0.2045  1.8769
 1426TIP3   OH225692   0.519   5.732   4.711 -0.7234  0.0387 -0.5838
 1426TIP3    H125693   0.542   5.821   4.683  0.4855 -0.5254 -1.4573
 1426TIP3    H225694   0.473   5.695   4.636 -2.5396  0.3798  0.3080
 1427TIP3   OH225695   5.564   5.127   4.930  0.2773  0.0190  0.4741
 1427TIP3    H125696   5.498   5.195   4.948 -0.6413 -1.2187  2.1407
 1427TIP3    H225697   5.647   5.167   4.958 -0.0648  0.8581  0.3308
 1428TIP3   OH225698   6.128   5.035   1.695 -0.0386  0.1383 -0.0938
 1428TIP3    H125699   6.217   5.069   1.700 -0.7216  1.9643  4.0023
 1428TIP3    H225700   6.121   4.974   1.769 -2.5710  1.4419  0.8717
 1429TIP3   OH225701   5.160   1.905  14.879 -0.2321 -0.1394  0.2222
 1429TIP3    H125702   5.172   1.840  14.810 -1.2398 -0.7507  0.5935
 1429TIP3    H225703   5.249   1.933  14.902  0.1311 -0.2751 -0.9788
 1430TIP3   OH225704   5.721   3.823   2.789 -0.1724 -0.3068 -0.1217
 1430TIP3    H125705   5.627   3.840   2.789 -0.5352 -1.7343  2.4126
 1430TIP3    H225706   5.736   3.771   2.710 -1.2276  1.0005 -1.2336
 1431TIP3   OH225707   0.029   6.747  17.271 -0.0333  0.5849  0.3726
 1431TIP3    H125708  -0.055   6.751  17.225  0.9475 -0.1422 -1.5722
 1431TIP3    H225709   0.018   6.677  17.335 -0.3768 -0.7362 -1.0757
 1432TIP3   OH225710   0.527   5.212  14.580  0.1045 -0.4517  0.0433
 1432TIP3    H125711   0.579   5.246  14.652 -0.0354  0.0396 -0.0830
 1432TIP3    H225712   0.436   5.219  14.610 -0.0124  0.5111 -0.4777
 1433TIP3   OH225713   0.746   3.535  13.338  0.2345 -0.3947  0.0979
 1433TIP3    H125714   0.657   3.504  13.323  0.0319 -0.1240  0.6942
 1433TIP3    H225715   0.748   3.622  13.299  0.0448 -0.1453  0.6372
 1434TIP3   OH225716   3.913   0.550  15.683  0.4255 -0.6731  0.6132
 1434TIP3    H125717   3.941   0.641  15.675 -1.2568 -0.2714 -1.1856
 1434TIP3    H225718   3.888   0.541  15.775  0.3831  0.7439  0.7632
 1435TIP3   OH225719   4.207   2.290  15.107  0.1743 -0.5241 -0.1717
 1435TIP3    H125720   4.155   2.293  15.026 -1.3604  2.6729  0.7755
 1435TIP3    H225721   4.240   2.379  15.118  2.6156 -1.5226  1.3895
 1436TIP3   OH225722   3.370   0.791   2.644 -0.3885 -1.0211 -0.4961
 1436TIP3    H125723   3.455   0.754   2.617 -0.2338 -1.1709  0.1686
 1436TIP3    H225724   3.320   0.716   2.674  0.4355 -0.6024  2.2146
 1437TIP3   OH225725   6.597   3.751   0.869 -0.4593 -0.0067 -0.1622
 1437TIP3    H125726   6.620   3.668   0.910  0.3169  1.0882  1.7332
 1437TIP3    H225727   6.671   3.771   0.812 -1.0020 -0.9498 -1.2474
 1438TIP3   OH225728   0.957   6.143  15.704 -1.0924 -0.4591 -0.0222
 1438TIP3    H125729   0.874   6.173  15.667 -0.8284 -2.4115 -2.5118
 1438TIP3    H225730   0.975   6.203  15.776 -3.9614  0.8554 -0.2664
 1439TIP3   OH225731   3.474   5.338  15.660  0.5361 -0.3135 -0.0315
 1439TIP3    H125732   3.419   5.414  15.680  0.5367 -0.3641  0.1666
 1439TIP3    H225733   3.513   5.314  15.744  0.4483 -0.6028 -0.0728
 1440TIP3   OH225734   4.274   5.329   1.197  0.3665 -0.2879  0.2014
 1440TIP3    H125735   4.359   5.299   1.163  1.8399  1.0783  2.4641
 1440TIP3    H225736   4.288   5.338   1.291 -2.3390 -0.0197  0.6455
 1441TIP3   OH225737   2.537   0.745   5.411 -0.5355 -0.0959  0.2223
 1441TIP3    H125738   2.553   0.745   5.505  0.5642  1.1522  0.0679
 1441TIP3    H225739   2.624   0.747   5.371 -0.9705  1.2538 -0.7731
 1442TIP3   OH225740   5.717   4.559   3.409  0.7614  0.2869 -0.2447
 1442TIP3    H125741   5.654   4.544   3.479 -0.4770  3.2438 -0.5846
 1442TIP3    H225742   5.673   4.526   3.330  0.5201  0.4362 -0.1735
 1443TIP3   OH225743   0.112   6.629   1.966 -0.4332  0.5913 -0.2965
 1443TIP3    H125744   0.103   6.546   1.920  0.8553 -0.3847  1.1259
 1443TIP3    H225745   0.108   6.695   1.896 -2.4027 -0.5558 -1.3517
 1444TIP3   OH225746   1.249   0.084  15.752 -0.4397  0.7691  0.8399
 1444TIP3    H125747   1.335   0.049  15.775 -0.1062 -0.2685 -1.6420
 1444TIP3    H225748   1.254   0.177  15.773  1.3584  0.7528  0.5926
 1445TIP3   OH225749   1.977   5.480   3.172 -0.2597 -0.0011  0.1700
 1445TIP3    H125750   1.982   5.426   3.251 -1.8204 -0.9201 -0.3309
 1445TIP3    H225751   2.064   5.520   3.166  0.3753 -1.0664  1.5239
 1446TIP3   OH225752   5.287   0.596  15.378 -0.0483  0.2141 -0.4383
 1446TIP3    H125753   5.313   0.682  15.344 -0.2361  0.0477 -1.0152
 1446TIP3    H225754   5.366   0.561  15.419  0.7165 -0.3419 -2.2701
 1447TIP3   OH225755   4.274   4.374   3.696 -0.2310 -0.6035  0.2230
 1447TIP3    H125756   4.193   4.330   3.670  0.3958 -1.1433 -0.9324
 1447TIP3    H225757   4.343   4.321   3.657  0.7182 -0.4283  1.5921
 1448TIP3   OH225758   4.390   1.498  13.742  0.7714  0.2274 -0.1441
 1448TIP3    H125759   4.374   1.587  13.773 -0.5025  0.1612 -0.5305
 1448TIP3    H225760   4.353   1.442  13.810  2.0310 -0.0338  0.3438
 1449TIP3   OH225761   2.868   6.281   4.775 -0.3947  0.2499 -0.1486
 1449TIP3    H125762   2.918   6.222   4.719  0.2851 -0.2123  0.9125
 1449TIP3    H225763   2.796   6.312   4.720  0.5420  0.2177 -1.4274
 1450TIP3   OH225764   6.622   4.631   4.287 -0.1472  0.0204 -0.0064
 1450TIP3    H125765   6.607   4.607   4.378 -0.9520 -2.2926 -0.6675
 1450TIP3    H225766   6.546   4.684   4.263 -0.0400  0.4501  0.5908
 1451TIP3   OH225767   1.359   5.161   5.112 -0.6561 -0.1111  0.5765
 1451TIP3    H125768   1.408   5.243   5.111  0.2519 -0.5396 -2.9006
 1451TIP3    H225769   1.269   5.187   5.134 -0.2138  1.6767  0.4166
 1452TIP3   OH225770   4.051   0.130   0.976 -0.0002 -0.5025 -0.0169
 1452TIP3    H125771   4.056   0.040   1.009  0.6023 -1.4654 -2.4796
 1452TIP3    H225772   4.061   0.185   1.054  2.4669 -2.5490  1.2611
 1453TIP3   OH225773   0.211   6.426  16.207  0.1256  0.2089 -0.1160
 1453TIP3    H125774   0.126   6.382  16.215  0.8815 -1.2002  0.5524
 1453TIP3    H225775   0.222   6.440  16.112 -0.2879 -0.7540 -0.3137
 1454TIP3   OH225776   1.107   5.243  11.592  0.7060 -0.5090  0.0040
 1454TIP3    H125777   1.190   5.196  11.582  0.0903 -1.6028 -0.1644
 1454TIP3    H225778   1.065   5.201  11.667 -0.3667 -1.0384 -0.8627
 1455TIP3   OH225779   1.583   5.497   3.353  0.6932  0.0396  0.3134
 1455TIP3    H125780   1.631   5.457   3.426  1.7038  0.9481  0.1725
 1455TIP3    H225781   1.509   5.541   3.394  0.3245 -0.8176  0.6038
 1456TIP3   OH225782   1.415   2.486   1.892  0.4338  0.1457 -0.4486
 1456TIP3    H125783   1.491   2.463   1.838  3.4161  2.9067  2.1727
 1456TIP3    H225784   1.366   2.548   1.839  2.5583  1.7847 -0.6300
 1457TIP3   OH225785   4.079   2.285   0.604 -0.1654 -0.1126 -1.2642
 1457TIP3    H125786   4.098   2.290   0.510  0.0933  2.6357 -1.1611
 1457TIP3    H225787   4.082   2.376   0.634 -3.6667 -0.4759  0.7664
 1458TIP3   OH225788   5.654   0.629  12.928 -0.2826 -0.1664 -0.4195
 1458TIP3    H125789   5.628   0.539  12.946 -1.3903  0.0349 -0.9307
 1458TIP3    H225790   5.710   0.623  12.850  1.6929 -0.6562  0.9712
 1459TIP3   OH225791   4.675   3.072   0.085  0.6397  0.4293 -0.0219
 1459TIP3    H125792   4.645   3.139   0.147  0.4190 -0.2112  0.5879
 1459TIP3    H225793   4.599   3.014   0.074  1.1535 -0.3297  0.3200
 1460TIP3   OH225794   3.346   6.720  11.959 -0.0237  0.0755 -0.0712
 1460TIP3    H125795   3.353   6.733  11.865  0.2799  0.4610 -0.0007
 1460TIP3    H225796   3.259   6.683  11.972 -0.6922  1.4615 -0.3635
 1461TIP3   OH225797   3.407   2.144   5.983 -0.0464 -0.6817  0.0594
 1461TIP3    H125798   3.484   2.105   6.026  0.1609  1.5493  1.8957
 1461TIP3    H225799   3.436   2.232   5.959 -1.5733 -0.3476 -0.6263
 1462TIP3   OH225800   4.407   0.773  15.790 -0.3166 -0.0160 -0.4462
 1462TIP3    H125801   4.327   0.785  15.840 -0.9746  0.5956 -1.6119
 1462TIP3    H225802   4.477   0.782  15.855 -0.8942  4.6777 -0.0988
 1463TIP3   OH225803   1.788   0.454   1.463  0.0723 -0.1191  0.3394
 1463TIP3    H125804   1.854   0.388   1.441 -0.1823 -0.3749  0.3255
 1463TIP3    H225805   1.736   0.463   1.383  0.1530  0.1538  0.3181
 1464TIP3   OH225806   4.880   4.211   3.648  0.2537 -0.0415  0.6936
 1464TIP3    H125807   4.837   4.210   3.734 -1.0349 -1.3380  0.0735
 1464TIP3    H225808   4.876   4.121   3.618  1.0199  0.3277 -0.5820
 1465TIP3   OH225809   4.534   0.507   3.864 -0.2694  0.0540 -0.0175
 1465TIP3    H125810   4.600   0.548   3.808 -0.1561  0.9263  0.7459
 1465TIP3    H225811   4.453   0.552   3.841 -0.0940  0.9422  1.0267
 1466TIP3   OH225812   2.024   4.975   0.259  0.7196  0.1720  0.2148
 1466TIP3    H125813   2.042   5.013   0.173 -0.8386  1.2313  0.3098
 1466TIP3    H225814   1.987   4.888   0.240 -0.3595  0.7111 -0.2496
 1467TIP3   OH225815   0.590   4.424   1.924  0.3188  0.0912 -0.0138
 1467TIP3    H125816   0.591   4.332   1.950 -2.0110 -0.3053 -1.0264
 1467TIP3    H225817   0.614   4.472   2.004 -1.0191 -1.3054  1.3051
 1468TIP3   OH225818   4.921   3.549  11.636  0.1307  0.3586  0.2432
 1468TIP3    H125819   4.866   3.543  11.557  0.1409  1.3579  0.1527
 1468TIP3    H225820   4.858   3.541  11.708 -0.1079  1.2263  0.1386
 1469TIP3   OH225821   1.376   2.698  15.079 -0.0113 -0.2450  0.0047
 1469TIP3    H125822   1.467   2.677  15.102 -0.2683 -2.2435 -0.5584
 1469TIP3    H225823   1.382   2.737  14.992  0.2777 -0.9383 -0.2933
 1470TIP3   OH225824   3.859   3.248   4.764  0.2042 -0.6124 -0.3174
 1470TIP3    H125825   3.951   3.237   4.742  0.1713  0.5643 -1.1343
 1470TIP3    H225826   3.818   3.276   4.683 -0.2987  1.8996  0.6988
 1471TIP3   OH225827   5.607   5.765  10.776  0.3873  0.4743 -0.7525
 1471TIP3    H125828   5.557   5.765  10.858 -0.1061  0.2096 -1.0450
 1471TIP3    H225829   5.648   5.679  10.774  0.0659  0.3223 -0.9746
 1472TIP3   OH225830   4.715   4.550   0.721  0.4134  0.2823  0.1800
 1472TIP3    H125831   4.721   4.545   0.816 -0.2466 -1.0984  0.1771
 1472TIP3    H225832   4.787   4.495   0.690 -1.4029 -2.0867 -0.0422
 1473TIP3   OH225833   4.896   2.549  14.925  0.5369  0.1662 -0.5886
 1473TIP3    H125834   4.857   2.478  14.874  0.1987 -0.1977  0.1526
 1473TIP3    H225835   4.956   2.505  14.986 -1.0595  0.2905  1.1673
 1474TIP3   OH225836   2.932   5.728   3.307  0.0589 -0.1845 -0.4833
 1474TIP3    H125837   3.021   5.762   3.305 -0.5468  1.5345  0.3620
 1474TIP3    H225838   2.932   5.665   3.379  0.7602 -0.7630 -0.9709
 1475TIP3   OH225839   3.685   2.040  14.917  0.3627 -0.0609  0.4361
 1475TIP3    H125840   3.655   2.009  14.832  0.3720  1.7742 -0.2980
 1475TIP3    H225841   3.680   1.964  14.975  1.2642 -1.5912 -1.4152
 1476TIP3   OH225842   1.365   1.990   1.302 -0.5961  0.0946 -0.3988
 1476TIP3    H125843   1.282   1.943   1.300 -1.0485  0.8207  0.4414
 1476TIP3    H225844   1.351   2.067   1.247  0.5611 -1.3342 -2.8600
 1477TIP3   OH225845   5.312   1.077   3.635 -0.4877  0.0132 -0.1896
 1477TIP3    H125846   5.257   1.017   3.584  0.7560 -2.3285  1.0940
 1477TIP3    H225847   5.266   1.086   3.718 -0.2788  0.2335 -0.1008
 1478TIP3   OH225848   4.521   4.366   1.828  0.2977 -0.5585 -0.3137
 1478TIP3    H125849   4.513   4.366   1.923 -3.1289 -2.4856 -0.4178
 1478TIP3    H225850   4.527   4.458   1.804 -1.7561  0.1813  1.6855
 1479TIP3   OH225851   1.389   3.965  12.625  0.6150 -0.8798 -0.4052
 1479TIP3    H125852   1.410   4.057  12.610  1.0010 -1.1033 -1.2432
 1479TIP3    H225853   1.440   3.941  12.702 -0.2304 -0.1400  0.4171
 1480TIP3   OH225854   2.632   2.451   3.410 -0.0087 -0.2946  0.0210
 1480TIP3    H125855   2.707   2.508   3.392 -0.0034 -0.5537 -0.7723
 1480TIP3    H225856   2.558   2.511   3.415  0.2727 -0.0089  1.0394
 1481TIP3   OH225857   2.144   3.268   6.219 -0.3620  0.7813 -0.1099
 1481TIP3    H125858   2.095   3.206   6.273 -1.2088  0.5341 -1.1365
 1481TIP3    H225859   2.199   3.315   6.281  0.0993 -0.7975  0.7321
 1482TIP3   OH225860   1.945   0.044  16.444  0.4418  0.2149  0.0965
 1482TIP3    H125861   1.898   0.039  16.528  0.4115  0.4930  0.0986
 1482TIP3    H225862   2.036   0.027  16.467  0.7691  2.2762  0.5105
 1483TIP3   OH225863   3.833   6.752   3.735 -0.2922 -0.0532 -0.2043
 1483TIP3    H125864   3.827   6.813   3.808  0.0348 -0.1325 -0.1098
 1483TIP3    H225865   3.834   6.665   3.776  3.9593 -0.0994  0.0708
 1484TIP3   OH225866   2.168   4.707  14.123  0.1145 -0.3382 -0.5541
 1484TIP3    H125867   2.197   4.650  14.052  1.0327  0.0335 -0.4928
 1484TIP3    H225868   2.212   4.791  14.106 -0.5895  0.1111 -0.2075
 1485TIP3   OH225869   5.369   6.241   0.822  0.6080  0.3564  0.0141
 1485TIP3    H125870   5.413   6.229   0.738  0.5034 -1.2501  0.1550
 1485TIP3    H225871   5.278   6.215   0.805  0.9747 -1.8364  1.0036
 1486TIP3   OH225872   3.061   4.404   1.923 -0.4752  0.4195  0.1021
 1486TIP3    H125873   3.145   4.369   1.891 -1.1260  0.1066 -1.3289
 1486TIP3    H225874   3.086   4.477   1.980  0.7861  0.0473  0.0564
 1487TIP3   OH225875   3.215   2.532  13.685 -0.0867  0.4981 -0.1510
 1487TIP3    H125876   3.249   2.543  13.597  1.0137  0.7939  0.2980
 1487TIP3    H225877   3.222   2.438  13.702  0.3671  0.5361 -0.1190
 1488TIP3   OH225878   0.240   2.288  13.607  0.5164 -0.0846 -0.0953
 1488TIP3    H125879   0.296   2.228  13.557  0.1783  0.4582 -1.1612
 1488TIP3    H225880   0.276   2.375  13.590  0.1382  0.1470  0.2673
 1489TIP3   OH225881   4.249   2.373   0.140  0.6641 -0.4799  0.1525
 1489TIP3    H125882   4.230   2.467   0.142  0.3641 -0.5422  2.1561
 1489TIP3    H225883   4.247   2.350   0.047  1.1663  1.5687 -0.4108
 1490TIP3   OH225884   5.240   4.626   2.002  0.1351 -0.5544  0.0292
 1490TIP3    H125885   5.275   4.549   2.047 -0.4224  0.4398  2.2850
 1490TIP3    H225886   5.311   4.654   1.944  1.4348 -1.0749  1.3199
 1491TIP3   OH225887   4.542   4.141   0.832  0.3323  0.3010  0.2387
 1491TIP3    H125888   4.478   4.180   0.773 -0.0807  0.5613  0.8500
 1491TIP3    H225889   4.626   4.153   0.788  0.1400  1.3502  0.1437
 1492TIP3   OH225890   4.035   0.972  10.419 -0.1266 -0.4060  0.9803
 1492TIP3    H125891   4.011   1.034  10.350 -0.2505 -0.0244  1.3653
 1492TIP3    H225892   4.005   1.013  10.500  2.3559  0.4029  1.5687
 1493TIP3   OH225893   5.871   5.482  16.733 -0.0833  0.0103  0.3467
 1493TIP3    H125894   5.950   5.476  16.680 -1.5471 -0.0414 -1.9327
 1493TIP3    H225895   5.837   5.392  16.737  0.3827 -0.1350  2.0779
 1494TIP3   OH225896   0.283   4.614  12.146 -0.2586 -0.2868  0.0724
 1494TIP3    H125897   0.276   4.623  12.241 -2.0258 -0.1776 -0.0483
 1494TIP3    H225898   0.237   4.690  12.111  0.6379 -0.1629 -0.8903
 1495TIP3   OH225899   1.912   6.410  13.858  0.0856 -0.2863 -0.1533
 1495TIP3    H125900   1.937   6.400  13.766  0.0001  2.9844 -0.6573
 1495TIP3    H225901   1.817   6.414  13.857  0.1050  0.3340 -0.0335
 1496TIP3   OH225902   5.363   4.796   2.949 -0.5692 -0.0557 -0.2455
 1496TIP3    H125903   5.435   4.831   3.000 -0.7110 -0.2979  0.1266
 1496TIP3    H225904   5.291   4.857   2.963  0.0456  1.1448 -1.9939
 1497TIP3   OH225905   4.594   5.327  15.734 -0.5380 -0.0893  0.0110
 1497TIP3    H125906   4.547   5.256  15.778  1.0857 -1.0412  0.3070
 1497TIP3    H225907   4.568   5.321  15.643 -0.3291 -1.1726  0.0065
 1498TIP3   OH225908   3.182   0.731   2.393 -0.4830 -0.4762  0.1362
 1498TIP3    H125909   3.132   0.752   2.315  0.3501  0.9507 -0.0459
 1498TIP3    H225910   3.150   0.791   2.460  0.3701 -0.1235  0.2479
 1499TIP3   OH225911   6.242   6.523   4.955  0.0118 -0.9060  0.0446
 1499TIP3    H125912   6.286   6.506   5.038 -0.4726  1.3674  0.8263
 1499TIP3    H225913   6.159   6.476   4.963 -0.0855 -0.6066  0.9212
 1500TIP3   OH225914   1.061   0.485  13.035 -0.1603  0.7196 -0.1495
 1500TIP3    H125915   1.136   0.539  13.012 -0.1512  0.7980  0.0664
 1500TIP3    H225916   1.094   0.422  13.099 -0.3724  1.0206  0.2620
 1501TIP3   OH225917   4.574   2.826   0.220  0.2543 -0.0676 -0.1966
 1501TIP3    H125918   4.534   2.837   0.306 -0.0752  1.6833 -0.5458
 1501TIP3    H225919   4.663   2.857   0.230 -0.1604  1.3832 -0.7735
 1502TIP3   OH225920   4.048   5.010  12.646  1.0085 -0.1765  0.1544
 1502TIP3    H125921   4.010   5.023  12.559  2.9969  0.0897 -0.7215
 1502TIP3    H225922   4.054   4.915  12.655 -0.7866 -0.2638  0.7615
 1503TIP3   OH225923   1.190   0.185  13.167 -0.5761 -0.2597  0.0189
 1503TIP3    H125924   1.144   0.134  13.100 -0.8102 -1.6332  1.1822
 1503TIP3    H225925   1.238   0.120  13.219 -1.7215  0.5463  2.2156
 1504TIP3   OH225926   3.170   2.377  16.588  0.0748  0.3016  0.7881
 1504TIP3    H125927   3.265   2.372  16.574 -0.1446  0.2034 -0.8711
 1504TIP3    H225928   3.148   2.294  16.631  0.5891 -0.1923  0.1194
 1505TIP3   OH225929   4.162   1.764   1.101  0.4170 -0.0989  0.3134
 1505TIP3    H125930   4.067   1.775   1.099  0.1747 -0.7812  3.2199
 1505TIP3    H225931   4.196   1.852   1.083 -0.8231  0.4992  0.7317
 1506TIP3   OH225932   1.366   2.280   2.293  0.1330 -0.2264 -0.2995
 1506TIP3    H125933   1.323   2.335   2.358 -0.6105 -0.5008 -0.5507
 1506TIP3    H225934   1.296   2.224   2.258  1.0960 -2.3013  0.9222
 1507TIP3   OH225935   1.866   3.754  12.921 -0.7448 -0.1966  0.3608
 1507TIP3    H125936   1.854   3.691  12.992 -0.5977 -1.6739 -0.8604
 1507TIP3    H225937   1.960   3.748  12.900 -0.5287  1.1781  0.8807
 1508TIP3   OH225938   4.384   3.611  15.857  0.0844  0.0001  0.1849
 1508TIP3    H125939   4.302   3.624  15.810  0.7443  0.8386 -0.7751
 1508TIP3    H225940   4.421   3.532  15.818  0.3190  0.3257 -0.2629
 1509TIP3   OH225941   1.329   2.228   1.565  0.6068  0.5485 -0.5031
 1509TIP3    H125942   1.278   2.305   1.542  0.0423  1.6815  3.7636
 1509TIP3    H225943   1.270   2.174   1.616  2.0491 -0.9830 -0.3620
 1510TIP3   OH225944   6.272   2.468   6.595 -0.0375 -0.0005  0.0600
 1510TIP3    H125945   6.195   2.434   6.640  0.9516 -1.8782  0.4602
 1510TIP3    H225946   6.329   2.500   6.665  0.4424 -0.6118 -0.0411
 1511TIP3   OH225947   0.354   4.522   2.921  0.0920  0.3931  0.1983
 1511TIP3    H125948   0.442   4.499   2.952 -0.2701 -0.0207  0.9556
 1511TIP3    H225949   0.353   4.494   2.829 -0.0216 -1.8794  0.8244
 1512TIP3   OH225950   5.302   1.629   3.505  0.6285  0.3468 -0.1015
 1512TIP3    H125951   5.342   1.689   3.567  1.0160  0.2496 -0.2583
 1512TIP3    H225952   5.364   1.556   3.499 -0.8351 -1.1927  1.8380
 1513TIP3   OH225953   1.362   3.780  12.418 -0.0904 -0.0831 -0.0501
 1513TIP3    H125954   1.359   3.858  12.474  2.0748  0.7079 -0.9255
 1513TIP3    H225955   1.450   3.780  12.381 -0.7527 -1.7433 -1.8187
 1514TIP3   OH225956   1.236   3.422   4.782 -0.1995 -0.1466 -0.1123
 1514TIP3    H125957   1.193   3.362   4.721 -0.7988  0.2558 -0.0869
 1514TIP3    H225958   1.180   3.423   4.859  0.4579 -0.5022  0.3763
 1515TIP3   OH225959   2.197   2.642  13.134 -0.2963  0.4008  0.8983
 1515TIP3    H125960   2.140   2.565  13.125 -2.4721  1.9125  0.8630
 1515TIP3    H225961   2.224   2.662  13.044  0.8440 -0.6802  0.9792
 1516TIP3   OH225962   5.966   3.151   1.663  0.2441  0.1407  0.6942
 1516TIP3    H125963   6.030   3.201   1.714  0.2706 -0.4974  1.3065
 1516TIP3    H225964   5.981   3.060   1.689 -1.1567  0.0051  1.1378
 1517TIP3   OH225965   0.318   1.102  12.697 -0.5814 -0.2049 -0.2366
 1517TIP3    H125966   0.318   1.011  12.728  0.1835  0.4151  1.7510
 1517TIP3    H225967   0.411   1.127  12.697 -0.8931  1.0632  0.8663
 1518TIP3   OH225968   5.462   5.703   2.456  0.3780  0.1044 -0.0085
 1518TIP3    H125969   5.414   5.667   2.531  0.4549  0.6760  0.3264
 1518TIP3    H225970   5.551   5.669   2.466  0.4605  0.4032  0.3275
 1519TIP3   OH225971   4.055   6.366   3.732  0.4033 -0.3556  0.2173
 1519TIP3    H125972   4.051   6.273   3.756  0.6890 -1.1353 -2.3843
 1519TIP3    H225973   4.149   6.383   3.721  0.2899 -0.0840 -0.3681
 1520TIP3   OH225974   1.628   3.347  15.822 -0.1026  0.1386  0.1393
 1520TIP3    H125975   1.583   3.426  15.851  0.5938  0.1000  1.3989
 1520TIP3    H225976   1.613   3.344  15.728 -0.9120  1.2680  0.2117
 1521TIP3   OH225977   3.396   2.206   0.460  0.1240 -0.0438  0.0671
 1521TIP3    H125978   3.399   2.119   0.420  0.0372  0.3152 -0.7328
 1521TIP3    H225979   3.336   2.256   0.405 -0.2149  0.3803  0.8148
 1522TIP3   OH225980   6.738   4.880   3.006 -0.4762 -0.1444  0.7145
 1522TIP3    H125981   6.665   4.916   3.057  0.4404  0.3695  1.7031
 1522TIP3    H225982   6.736   4.786   3.026 -1.0384 -0.1825  0.5049
 1523TIP3   OH225983   4.483   4.632   4.962 -0.1948  0.0750 -0.0207
 1523TIP3    H125984   4.443   4.549   4.934  0.4184  0.0266 -0.8273
 1523TIP3    H225985   4.559   4.642   4.904 -0.2729  1.2190  0.0463
 1524TIP3   OH225986   1.440   4.370   1.909 -0.1869 -0.4719 -0.1437
 1524TIP3    H125987   1.431   4.392   1.816  0.4127 -0.9313 -0.3148
 1524TIP3    H225988   1.518   4.314   1.913 -0.2638 -0.5312  0.6235
 1525TIP3   OH225989   2.365   2.537   2.355  0.0321  0.3325  0.0848
 1525TIP3    H125990   2.313   2.581   2.423  0.0997 -0.7792  0.8858
 1525TIP3    H225991   2.441   2.503   2.403  1.5487  1.9212 -1.0502
 1526TIP3   OH225992   1.195   1.231   4.783 -0.1525 -0.0259 -0.1771
 1526TIP3    H125993   1.224   1.278   4.705  1.4651 -0.2559  0.2635
 1526TIP3    H225994   1.263   1.166   4.799 -0.3425  0.1674  1.5645
 1527TIP3   OH225995   3.348   4.768   1.521 -0.0963  0.6443 -0.3857
 1527TIP3    H125996   3.271   4.716   1.498  0.3510 -0.4687  0.5180
 1527TIP3    H225997   3.419   4.705   1.526  1.2594  1.8619 -2.7499
 1528TIP3   OH225998   0.504   0.496  15.589  0.5230  0.9677  0.0164
 1528TIP3    H125999   0.442   0.543  15.645 -0.6437  0.5827 -0.9041
 1528TIP3    H226000   0.482   0.404  15.602  0.8229  0.8308 -0.4221
 1529TIP3   OH226001   3.726   6.580  15.911 -0.3128 -0.0882  0.4821
 1529TIP3    H126002   3.751   6.548  15.998  0.5419 -0.0519  0.2535
 1529TIP3    H226003   3.804   6.624  15.878 -0.6598 -0.0298 -0.2772
 1530TIP3   OH226004   0.361   5.017   6.170  0.1830  1.0070  0.0358
 1530TIP3    H126005   0.385   5.104   6.136  0.0516  0.7423 -0.7624
 1530TIP3    H226006   0.271   5.028   6.201 -0.7448  0.5917 -2.2944
 1531TIP3   OH226007   1.118   3.787  14.523  0.0121 -0.6803 -0.5013
 1531TIP3    H126008   1.138   3.695  14.540 -3.1742 -1.5920 -1.0517
 1531TIP3    H226009   1.082   3.788  14.434 -1.1517  0.8787 -0.0528
 1532TIP3   OH226010   6.242   1.069   4.356  0.0510  0.4063  0.5950
 1532TIP3    H126011   6.278   0.985   4.383 -0.1562  0.1721  0.1618
 1532TIP3    H226012   6.304   1.102   4.291  0.3353  0.7743  1.0473
 1533TIP3   OH226013   0.023   2.392  14.486  0.2971  0.4972 -0.7566
 1533TIP3    H126014  -0.061   2.421  14.520 -0.4990 -1.0279 -1.3143
 1533TIP3    H226015   0.079   2.381  14.563  0.2472  2.2159 -0.4411
 1534TIP3   OH226016   5.429   6.117  16.483 -0.6153  0.3951  0.5252
 1534TIP3    H126017   5.485   6.127  16.406 -0.8782  2.4226  0.5281
 1534TIP3    H226018   5.422   6.023  16.496  1.2853  0.0545 -0.5626
 1535TIP3   OH226019   2.232   2.301  13.374  0.3559  0.1380 -0.1939
 1535TIP3    H126020   2.160   2.241  13.392  0.7760  0.0962  1.5444
 1535TIP3    H226021   2.209   2.381  13.422  0.5806  0.7971 -1.1593
 1536TIP3   OH226022   1.170   5.025  10.896 -0.0292 -0.2013  0.5739
 1536TIP3    H126023   1.169   4.979  10.813  1.9498 -1.0350  0.9431
 1536TIP3    H226024   1.094   5.083  10.893  0.5937  0.6146 -2.2653
 1537TIP3   OH226025   2.096   2.607   4.868  0.5814 -0.1327 -0.3317
 1537TIP3    H126026   2.175   2.555   4.852 -0.0286 -2.4577  3.1798
 1537TIP3    H226027   2.126   2.681   4.921  0.5841 -0.3260 -0.0627
 1538TIP3   OH226028   5.047   1.290   5.842  0.1760  0.9329 -0.8090
 1538TIP3    H126029   5.038   1.322   5.932  0.4388  0.8576 -0.7546
 1538TIP3    H226030   5.140   1.270   5.833 -0.4929 -4.0995  0.6444
 1539TIP3   OH226031   1.164   6.002  13.122  0.1854  0.1733 -0.0762
 1539TIP3    H126032   1.119   5.998  13.207  0.5192  0.4954  0.1189
 1539TIP3    H226033   1.097   5.977  13.058  0.2384 -1.2108  0.3847
 1540TIP3   OH226034   6.428   2.081  16.580 -0.2415 -0.7620  0.0416
 1540TIP3    H126035   6.497   2.079  16.513 -0.8012  0.2696 -0.5906
 1540TIP3    H226036   6.410   1.988  16.597  1.6310 -1.0730  0.6039
 1541TIP3   OH226037   4.013   1.103   2.597  0.1898 -0.0621 -0.1169
 1541TIP3    H126038   4.028   1.038   2.529 -0.6643 -0.8499  0.4152
 1541TIP3    H226039   4.006   1.051   2.678  1.0923  0.8406  0.5638
 1542TIP3   OH226040   1.722   3.668   3.685 -0.1706  0.7768  0.5246
 1542TIP3    H126041   1.800   3.683   3.739  1.2341  0.3896 -1.2910
 1542TIP3    H226042   1.734   3.580   3.649 -2.1938  0.1200  1.3186
 1543TIP3   OH226043   5.853   0.163  14.764 -0.5251 -0.0319 -0.1970
 1543TIP3    H126044   5.949   0.168  14.757 -0.5519  0.3709 -0.3018
 1543TIP3    H226045   5.835   0.070  14.776 -0.0672 -0.0211  0.6190
 1544TIP3   OH226046   5.152   5.700   4.991  0.4164  0.2966  0.2022
 1544TIP3    H126047   5.184   5.624   4.941 -0.2503 -1.1901  1.9323
 1544TIP3    H226048   5.226   5.724   5.047 -0.2478 -0.9116  1.6698
 1545TIP3   OH226049   5.340   0.986  11.804  0.1485 -0.2470  0.0314
 1545TIP3    H126050   5.416   0.950  11.759  1.1683  2.4973 -0.6186
 1545TIP3    H226051   5.375   1.055  11.860 -1.7874  0.8673 -0.0102
 1546TIP3   OH226052   4.179   2.164  14.584  0.1671  0.3668  0.3599
 1546TIP3    H126053   4.117   2.222  14.628 -0.3419  0.0152  0.1140
 1546TIP3    H226054   4.217   2.112  14.655 -0.0272  0.3865  0.4775
 1547TIP3   OH226055   4.167   3.738  11.388  0.0601  0.1664  0.0465
 1547TIP3    H126056   4.107   3.809  11.415  0.0969  0.0328  0.4818
 1547TIP3    H226057   4.110   3.662  11.375  0.0182  0.2736 -0.4409
 1548TIP3   OH226058   6.369   5.992   4.732  0.0492 -0.3229  0.0054
 1548TIP3    H126059   6.344   6.020   4.820  1.3971 -0.5448  0.4786
 1548TIP3    H226060   6.289   6.004   4.680 -0.2332  1.6480  0.8054
 1549TIP3   OH226061   4.553   1.690  17.263  0.2602 -0.1312 -0.2191
 1549TIP3    H126062   4.482   1.692  17.199 -0.1109 -1.1936  0.1393
 1549TIP3    H226063   4.509   1.677  17.347  0.8796 -1.2004 -0.0393
 1550TIP3   OH226064   0.248   3.705  12.680 -0.0438  0.2075  0.0306
 1550TIP3    H126065   0.312   3.697  12.750  0.7892 -0.1663 -0.7445
 1550TIP3    H226066   0.187   3.633  12.695  0.2749 -0.0231  0.2333
 1551TIP3   OH226067   5.040   6.247   3.885  0.5356 -0.1658  0.2891
 1551TIP3    H126068   5.075   6.167   3.923 -0.0939  0.4809  2.4217
 1551TIP3    H226069   5.001   6.220   3.802  0.5992 -1.9915  0.8107
 1552TIP3   OH226070   3.998   6.027  12.958 -1.0928 -0.5536 -0.4405
 1552TIP3    H126071   4.002   6.116  12.925 -1.5994 -0.6103 -0.6745
 1552TIP3    H226072   3.928   6.029  13.024 -0.0404 -0.4200  0.7100
 1553TIP3   OH226073   6.563   5.588   3.168 -0.3998 -0.4744  0.4687
 1553TIP3    H126074   6.630   5.554   3.108 -0.3966  0.0991  0.1441
 1553TIP3    H226075   6.579   5.541   3.250  1.1915  0.5388  0.7729
 1554TIP3   OH226076   1.626   5.233   4.769  0.0757 -0.3814  0.2826
 1554TIP3    H126077   1.711   5.266   4.798  0.1174  1.1635 -1.4418
 1554TIP3    H226078   1.578   5.311   4.742 -0.5331 -1.5152 -2.1835
 1555TIP3   OH226079   3.675   5.498  11.655 -0.2934 -0.8686 -0.6393
 1555TIP3    H126080   3.745   5.542  11.704 -0.8658 -2.2791  1.5775
 1555TIP3    H226081   3.674   5.409  11.690 -3.5697 -0.7396 -0.1598
 1556TIP3   OH226082   3.099   3.574  10.870 -0.1773  0.3880  0.7127
 1556TIP3    H126083   3.161   3.636  10.909 -0.3960  0.7842  0.4400
 1556TIP3    H226084   3.013   3.601  10.903 -0.1728 -0.4157  1.4193
 1557TIP3   OH226085   5.012   1.438  16.444 -0.0481  0.3617  0.2060
 1557TIP3    H126086   5.079   1.427  16.512  0.1826 -3.7616 -0.3807
 1557TIP3    H226087   5.056   1.410  16.364 -1.5777  0.7261 -0.7889
 1558TIP3   OH226088   2.031   1.011  14.114 -0.6547  0.6320  0.5408
 1558TIP3    H126089   2.082   0.931  14.110 -1.2114  0.2932  0.1735
 1558TIP3    H226090   1.969   1.005  14.042 -1.4066  0.9064  1.1454
 1559TIP3   OH226091   5.987   5.324   3.147 -0.0001 -0.0513 -0.0572
 1559TIP3    H126092   6.062   5.310   3.090 -0.6985  1.0710 -1.3007
 1559TIP3    H226093   6.026   5.350   3.231  1.0206  1.9501 -1.0888
 1560TIP3   OH226094   1.090   1.733   3.932 -0.0654  0.0296 -0.2209
 1560TIP3    H126095   1.008   1.702   3.970  0.1196  0.6047  0.6629
 1560TIP3    H226096   1.107   1.672   3.859 -0.7493 -0.7049  0.2189
 1561TIP3   OH226097   4.722   5.891  14.495  0.5088 -0.4933 -0.2013
 1561TIP3    H126098   4.712   5.847  14.411 -0.2706 -1.3180  0.3182
 1561TIP3    H226099   4.770   5.829  14.549 -1.1306 -0.9981  0.7289
 1562TIP3   OH226100   0.079   3.602   6.036  0.4215 -0.0466 -0.2749
 1562TIP3    H126101   0.063   3.645   6.120  0.8424 -2.3072  1.0404
 1562TIP3    H226102   0.173   3.612   6.021  0.2566  0.8731 -0.8386
 1563TIP3   OH226103   5.843   2.925  14.068  0.1263 -0.5708 -0.4484
 1563TIP3    H126104   5.929   2.915  14.108 -1.1172 -1.0823  2.3600
 1563TIP3    H226105   5.808   2.836  14.065 -1.6947 -0.0642  2.1027
 1564TIP3   OH226106   0.264   1.399   0.016  0.0725 -0.2616  0.1711
 1564TIP3    H126107   0.308   1.318  -0.011 -0.1647 -0.2718 -0.1860
 1564TIP3    H226108   0.332   1.465   0.013  0.3324 -0.4969  0.7219
 1565TIP3   OH226109   2.233   4.852  14.806 -0.1872  0.1198  0.0138
 1565TIP3    H126110   2.305   4.912  14.784  0.1532 -0.1536  0.3921
 1565TIP3    H226111   2.163   4.910  14.838  0.8533  0.1698  2.3180
 1566TIP3   OH226112   0.041   0.841   2.035  0.6193 -0.3201 -0.0809
 1566TIP3    H126113   0.059   0.846   1.941 -2.4613 -2.1150 -0.8970
 1566TIP3    H226114   0.112   0.789   2.071  0.1605 -2.5214 -2.0903
 1567TIP3   OH226115   5.951   5.558  11.008  0.0166 -0.4078  0.7018
 1567TIP3    H126116   5.899   5.500  11.063 -0.1198  0.2393  1.2669
 1567TIP3    H226117   5.905   5.560  10.924 -0.5766 -0.2624  1.0284
 1568TIP3   OH226118   1.823   6.478   1.495  0.1386 -0.1276 -0.1304
 1568TIP3    H126119   1.801   6.462   1.403 -1.3972  0.9418  0.0117
 1568TIP3    H226120   1.898   6.421   1.512 -0.4207 -1.3999 -1.6609
 1569TIP3   OH226121   5.386   4.113   3.855 -0.1299  0.2278 -0.0708
 1569TIP3    H126122   5.322   4.174   3.891 -1.1630 -1.1992  0.6288
 1569TIP3    H226123   5.438   4.084   3.930 -0.3210 -0.4970 -0.2046
 1570TIP3   OH226124   6.408   5.909  14.180 -0.4731 -0.6214 -0.2942
 1570TIP3    H126125   6.481   5.948  14.227  0.6162 -0.7733 -1.7773
 1570TIP3    H226126   6.375   5.841  14.239  0.5633 -0.5222  0.4253
 1571TIP3   OH226127   6.654   2.645  11.793  0.6741  0.2195  0.1801
 1571TIP3    H126128   6.671   2.598  11.874 -0.5038 -2.2722 -0.9179
 1571TIP3    H226129   6.737   2.640  11.744  0.6219 -0.5232  0.1682
 1572TIP3   OH226130   3.421   3.063  12.013  0.1225 -0.1746 -0.1800
 1572TIP3    H126131   3.464   2.987  11.972  0.1221  0.6337 -1.7584
 1572TIP3    H226132   3.467   3.139  11.977  0.2483  0.5916  1.5179
 1573TIP3   OH226133   1.702   0.634  14.792 -0.1622 -0.0447  0.8472
 1573TIP3    H126134   1.642   0.693  14.837 -0.3432  0.7289 -0.3972
 1573TIP3    H226135   1.731   0.682  14.715  0.5323 -1.1645  0.3857
 1574TIP3   OH226136   0.368   0.348  10.651  0.3165 -0.3973  0.1655
 1574TIP3    H126137   0.283   0.333  10.692 -0.5327  1.1272 -0.9359
 1574TIP3    H226138   0.351   0.416  10.585  2.0407 -1.2854 -1.2727
 1575TIP3   OH226139   6.183   4.133   1.279  0.0236  0.0308 -0.4684
 1575TIP3    H126140   6.142   4.105   1.197  0.6257 -0.0243 -0.7579
 1575TIP3    H226141   6.267   4.087   1.280  0.3100  0.5498 -0.1480
 1576TIP3   OH226142   0.721   4.451  13.942  0.5950  0.0515 -0.7000
 1576TIP3    H126143   0.699   4.511  14.013  0.3287  2.6032 -2.7849
 1576TIP3    H226144   0.816   4.441  13.948  0.6093  0.4352 -0.1549
 1577TIP3   OH226145   6.452   1.344  10.855  0.1015 -0.4879 -0.2710
 1577TIP3    H126146   6.373   1.329  10.908  0.0907 -1.5845 -0.5725
 1577TIP3    H226147   6.500   1.411  10.903 -1.7177  1.3594 -0.8710
 1578TIP3   OH226148   4.189   4.184  11.473  0.6612 -0.0393 -0.3422
 1578TIP3    H126149   4.145   4.267  11.454  0.8108 -0.0873 -0.9172
 1578TIP3    H226150   4.155   4.123  11.408  0.2685 -0.5377  0.3148
 1579TIP3   OH226151   0.289   5.807  12.306  0.5629 -0.3237  0.0790
 1579TIP3    H126152   0.367   5.853  12.275 -0.0112  1.3596  1.0032
 1579TIP3    H226153   0.266   5.747  12.235  0.9914  1.2596 -1.4499
 1580TIP3   OH226154   1.841   0.922   0.519  0.7235 -0.2574 -0.3689
 1580TIP3    H126155   1.814   0.876   0.441  2.1590 -0.2834 -0.8874
 1580TIP3    H226156   1.802   0.873   0.591  0.1885 -0.8068 -1.0236
 1581TIP3   OH226157   6.244   0.970  16.230  0.7406 -0.5435  0.6525
 1581TIP3    H126158   6.312   0.904  16.243  0.9330 -0.2081  1.3613
 1581TIP3    H226159   6.207   0.984  16.317  2.1965  1.8959  0.9634
 1582TIP3   OH226160   1.418   6.048   3.737  0.0741 -0.4460  0.5644
 1582TIP3    H126161   1.353   6.016   3.799  0.4696  0.7341  1.6454
 1582TIP3    H226162   1.460   5.969   3.703 -0.3375 -1.1313  1.6032
 1583TIP3   OH226163   0.895   4.151  15.370  0.8996 -0.8202  0.1209
 1583TIP3    H126164   0.964   4.152  15.436  0.6942  0.9254  0.3560
 1583TIP3    H226165   0.941   4.138  15.287  1.6912  1.3718  0.1461
 1584TIP3   OH226166   5.057   2.050   4.809  0.7494  1.1760 -0.5149
 1584TIP3    H126167   5.126   2.108   4.776  1.9486 -0.1374 -0.4112
 1584TIP3    H226168   5.077   1.965   4.771 -1.2109  0.8864 -0.9941
 1585TIP3   OH226169   4.580   6.501  17.231  0.0183 -0.1494  0.1240
 1585TIP3    H126170   4.511   6.459  17.180  1.2146 -1.2444 -0.6334
 1585TIP3    H226171   4.661   6.460  17.202  1.2638  2.5193 -0.5010
 1586TIP3   OH226172   6.651   4.139  13.555  0.3527 -0.3067 -0.0011
 1586TIP3    H126173   6.744   4.120  13.566  0.2086 -1.6004 -0.7543
 1586TIP3    H226174   6.629   4.198  13.626  1.5398 -0.7534  0.7593
 1587TIP3   OH226175   5.010   1.648   1.721 -0.3256 -0.1269 -0.2338
 1587TIP3    H126176   5.072   1.688   1.661 -0.8802  1.4742  0.2008
 1587TIP3    H226177   4.945   1.717   1.737 -3.3299 -2.2434 -2.1529
 1588TIP3   OH226178   0.818   2.238  13.572 -0.2794 -0.3697 -0.8762
 1588TIP3    H126179   0.865   2.161  13.539  0.8773 -0.3073  0.5266
 1588TIP3    H226180   0.881   2.309  13.562 -0.6746  0.0388 -0.4598
 1589TIP3   OH226181   3.676   0.251  14.802  0.2122  0.1019 -0.0475
 1589TIP3    H126182   3.613   0.209  14.743 -0.8137  0.6861  0.6096
 1589TIP3    H226183   3.756   0.257  14.750 -0.6104  0.4106 -1.3280
 1590TIP3   OH226184   4.465   3.676  16.268  0.9214 -0.8787 -0.2054
 1590TIP3    H126185   4.483   3.582  16.263 -0.1786 -1.0396 -1.7527
 1590TIP3    H226186   4.380   3.681  16.311  1.0979 -0.5620  0.1089
 1591TIP3   OH226187   6.269   3.134   1.524  0.2587 -0.5892 -0.0016
 1591TIP3    H126188   6.174   3.137   1.535  0.3681  1.4309  0.7624
 1591TIP3    H226189   6.281   3.087   1.441 -1.3628 -1.3274  0.1310
 1592TIP3   OH226190   4.933   1.894  16.948  0.2218 -0.4679 -0.9459
 1592TIP3    H126191   4.841   1.891  16.976  0.3634  3.0748  0.3836
 1592TIP3    H226192   4.982   1.864  17.024  0.2497 -0.1984 -0.8585
 1593TIP3   OH226193   0.541   5.406  15.484 -0.5405  0.3106 -0.1397
 1593TIP3    H126194   0.578   5.491  15.510  1.1205 -0.0100 -1.2984
 1593TIP3    H226195   0.588   5.342  15.536  0.6134 -0.1093 -1.6467
 1594TIP3   OH226196   5.455   4.348   1.176  0.8579  0.1117 -0.1418
 1594TIP3    H126197   5.477   4.315   1.263 -1.1797 -1.1613 -0.0282
 1594TIP3    H226198   5.394   4.420   1.193  0.5240 -0.0844 -0.5087
 1595TIP3   OH226199   4.823   3.801   4.986 -0.3917  0.4305 -0.1286
 1595TIP3    H126200   4.799   3.709   4.975 -0.3048  0.3802  0.0888
 1595TIP3    H226201   4.740   3.848   4.982 -0.7320  0.1207  2.0902
 1596TIP3   OH226202   3.991   0.573   4.920 -0.0418  0.2300 -0.4011
 1596TIP3    H126203   3.997   0.595   5.013  3.2265  0.3889 -0.5629
 1596TIP3    H226204   4.053   0.502   4.907 -0.7712 -0.1127 -2.4102
 1597TIP3   OH226205   6.114   3.050   3.829  0.3331  0.3801 -0.9053
 1597TIP3    H126206   6.161   3.109   3.888  0.5922  2.1337 -2.7710
 1597TIP3    H226207   6.036   3.099   3.802 -0.0608 -0.5892 -1.6032
 1598TIP3   OH226208   0.829   3.641  15.326 -0.1390 -0.0554 -0.1237
 1598TIP3    H126209   0.744   3.686  15.330 -0.5287 -0.8448  1.1690
 1598TIP3    H226210   0.844   3.611  15.415 -0.1811 -2.9504 -1.0038
 1599TIP3   OH226211   6.222   5.853   2.502 -0.6523  0.2397  0.5592
 1599TIP3    H126212   6.127   5.849   2.490 -0.5981  0.3412  0.0441
 1599TIP3    H226213   6.243   5.947   2.498 -0.7525  0.3864  2.6189
 1600TIP3   OH226214   5.394   6.168  14.535  0.2033 -1.1781  0.2453
 1600TIP3    H126215   5.374   6.190  14.626  1.1411  0.6461  0.0648
 1600TIP3    H226216   5.447   6.089  14.541  0.4421 -0.9608  1.3218
 1601TIP3   OH226217   5.019   0.402   2.636 -0.0776  0.8775  0.3321
 1601TIP3    H126218   5.043   0.310   2.637  0.5146  1.0196 -0.2148
 1601TIP3    H226219   5.099   0.448   2.609  0.2578  1.7380  2.5509
 1602TIP3   OH226220   4.435   0.055  14.546 -0.3759 -0.2798  0.3766
 1602TIP3    H126221   4.391  -0.017  14.501 -2.1249 -0.1924  1.8305
 1602TIP3    H226222   4.460   0.019  14.631 -0.3081  0.5268  0.7144
 1603TIP3   OH226223   1.517   0.131   4.227 -0.1833  0.1745 -0.1084
 1603TIP3    H126224   1.519   0.166   4.138 -0.0959  0.2832 -0.0636
 1603TIP3    H226225   1.589   0.175   4.271 -1.8949  2.2930  0.8148
 1604TIP3   OH226226   0.962   1.639  16.689  0.3867 -0.2343  0.0963
 1604TIP3    H126227   0.929   1.681  16.610  0.0345  0.0217  0.3763
 1604TIP3    H226228   0.929   1.550  16.685  0.1354 -0.1426  0.0899
 1605TIP3   OH226229   4.278   2.003  15.953 -0.1368  0.8656  0.6003
 1605TIP3    H126230   4.317   1.939  15.893  0.1887  0.2796  1.4175
 1605TIP3    H226231   4.246   2.073  15.896 -1.7369 -0.6403 -0.4799
 1606TIP3   OH226232   4.001   2.328   4.514  0.2720 -0.1541 -0.0547
 1606TIP3    H126233   4.032   2.256   4.569 -3.2014 -1.9249 -0.1519
 1606TIP3    H226234   3.957   2.387   4.576  0.4688  0.3150 -0.3608
 1607TIP3   OH226235   0.604   5.459  15.221  0.3477 -0.2819 -0.2749
 1607TIP3    H126236   0.514   5.477  15.195  0.7286  1.0716 -0.7501
 1607TIP3    H226237   0.598   5.434  15.314 -0.6005 -1.2216 -0.5750
 1608TIP3   OH226238   4.678   3.045  13.173 -0.1333 -0.0769  0.0307
 1608TIP3    H126239   4.651   2.971  13.227 -0.0062  0.5069  0.9079
 1608TIP3    H226240   4.672   3.121  13.231  2.3433  0.2407 -0.0273
 1609TIP3   OH226241   2.679   3.603  12.449  0.0657 -0.1687 -0.2085
 1609TIP3    H126242   2.711   3.544  12.380 -2.6196 -0.1852 -1.5476
 1609TIP3    H226243   2.602   3.644  12.411 -0.4535  1.2217  2.1818
 1610TIP3   OH226244   0.468   3.057  14.051 -0.1057 -0.4256  0.2929
 1610TIP3    H126245   0.563   3.057  14.040 -0.0804  1.0653  0.2659
 1610TIP3    H226246   0.433   3.055  13.962 -0.0237  1.8695  0.1412
 1611TIP3   OH226247   5.531   0.187   1.517  0.0059 -0.8840  0.3041
 1611TIP3    H126248   5.605   0.133   1.547  0.9947  0.4343  0.3005
 1611TIP3    H226249   5.507   0.238   1.594  0.8981  0.6679 -0.4025
 1612TIP3   OH226250   0.661   2.627   0.466 -0.6456 -0.0191  0.2403
 1612TIP3    H126251   0.636   2.689   0.397  0.0892 -1.7208 -1.6579
 1612TIP3    H226252   0.732   2.576   0.427 -1.1415 -1.9765  1.7540
 1613TIP3   OH226253   4.670   5.443  12.831  0.0499  0.1076  0.0088
 1613TIP3    H126254   4.730   5.387  12.880  1.6975  2.0235  0.2961
 1613TIP3    H226255   4.709   5.449  12.744 -2.0014 -1.9577 -1.1822
 1614TIP3   OH226256   6.704   1.295   2.484 -0.1108 -0.8381  0.0417
 1614TIP3    H126257   6.799   1.297   2.475 -0.2475  1.0491 -1.8465
 1614TIP3    H226258   6.684   1.375   2.534 -0.6975 -1.4770  0.8515
 1615TIP3   OH226259   6.681   1.532  14.815 -0.6770  0.2067 -0.6700
 1615TIP3    H126260   6.687   1.607  14.757  0.1019 -2.2122 -3.9782
 1615TIP3    H226261   6.772   1.509  14.835 -0.9054  0.0788  0.3174
 1616TIP3   OH226262   6.707   0.875   3.116 -0.4013  0.1869  0.1136
 1616TIP3    H126263   6.743   0.843   3.034  3.5249 -1.2710  2.1539
 1616TIP3    H226264   6.687   0.796   3.166  0.5964  0.9452  1.7946
 1617TIP3   OH226265   4.624   0.299  11.184  0.1465  0.2827  0.3084
 1617TIP3    H126266   4.677   0.306  11.105 -0.1182  0.2185  0.1224
 1617TIP3    H226267   4.609   0.389  11.211  1.8230  0.2941  1.3695
 1618TIP3   OH226268   6.611   5.475  14.528  0.0617 -0.0386 -0.0741
 1618TIP3    H126269   6.680   5.426  14.572 -1.0287 -0.3148  1.3760
 1618TIP3    H226270   6.607   5.558  14.575  1.8881  1.5892 -2.5011
 1619TIP3   OH226271   5.608   3.582  13.906  0.4091  0.1796 -0.4387
 1619TIP3    H126272   5.530   3.637  13.912 -1.3549 -2.3178  1.7678
 1619TIP3    H226273   5.666   3.617  13.974  0.7897  1.3402 -1.3262
 1620TIP3   OH226274   4.080   5.282   4.376 -0.1277 -0.5737  0.1010
 1620TIP3    H126275   4.168   5.246   4.386 -0.3448 -0.6877  2.1820
 1620TIP3    H226276   4.094   5.377   4.370  0.1855 -0.6707 -0.8661
 1621TIP3   OH226277   1.813   6.523   5.817  0.3786 -0.4978  0.2030
 1621TIP3    H126278   1.746   6.455   5.827 -0.4043  0.1553 -0.4140
 1621TIP3    H226279   1.771   6.589   5.761  0.6485  1.0747  1.7716
 1622TIP3   OH226280   2.159   5.682  11.761  0.2969  0.4185 -0.6093
 1622TIP3    H126281   2.131   5.622  11.830 -1.0578  0.0481 -1.4308
 1622TIP3    H226282   2.194   5.758  11.808 -0.0799 -0.0526  0.4783
 1623TIP3   OH226283   2.567   0.676   4.170 -0.2224 -0.1230 -0.1160
 1623TIP3    H126284   2.635   0.725   4.217 -0.2914 -0.0584 -0.0841
 1623TIP3    H226285   2.611   0.647   4.090  0.0817 -0.7972  0.2916
 1624TIP3   OH226286   2.025   4.396  12.269  0.4425 -0.2224 -0.5446
 1624TIP3    H126287   2.050   4.328  12.330  2.7279 -0.3708 -1.5443
 1624TIP3    H226288   2.045   4.478  12.314  0.6842 -0.2998 -0.5104
 1625TIP3   OH226289   4.731   6.498  11.774 -0.5289  0.3738  0.2057
 1625TIP3    H126290   4.763   6.450  11.850  0.1377  0.7731  0.1922
 1625TIP3    H226291   4.775   6.456  11.699  0.0226  0.9585  0.1897
 1626TIP3   OH226292   4.282   6.539   5.113 -0.6431  0.2075 -0.5720
 1626TIP3    H126293   4.192   6.572   5.116 -0.8988 -0.3163 -1.8135
 1626TIP3    H226294   4.324   6.592   5.046 -0.0314  0.4322 -0.0114
 1627TIP3   OH226295   3.315   1.671   1.721 -0.1374 -0.0096 -0.3308
 1627TIP3    H126296   3.308   1.723   1.641  0.0161 -0.4272 -0.6185
 1627TIP3    H226297   3.329   1.735   1.791 -2.6883  0.5906 -0.2721
 1628TIP3   OH226298   5.664   0.932   4.102  0.3221 -0.3754  0.0041
 1628TIP3    H126299   5.608   0.918   4.179  1.5299 -1.4108  0.7291
 1628TIP3    H226300   5.630   1.013   4.063  0.8566  1.3159  2.7233
 1629TIP3   OH226301   0.788   2.807  13.250 -0.1320 -1.2896  0.8675
 1629TIP3    H126302   0.721   2.740  13.241  0.4883 -1.6000 -2.5620
 1629TIP3    H226303   0.769   2.870  13.180  0.8487  0.7718  2.3349
 1630TIP3   OH226304   4.708   6.120  11.809  0.1970 -0.2740  0.1081
 1630TIP3    H126305   4.670   6.033  11.823 -0.8910 -0.0958 -1.5187
 1630TIP3    H226306   4.762   6.111  11.730  2.3044 -0.1072  1.4523
 1631TIP3   OH226307   3.255   3.449  13.663  0.2305 -0.0861 -0.1374
 1631TIP3    H126308   3.187   3.479  13.724 -0.1285 -0.8677 -0.1460
 1631TIP3    H226309   3.206   3.409  13.591  0.6987 -0.3883 -0.2865
 1632TIP3   OH226310   3.156   1.332  12.698 -0.4132 -0.1688  0.2735
 1632TIP3    H126311   3.087   1.274  12.729 -1.0318  1.4103  2.0649
 1632TIP3    H226312   3.237   1.286  12.717 -0.8797 -0.3257  1.9872
 1633TIP3   OH226313   2.692   0.942  16.448 -0.0299 -0.1027 -0.0163
 1633TIP3    H126314   2.602   0.971  16.461 -0.5466 -0.5465 -2.2038
 1633TIP3    H226315   2.745   1.020  16.460 -0.2646 -0.3412  4.2977
 1634TIP3   OH226316   1.332   3.329   6.060  0.2596  0.0375  0.1366
 1634TIP3    H126317   1.269   3.273   6.106  1.7301 -3.3124 -1.5714
 1634TIP3    H226318   1.407   3.334   6.119  0.2145  0.0753  0.1923
 1635TIP3   OH226319   1.828   1.753   2.364 -0.9303  0.1908 -0.2355
 1635TIP3    H126320   1.766   1.771   2.435 -1.3750  1.7395 -0.9664
 1635TIP3    H226321   1.880   1.680   2.396 -1.8418  0.1299  1.2243
 1636TIP3   OH226322   3.298   0.814  16.639  0.3157 -0.2502  0.0633
 1636TIP3    H126323   3.385   0.826  16.600  0.3887  2.9919  0.9142
 1636TIP3    H226324   3.237   0.828  16.568  0.4725 -0.6484 -0.1528
 1637TIP3   OH226325   4.612   2.735  15.412 -0.3263 -0.1198 -0.2914
 1637TIP3    H126326   4.543   2.791  15.377 -2.2377 -1.1790  1.5624
 1637TIP3    H226327   4.668   2.716  15.336 -1.6683  1.2867 -1.7207
 1638TIP3   OH226328   5.446   5.770   3.169 -0.5211 -0.6019 -0.1460
 1638TIP3    H126329   5.355   5.751   3.145 -0.2770 -0.8631 -0.9026
 1638TIP3    H226330   5.498   5.711   3.114  0.1037 -0.5176  0.3434
 1639TIP3   OH226331   0.715   2.431   6.174 -0.7254 -0.7624 -0.2832
 1639TIP3    H126332   0.738   2.415   6.082  3.0933 -0.0054  0.3471
 1639TIP3    H226333   0.753   2.357   6.221 -0.1979  0.2219  0.8882
 1640TIP3   OH226334   5.067   3.977  12.475  0.1365 -0.1367 -0.1683
 1640TIP3    H126335   5.127   3.969  12.549  0.3011  1.3862 -0.0979
 1640TIP3    H226336   5.121   3.961  12.398 -0.1904 -2.4559  0.0329
 1641TIP3   OH226337   4.834   6.055   1.904 -0.1817 -0.2239  0.3701
 1641TIP3    H126338   4.834   6.125   1.839  0.1038 -1.2975 -0.8301
 1641TIP3    H226339   4.902   6.079   1.966 -0.6871  0.9890  0.4869
 1642TIP3   OH226340   4.268   0.197  16.973  0.1582  0.3604 -0.0263
 1642TIP3    H126341   4.191   0.186  17.028  1.5649  0.0747  2.0296
 1642TIP3    H226342   4.332   0.241  17.030  2.4823 -1.9488 -0.6349
 1643TIP3   OH226343   3.306   2.672  11.320  0.0981  0.1598  0.2791
 1643TIP3    H126344   3.349   2.731  11.382  0.9405  1.4906 -1.4826
 1643TIP3    H226345   3.291   2.726  11.242 -2.4911 -0.9635 -0.1011
 1644TIP3   OH226346   5.004   0.420  16.718  0.3261 -0.3417  0.1330
 1644TIP3    H126347   5.043   0.364  16.650  0.2210 -1.3195  0.8505
 1644TIP3    H226348   4.968   0.358  16.781  0.6046  0.5446  1.1853
 1645TIP3   OH226349   5.377   6.627  11.828 -0.0085  0.1485 -0.3734
 1645TIP3    H126350   5.383   6.624  11.732  0.1001 -2.4028 -0.3590
 1645TIP3    H226351   5.290   6.593  11.848 -0.7350  2.3470  0.4376
 1646TIP3   OH226352   1.947   3.823   0.405 -0.9702  0.6072  0.0252
 1646TIP3    H126353   1.927   3.844   0.497  0.7446  0.8350  0.3717
 1646TIP3    H226354   2.041   3.804   0.404 -1.3275 -1.4116 -1.3345
 1647TIP3   OH226355   0.434   0.788  15.140 -0.2189 -0.0176  0.1728
 1647TIP3    H126356   0.495   0.758  15.208 -0.5848  0.8045  0.8931
 1647TIP3    H226357   0.348   0.755  15.169 -0.2442 -0.4379 -0.3785
 1648TIP3   OH226358   1.676   5.947   5.911 -0.6531 -0.0813  0.1085
 1648TIP3    H126359   1.631   5.963   5.994 -2.2753  1.3262 -0.9811
 1648TIP3    H226360   1.755   5.898   5.935  0.0974  2.2322  2.7322
 1649TIP3   OH226361   4.697   4.400  12.344 -0.5985  0.2971  0.1162
 1649TIP3    H126362   4.703   4.397  12.440 -1.4475 -2.8630  0.1960
 1649TIP3    H226363   4.605   4.381  12.325 -0.1108 -0.8377 -1.3161
 1650TIP3   OH226364   6.698   2.877   2.568  0.1572  0.3061 -0.1698
 1650TIP3    H126365   6.711   2.887   2.474 -1.3403  0.2124 -0.4144
 1650TIP3    H226366   6.785   2.886   2.606  1.2347 -2.2757 -1.7827
 1651TIP3   OH226367   5.155   4.484  14.092  0.3607  0.5728  0.4976
 1651TIP3    H126368   5.144   4.567  14.139 -3.1207  2.0315 -2.4592
 1651TIP3    H226369   5.068   4.444  14.093  1.1738 -1.3914 -1.0610
 1652TIP3   OH226370   3.646   1.231  16.015 -0.0755 -0.2504  0.0025
 1652TIP3    H126371   3.578   1.199  15.956  1.1727 -1.7598 -0.7100
 1652TIP3    H226372   3.722   1.246  15.958  0.1527  1.6399  0.7359
 1653TIP3   OH226373   4.505   6.252   4.240 -0.2003  0.4775 -0.1058
 1653TIP3    H126374   4.451   6.264   4.161 -0.1253 -1.3097 -0.4724
 1653TIP3    H226375   4.442   6.231   4.309 -0.0732 -0.6470 -0.3169
 1654TIP3   OH226376   3.973   1.245   3.741  0.0904 -0.1535  0.5810
 1654TIP3    H126377   3.974   1.214   3.832 -1.5464 -1.1168  0.3157
 1654TIP3    H226378   3.920   1.325   3.743 -0.5716 -0.5747  0.3901
 1655TIP3   OH226379   2.481   2.660  11.167  0.2445 -0.0175  0.2527
 1655TIP3    H126380   2.388   2.665  11.147  0.6987 -0.0824 -2.2707
 1655TIP3    H226381   2.499   2.566  11.176 -0.0583  0.0391  1.5551
 1656TIP3   OH226382   1.897   0.181  15.781  0.0381  0.4075  0.0525
 1656TIP3    H126383   1.919   0.191  15.689  1.8244  3.7217  0.6539
 1656TIP3    H226384   1.803   0.197  15.785 -0.1865 -0.4368 -1.2166
 1657TIP3   OH226385   6.191   0.561  12.919 -0.3110 -0.2922 -0.2738
 1657TIP3    H126386   6.099   0.572  12.894 -0.1252  0.5963 -0.6234
 1657TIP3    H226387   6.194   0.588  13.011 -0.2527  0.5805 -0.5176
 1658TIP3   OH226388   1.646   4.798  10.618 -0.0594 -0.3870 -0.3320
 1658TIP3    H126389   1.555   4.829  10.620  0.2995  0.6462  0.3398
 1658TIP3    H226390   1.639   4.710  10.580 -1.2587 -0.0575 -0.9564
 1659TIP3   OH226391   1.204   1.942   2.568 -0.0952 -0.1541  0.2099
 1659TIP3    H126392   1.205   1.916   2.660 -1.7411 -2.0013 -0.2326
 1659TIP3    H226393   1.121   1.989   2.558 -0.2182 -0.5056 -0.4550
 1660TIP3   OH226394   2.909   2.924  11.237  0.4621 -0.4981  0.0987
 1660TIP3    H126395   2.851   2.849  11.246 -0.1494 -0.0660 -0.1284
 1660TIP3    H226396   2.902   2.971  11.320 -0.2957  0.0842 -0.2749
 1661TIP3   OH226397   6.332   1.726  14.242 -0.4743  0.0236 -0.5125
 1661TIP3    H126398   6.375   1.765  14.318 -0.9935  2.5623 -1.3956
 1661TIP3    H226399   6.352   1.633  14.247  4.1410  0.8050 -0.2254
 1662TIP3   OH226400   2.984   2.410  10.807  0.2831 -0.1290  0.2326
 1662TIP3    H126401   2.997   2.472  10.879 -0.6088 -0.8312  1.0232
 1662TIP3    H226402   2.917   2.451  10.753  0.4582  0.0851  0.1771
 1663TIP3   OH226403   2.217   0.206   2.893 -0.1325 -0.3847 -0.1381
 1663TIP3    H126404   2.262   0.237   2.814 -1.1807  1.1167 -0.1797
 1663TIP3    H226405   2.218   0.111   2.885  0.3114 -0.2787 -1.6609
 1664TIP3   OH226406   3.386   5.478  15.039  0.4197 -0.2212  0.1090
 1664TIP3    H126407   3.471   5.470  15.082 -0.1643 -0.1074  1.3364
 1664TIP3    H226408   3.338   5.541  15.093  0.3605  1.6062 -1.9116
 1665TIP3   OH226409   3.321   0.504  11.653 -0.5218  0.0530 -0.9184
 1665TIP3    H126410   3.389   0.440  11.629  1.0968  1.4394 -0.2203
 1665TIP3    H226411   3.247   0.451  11.682  0.8433 -1.5116 -0.1540
 1666TIP3   OH226412   4.309   3.033  10.692 -0.0145 -0.9507  0.2856
 1666TIP3    H126413   4.296   3.125  10.716 -0.6451 -0.0516 -3.0871
 1666TIP3    H226414   4.288   2.985  10.772 -0.7249  1.7475  1.8621
 1667TIP3   OH226415   2.111   2.160  15.062 -0.4375  0.4329 -0.4320
 1667TIP3    H126416   2.153   2.105  15.128 -0.6381 -0.2073 -0.8314
 1667TIP3    H226417   2.099   2.244  15.106 -1.0858 -0.1494  0.5509
 1668TIP3   OH226418   2.820   1.761   5.143 -0.3576 -0.0116 -0.2176
 1668TIP3    H126419   2.807   1.732   5.053 -2.0797  1.2005 -0.4144
 1668TIP3    H226420   2.913   1.786   5.147 -0.0921 -0.7315 -1.4347
 1669TIP3   OH226421   6.170   4.823  13.216 -0.0295  0.0347 -0.6758
 1669TIP3    H126422   6.075   4.818  13.222 -0.1318 -0.1927 -2.1137
 1669TIP3    H226423   6.201   4.735  13.238 -0.2906 -0.4094 -1.9745
 1670TIP3   OH226424   2.436   4.537  14.671  0.1092  0.3175  0.1432
 1670TIP3    H126425   2.355   4.518  14.623 -0.3175  0.7110  0.7029
 1670TIP3    H226426   2.441   4.632  14.675  1.6164  0.3678 -1.5773
 1671TIP3   OH226427   6.367   0.462   4.311  0.4784 -0.0556 -0.8697
 1671TIP3    H126428   6.402   0.464   4.400  0.6580 -0.7186 -0.9164
 1671TIP3    H226429   6.382   0.550   4.277  0.2626  0.2538 -0.1925
 1672TIP3   OH226430   2.963   0.273  11.033 -0.2141  0.2794 -0.0021
 1672TIP3    H126431   2.957   0.180  11.054 -0.5433  0.5932  1.3901
 1672TIP3    H226432   2.962   0.276  10.937  2.6345 -1.3234 -0.1870
 1673TIP3   OH226433   5.699   4.496  11.519 -0.5595 -0.1186 -0.2759
 1673TIP3    H126434   5.772   4.434  11.514 -0.3968  0.1702 -1.8815
 1673TIP3    H226435   5.680   4.502  11.613 -0.2571 -2.1904 -0.0337
 1674TIP3   OH226436   2.301   6.098   0.910  0.6795 -0.5004  0.2195
 1674TIP3    H126437   2.372   6.122   0.970 -0.3709 -0.4425  1.4901
 1674TIP3    H226438   2.251   6.032   0.958  0.3678 -1.1670 -1.0083
 1675TIP3   OH226439   3.651   4.071  13.955  0.9671 -0.0354  0.4001
 1675TIP3    H126440   3.588   4.003  13.930  2.2946 -0.7275 -1.2267
 1675TIP3    H226441   3.596   4.141  13.990 -0.5809 -1.2543  0.5598
 1676TIP3   OH226442   0.856   5.873  14.746 -0.2301  0.4017 -0.8542
 1676TIP3    H126443   0.844   5.945  14.685 -0.5714 -0.1628 -1.4624
 1676TIP3    H226444   0.951   5.864  14.754 -0.1850  0.5824 -1.1752
 1677TIP3   OH226445   6.147   0.766   1.614 -0.3038 -0.3515  0.2002
 1677TIP3    H126446   6.167   0.673   1.605 -1.2258 -0.5714  0.2882
 1677TIP3    H226447   6.140   0.780   1.708  0.2922 -0.0790  0.2114
 1678TIP3   OH226448   2.048   3.034   3.582 -0.1256 -0.2586  0.1991
 1678TIP3    H126449   1.992   2.956   3.582 -1.3860  0.6150  0.5906
 1678TIP3    H226450   2.120   3.011   3.641 -0.9189 -0.8382  0.9798
 1679TIP3   OH226451   6.529   4.682  10.772  0.0216 -0.1413  0.5268
 1679TIP3    H126452   6.488   4.714  10.692  0.4260  0.6758  0.6358
 1679TIP3    H226453   6.531   4.587  10.762 -0.5793 -0.0905 -0.1100
 1680TIP3   OH226454   2.015   0.567   1.273  0.3762  0.1751  0.5165
 1680TIP3    H126455   1.952   0.639   1.273  1.3375  1.0452  1.0967
 1680TIP3    H226456   2.065   0.580   1.353  1.5619 -0.2559 -0.1362
 1681TIP3   OH226457   5.136   0.783  13.378 -0.3461  0.0269 -0.2765
 1681TIP3    H126458   5.213   0.840  13.377 -0.0461 -0.1347  2.8317
 1681TIP3    H226459   5.162   0.706  13.327  1.4445  0.1477  0.3977
 1682TIP3   OH226460   5.067   2.118  14.235 -0.1513 -0.4395 -0.2094
 1682TIP3    H126461   5.143   2.063  14.255 -0.7379 -0.8044  1.1124
 1682TIP3    H226462   4.993   2.058  14.230 -0.4656 -0.0133 -0.8864
 1683TIP3   OH226463   6.758   2.489  15.101 -0.4071 -0.1710  0.4984
 1683TIP3    H126464   6.771   2.567  15.048  0.2873  0.3380  1.3804
 1683TIP3    H226465   6.828   2.492  15.166  0.4002 -2.1811 -0.1943
 1684TIP3   OH226466   6.030   2.262   4.346  0.3489  0.1857 -0.0251
 1684TIP3    H126467   6.047   2.350   4.381  0.6122  1.1571 -2.4115
 1684TIP3    H226468   6.116   2.230   4.320 -0.0473  0.4536 -1.7869
 1685TIP3   OH226469   2.224   0.127   5.125 -0.2973  0.0332  0.5251
 1685TIP3    H126470   2.131   0.141   5.143 -0.7586 -0.6196 -1.1377
 1685TIP3    H226471   2.242   0.039   5.159 -0.2303  0.2274  1.0026
 1686TIP3   OH226472   3.931   4.023  15.408  0.9459  0.4950 -0.0243
 1686TIP3    H126473   3.939   3.967  15.331 -0.7540 -0.2298  0.2929
 1686TIP3    H226474   3.891   4.103  15.375 -0.0103  0.0911  0.1123
 1687TIP3   OH226475   0.404   1.898   0.316 -0.1195  0.1978  0.2878
 1687TIP3    H126476   0.433   1.825   0.261 -3.9856 -2.1401  1.0186
 1687TIP3    H226477   0.403   1.862   0.404 -0.9685  1.5531  0.8539
 1688TIP3   OH226478   3.425   4.695   4.248  0.6538  0.2707  0.2415
 1688TIP3    H126479   3.350   4.755   4.250  0.7473  0.4942 -1.5365
 1688TIP3    H226480   3.425   4.654   4.335 -0.4651  1.5508  0.8823
 1689TIP3   OH226481   6.462   3.079   1.726  0.9926  0.7146 -0.5602
 1689TIP3    H126482   6.391   3.126   1.683  0.8050  0.9589  0.0121
 1689TIP3    H226483   6.460   3.109   1.816 -2.0582 -3.5685  1.1390
 1690TIP3   OH226484   4.742   3.825   1.103  0.3834  0.2961  0.1338
 1690TIP3    H126485   4.654   3.813   1.138  0.2876  0.8632  0.1061
 1690TIP3    H226486   4.794   3.857   1.177  0.1680  1.5482 -0.2313
 1691TIP3   OH226487   6.282   2.733   4.760 -0.3920  0.0680 -0.3861
 1691TIP3    H126488   6.283   2.772   4.847 -0.9943  2.3024 -1.3030
 1691TIP3    H226489   6.211   2.669   4.764  0.4227 -0.7878  1.0967
 1692TIP3   OH226490   2.351   0.066   0.599  0.4107  0.7663 -0.5479
 1692TIP3    H126491   2.398   0.019   0.668 -1.6725  1.0491  1.1560
 1692TIP3    H226492   2.330  -0.001   0.534  0.2152 -0.0425  0.3309
 1693TIP3   OH226493   6.194   6.414  12.023 -0.5195  0.1337 -0.3502
 1693TIP3    H126494   6.163   6.367  12.100  1.3062 -1.4959 -0.5169
 1693TIP3    H226495   6.231   6.495  12.057 -1.8735  0.5470  0.1843
 1694TIP3   OH226496   5.827   3.805   5.529 -0.0132 -0.2705 -0.4202
 1694TIP3    H126497   5.833   3.800   5.434 -0.4780 -0.7218 -0.4269
 1694TIP3    H226498   5.746   3.853   5.545  1.2663  1.9996 -0.2684
 1695TIP3   OH226499   0.726   0.679   5.595 -0.3282 -0.0959 -0.0410
 1695TIP3    H126500   0.658   0.618   5.565  0.3390  0.2149 -2.3575
 1695TIP3    H226501   0.680   0.762   5.606 -0.5807 -0.1956 -0.3213
 1696TIP3   OH226502   0.594   5.177  11.144  0.1002  0.4085  0.1945
 1696TIP3    H126503   0.618   5.269  11.134 -0.8000  0.7031  0.5892
 1696TIP3    H226504   0.555   5.153  11.059  1.7133 -0.0729 -0.4481
 1697TIP3   OH226505   6.025   2.146  13.767  0.2489  0.2570 -0.5932
 1697TIP3    H126506   6.059   2.227  13.730 -0.4881  0.1555 -1.5319
 1697TIP3    H226507   5.942   2.171  13.807  0.5060  0.1517  0.0115
 1698TIP3   OH226508   0.689   5.636  11.994  0.4659  0.1483  0.3758
 1698TIP3    H126509   0.654   5.596  12.074 -0.9496 -0.4858 -0.5164
 1698TIP3    H226510   0.767   5.584  11.973 -0.0972 -0.7650  0.4564
 1699TIP3   OH226511   4.624   0.727  10.630 -0.0780  0.3481 -0.4603
 1699TIP3    H126512   4.665   0.789  10.691 -0.1006 -1.3162  1.3473
 1699TIP3    H226513   4.679   0.730  10.552  0.8338  1.4598  0.1917
 1700TIP3   OH226514   4.284   2.724  15.164 -0.1204 -0.2898  0.2603
 1700TIP3    H126515   4.288   2.653  15.229 -1.5667 -1.3666 -0.7497
 1700TIP3    H226516   4.370   2.724  15.124 -0.2590 -1.9372 -0.1292
 1701TIP3   OH226517   1.210   4.547   1.715  0.5763  0.5310 -0.1818
 1701TIP3    H126518   1.271   4.474   1.712  1.0583  0.9113  0.1988
 1701TIP3    H226519   1.222   4.592   1.631 -1.5934 -1.2786 -1.6096
 1702TIP3   OH226520   1.796   5.473  16.103 -0.6447  0.0945 -0.6995
 1702TIP3    H126521   1.714   5.441  16.066 -1.0235 -0.6304  0.6966
 1702TIP3    H226522   1.852   5.395  16.108 -0.3381  0.3295 -0.4284
 1703TIP3   OH226523   5.036   1.368  12.566  0.0874 -0.4237  0.2045
 1703TIP3    H126524   5.126   1.365  12.533  0.0754 -1.2496  0.2429
 1703TIP3    H226525   4.997   1.286  12.538 -0.3304 -0.5449  1.1181
 1704TIP3   OH226526   3.680   0.394   6.064  0.0197 -0.2618 -0.1751
 1704TIP3    H126527   3.672   0.476   6.114  0.1076 -0.7657  0.6981
 1704TIP3    H226528   3.590   0.365   6.051 -0.0402  0.3109 -1.0723
 1705TIP3   OH226529   2.248   4.701  11.583 -0.0955 -0.0583  0.3442
 1705TIP3    H126530   2.246   4.685  11.489  0.3414  0.3985  0.2541
 1705TIP3    H226531   2.195   4.780  11.594  0.5754  0.3945  0.3721
 1706TIP3   OH226532   0.930   4.612   0.952  0.2885 -0.6981 -0.0644
 1706TIP3    H126533   0.844   4.653   0.950  0.3859 -0.2893  1.9637
 1706TIP3    H226534   0.921   4.534   0.897 -1.4555 -0.8013  0.3171
 1707TIP3   OH226535   2.827   3.112  10.801  0.6888  0.2571 -0.2214
 1707TIP3    H126536   2.873   3.030  10.781 -0.4499 -1.7857  4.2962
 1707TIP3    H226537   2.737   3.085  10.820 -0.5239  3.0715 -1.3873
 1708TIP3   OH226538   5.956   1.446  16.961  0.0195 -0.0281  0.5829
 1708TIP3    H126539   6.035   1.469  17.011 -1.4578  1.5610  2.3118
 1708TIP3    H226540   5.956   1.350  16.960  0.9919 -0.0816  2.1994
 1709TIP3   OH226541   3.561   1.150   5.533 -0.2415  0.2194 -0.1788
 1709TIP3    H126542   3.523   1.070   5.496 -1.7264  0.1400  1.3642
 1709TIP3    H226543   3.486   1.196   5.572  0.9446  1.1450  1.0984
 1710TIP3   OH226544   1.001   2.362   4.711  0.5082 -0.2535  0.3032
 1710TIP3    H126545   1.094   2.372   4.726  1.0197  0.8997 -2.8341
 1710TIP3    H226546   0.981   2.425   4.641 -3.0639  1.0198  2.2276
 1711TIP3   OH226547   4.469   1.746  15.104  0.1093  0.0610  0.2346
 1711TIP3    H126548   4.561   1.764  15.084 -0.2383  0.9643 -0.6687
 1711TIP3    H226549   4.434   1.830  15.135  0.6665 -1.2750  5.2802
 1712TIP3   OH226550   3.405   2.817  11.758  0.2167 -0.3012 -0.2430
 1712TIP3    H126551   3.311   2.801  11.770  0.0067  1.1141  0.1180
 1712TIP3    H226552   3.426   2.777  11.673 -0.5031 -1.4071  0.0730
 1713TIP3   OH226553   4.315   0.835   2.005 -0.0928  0.1482 -0.1399
 1713TIP3    H126554   4.248   0.876   2.059 -0.9051  0.6937 -1.5170
 1713TIP3    H226555   4.363   0.908   1.966  2.1890 -0.1963  1.7895
 1714TIP3   OH226556   0.645   5.379  12.179 -0.2078 -0.3270 -0.4017
 1714TIP3    H126557   0.618   5.312  12.116  0.6938 -0.3468 -0.7846
 1714TIP3    H226558   0.740   5.370  12.183 -0.1371  0.5549 -0.0246
 1715TIP3   OH226559   1.155   4.521  11.922  0.4785  0.1305  0.2108
 1715TIP3    H126560   1.217   4.588  11.953  0.6159  0.9562 -1.7490
 1715TIP3    H226561   1.201   4.438  11.938  0.1346  0.3798  3.0685
 1716TIP3   OH226562   2.678   2.284  17.035  0.5132 -0.1364  0.2624
 1716TIP3    H126563   2.673   2.346  16.963 -1.3470  0.2113  0.6428
 1716TIP3    H226564   2.632   2.326  17.107 -0.5701 -1.7994  0.6136
 1717TIP3   OH226565   2.044   0.850  14.389  0.3186  0.3317  0.0094
 1717TIP3    H126566   2.136   0.867  14.411  1.1764 -0.9055 -2.3236
 1717TIP3    H226567   2.017   0.783  14.452  1.1657  0.3317  0.3896
 1718TIP3   OH226568   0.447   6.283  16.507  0.5880 -0.3813  0.4624
 1718TIP3    H126569   0.408   6.370  16.517  0.4574 -0.2676 -0.8262
 1718TIP3    H226570   0.519   6.297  16.446  0.5180 -1.1961  0.1879
 1719TIP3   OH226571   4.316   5.104  13.340 -0.0106 -0.5986  0.6273
 1719TIP3    H126572   4.393   5.076  13.389 -0.0257  0.5576  1.3456
 1719TIP3    H226573   4.261   5.150  13.404 -0.8258 -0.5250 -0.0919
 1720TIP3   OH226574   5.088   1.548  13.230 -0.4751 -0.3346  0.3110
 1720TIP3    H126575   5.177   1.515  13.224  0.2210  1.6160 -1.1859
 1720TIP3    H226576   5.045   1.489  13.292  2.2725 -0.3574  2.3939
 1721TIP3   OH226577   6.398   6.122   4.204 -0.3255 -0.5777  0.3840
 1721TIP3    H126578   6.414   6.170   4.286  0.8697 -1.2612  0.5703
 1721TIP3    H226579   6.465   6.054   4.203  0.5703  0.2779 -1.8347
 1722TIP3   OH226580   4.936   2.769   3.582  0.1690 -0.1266 -0.2287
 1722TIP3    H126581   5.027   2.742   3.570  0.4653  1.0549 -0.8105
 1722TIP3    H226582   4.886   2.715   3.521  0.1924 -2.0808  1.3562
 1723TIP3   OH226583   0.308   5.314  14.119  0.3271  0.4658  0.1464
 1723TIP3    H126584   0.279   5.225  14.139 -0.8154  0.8777  0.4413
 1723TIP3    H226585   0.300   5.320  14.023  2.0681 -0.2765 -0.0713
 1724TIP3   OH226586   2.157   5.917  12.660 -0.4862  0.5017 -0.0047
 1724TIP3    H126587   2.130   5.875  12.742  0.3451  2.2884  1.2494
 1724TIP3    H226588   2.222   5.982  12.687 -0.4639  1.3895 -2.0491
 1725TIP3   OH226589   5.212   6.629   0.835  0.4093 -0.5622 -0.3276
 1725TIP3    H126590   5.254   6.713   0.851 -0.7468 -0.1613  0.7934
 1725TIP3    H226591   5.222   6.614   0.741  2.5809 -0.2799 -0.1783
 1726TIP3   OH226592   0.760   1.471   4.861  0.0647  0.1110 -0.2082
 1726TIP3    H126593   0.839   1.450   4.911 -0.0636  0.3770  0.1067
 1726TIP3    H226594   0.700   1.510   4.924 -0.5534 -0.6332 -0.3221
 1727TIP3   OH226595   0.615   0.047   0.892  0.2029  0.2533  0.3211
 1727TIP3    H126596   0.627  -0.023   0.828  0.7072 -0.8381  1.5662
 1727TIP3    H226597   0.696   0.097   0.889 -0.0516  0.6379 -0.3754
 1728TIP3   OH226598   0.853   5.877  15.296  0.0219 -0.0220  0.2228
 1728TIP3    H126599   0.884   5.959  15.258 -1.7010  0.7971  0.4646
 1728TIP3    H226600   0.768   5.862  15.254 -0.3181 -0.9590  1.1854
 1729TIP3   OH226601   1.466   0.971  16.443  0.3601 -0.1759  0.7105
 1729TIP3    H126602   1.465   1.065  16.425 -1.5115 -0.2763  0.0757
 1729TIP3    H226603   1.376   0.950  16.469 -0.2763 -2.3597 -2.5688
 1730TIP3   OH226604   5.068   0.940  11.122 -0.1224  0.1656 -0.0980
 1730TIP3    H126605   5.081   0.846  11.130 -1.9217 -0.3136 -2.0977
 1730TIP3    H226606   4.976   0.954  11.142  0.0205  1.4485 -0.2443
 1731TIP3   OH226607   1.862   0.990   1.766  0.5398  0.3709 -0.1748
 1731TIP3    H126608   1.889   0.925   1.700  0.7244  0.4005 -0.1276
 1731TIP3    H226609   1.767   0.978   1.773  0.7351 -0.7499  0.7493
 1732TIP3   OH226610   4.627   3.862  10.691 -0.0398 -0.1498 -0.3889
 1732TIP3    H126611   4.636   3.773  10.725  0.0362  0.2001  0.5238
 1732TIP3    H226612   4.534   3.871  10.671 -0.8227  0.7794  3.0471
 1733TIP3   OH226613   2.500   6.614   1.942  0.1299  0.2615 -0.3152
 1733TIP3    H126614   2.450   6.663   2.007 -1.1399  1.2209 -1.9397
 1733TIP3    H226615   2.555   6.555   1.994 -1.1798  0.6178  1.5920
 1734TIP3   OH226616   3.096   1.217  16.976 -0.2563  0.0864  0.3081
 1734TIP3    H126617   3.109   1.125  16.954  3.6839  0.9727 -1.9176
 1734TIP3    H226618   3.055   1.254  16.898 -0.6337  0.4906  0.6909
 1735TIP3   OH226619   3.227   3.805  10.929 -0.0588  0.6489 -0.7620
 1735TIP3    H126620   3.150   3.819  10.984  0.9350 -0.6252  1.0708
 1735TIP3    H226621   3.211   3.859  10.851 -2.5792  0.7334 -0.2710
 1736TIP3   OH226622   3.218   5.057   2.475  0.4069 -0.7555 -0.2967
 1736TIP3    H126623   3.135   5.105   2.476  0.0299 -1.3535  1.7793
 1736TIP3    H226624   3.273   5.105   2.414 -1.4268 -0.2864 -1.6576
 1737TIP3   OH226625   4.647   0.024   2.712 -0.5648 -0.1782  0.0124
 1737TIP3    H126626   4.600  -0.012   2.787  0.0851  0.3624  0.6953
 1737TIP3    H226627   4.622  -0.032   2.638 -0.7951 -1.0461  0.7369
 1738TIP3   OH226628   3.949   0.861  15.153  0.4517  0.6334  0.3360
 1738TIP3    H126629   4.037   0.898  15.145  1.0286 -0.6525  0.3803
 1738TIP3    H226630   3.912   0.902  15.230  0.4018  2.3492 -0.5566
 1739TIP3   OH226631   5.525   2.028  14.664 -0.4317 -0.1763  0.6611
 1739TIP3    H126632   5.594   1.963  14.675  1.8608  2.0248  0.2244
 1739TIP3    H226633   5.501   2.022  14.572  1.2890  0.9517  0.1061
 1740TIP3   OH226634   2.225   3.453  13.528 -0.0443  0.4719 -0.0180
 1740TIP3    H126635   2.154   3.453  13.593  0.1406 -0.6883  0.2172
 1740TIP3    H226636   2.304   3.468  13.580  0.1742 -1.0581  0.1617
 1741TIP3   OH226637   4.162   6.650  12.122  0.3184  0.2558  0.3796
 1741TIP3    H126638   4.216   6.635  12.200 -1.3123  2.3330  2.0369
 1741TIP3    H226639   4.072   6.639  12.152 -0.3483  0.4283 -1.4151
 1742TIP3   OH226640   3.004   5.930   0.570 -0.2852  0.1667 -0.4654
 1742TIP3    H126641   3.068   5.997   0.548 -0.9034  1.2007  0.7497
 1742TIP3    H226642   3.029   5.854   0.517  0.3886  1.3619 -1.9279
 1743TIP3   OH226643   3.433   6.159  16.682 -0.4735 -0.3123 -0.4926
 1743TIP3    H126644   3.449   6.112  16.764 -1.3721 -0.8956 -0.6338
 1743TIP3    H226645   3.504   6.131  16.624 -0.1982 -0.3928 -0.1213
 1744TIP3   OH226646   4.756   2.785   1.728  0.3907 -0.1520 -0.1802
 1744TIP3    H126647   4.688   2.774   1.795  1.7342 -2.1934  0.9550
 1744TIP3    H226648   4.707   2.799   1.647 -1.3191  0.6679  0.9215
 1745TIP3   OH226649   0.962   5.070   0.254 -0.0204 -0.3507  0.1599
 1745TIP3    H126650   1.007   4.986   0.250 -0.4263 -0.6003  0.6743
 1745TIP3    H226651   0.873   5.050   0.224 -0.4313 -0.3418  1.3324
 1746TIP3   OH226652   2.821   5.199   0.829  0.1349 -0.4639 -0.1380
 1746TIP3    H126653   2.900   5.145   0.831 -0.4754 -1.4551 -1.6680
 1746TIP3    H226654   2.805   5.215   0.736 -1.2575  0.0233  0.1687
 1747TIP3   OH226655   2.845   0.132  12.340  0.3060 -0.0424  0.2244
 1747TIP3    H126656   2.756   0.166  12.348  0.1159 -0.8033  1.5760
 1747TIP3    H226657   2.840   0.044  12.377  1.3200 -0.6405 -0.9872
 1748TIP3   OH226658   4.058   5.058   3.456 -0.7632 -0.1883 -0.2267
 1748TIP3    H126659   3.972   5.019   3.468 -0.6005 -0.0296  1.6649
 1748TIP3    H226660   4.041   5.150   3.440 -0.9523 -0.1516  0.1754
 1749TIP3   OH226661   1.213   4.981  15.388 -0.7947 -0.3557 -0.4198
 1749TIP3    H126662   1.161   5.062  15.386  1.3398  1.0782 -1.5081
 1749TIP3    H226663   1.157   4.916  15.347 -2.2951  0.7537 -0.2220
 1750TIP3   OH226664   4.642   0.838   5.420  0.2300  0.5109  0.2484
 1750TIP3    H126665   4.573   0.871   5.477  1.2979  1.4435  1.0393
 1750TIP3    H226666   4.690   0.775   5.475  0.1610  0.0573 -0.2102
 1751TIP3   OH226667   3.967   1.693  11.411  0.3468 -0.2719  0.0808
 1751TIP3    H126668   3.902   1.624  11.398  1.5207 -1.4716  0.3469
 1751TIP3    H226669   4.014   1.698  11.328  0.7238 -0.2952  0.2896
 1752TIP3   OH226670   3.102   2.336  15.848  0.9633 -0.1832  0.2787
 1752TIP3    H126671   3.133   2.390  15.775  1.0334  1.7211  1.6409
 1752TIP3    H226672   3.180   2.292  15.881  1.6904  1.8899  1.5147
 1753TIP3   OH226673   0.158   6.594   4.595  0.1836 -0.0119  0.2715
 1753TIP3    H126674   0.146   6.612   4.502  0.2723 -0.2134  0.2194
 1753TIP3    H226675   0.070   6.581   4.629  0.1818 -0.4005  0.1198
 1754TIP3   OH226676   5.351   3.331  14.692  0.3456 -0.1818 -0.1064
 1754TIP3    H126677   5.335   3.353  14.600  1.1455  2.1137  0.2328
 1754TIP3    H226678   5.268   3.293  14.722 -0.0939 -0.4947 -1.6276
 1755TIP3   OH226679   4.352   1.094   2.711  0.0563  0.1333  0.9163
 1755TIP3    H126680   4.370   1.175   2.663 -0.0159  0.6079  1.6720
 1755TIP3    H226681   4.334   1.029   2.643  2.5414  0.1209  0.1476
 1756TIP3   OH226682   6.519   6.334  11.993 -0.2892  0.1931  0.4635
 1756TIP3    H126683   6.512   6.280  12.073 -0.8531  1.0908  1.0330
 1756TIP3    H226684   6.502   6.423  12.023 -1.2262  0.4576 -0.7922
 1757TIP3   OH226685   0.353   0.595  16.344 -0.1549  0.2532  0.0880
 1757TIP3    H126686   0.290   0.647  16.393 -0.1665  0.7148 -0.4095
 1757TIP3    H226687   0.299   0.533  16.294 -0.2923  1.2553 -1.0519
 1758TIP3   OH226688   5.761   0.042  14.335 -0.1685  0.0997 -0.0090
 1758TIP3    H126689   5.694  -0.009  14.290 -1.6707  1.7039  0.2781
 1758TIP3    H226690   5.817   0.075  14.265 -3.0523  3.4006 -1.0362
 1759TIP3   OH226691   2.940   6.386  10.437 -0.0087  0.5778 -0.2750
 1759TIP3    H126692   2.908   6.449  10.501 -1.7995 -0.1323 -0.4114
 1759TIP3    H226693   2.913   6.301  10.471  2.7803 -0.2406  0.1494
 1760TIP3   OH226694   5.183   6.275   0.093  0.2548 -0.0478 -0.0663
 1760TIP3    H126695   5.159   6.287   0.185  0.0866  0.8474 -0.2109
 1760TIP3    H226696   5.200   6.364   0.061 -0.6615 -0.2334 -1.1545
 1761TIP3   OH226697   3.098   1.393  14.685  0.2049  0.0871  0.3181
 1761TIP3    H126698   3.034   1.408  14.614 -0.9528 -0.1644  1.2691
 1761TIP3    H226699   3.164   1.336  14.646  0.9484  1.9363 -1.3008
 1762TIP3   OH226700   6.160   3.447   4.575 -0.5003  0.2766  0.3524
 1762TIP3    H126701   6.110   3.457   4.656  0.7765  1.1336  1.0614
 1762TIP3    H226702   6.094   3.436   4.507 -1.6185  0.4173  1.3878
 1763TIP3   OH226703   2.609   6.374   1.999  0.2490  0.1000  0.1792
 1763TIP3    H126704   2.647   6.333   1.921 -0.5539 -1.0863  0.3768
 1763TIP3    H226705   2.538   6.315   2.024 -0.9690  1.6484  0.4948
 1764TIP3   OH226706   6.603   0.869  15.836  0.6736  0.7593  0.0915
 1764TIP3    H126707   6.660   0.889  15.909 -0.3773 -0.1984  1.2188
 1764TIP3    H226708   6.516   0.899  15.864  0.1664 -0.0435 -0.5663
 1765TIP3   OH226709   1.920   4.166   3.657  0.0780 -0.7827 -0.5411
 1765TIP3    H126710   1.934   4.084   3.705 -0.5014  0.0721  1.1514
 1765TIP3    H226711   1.975   4.230   3.701 -1.3687  0.3012 -0.2221
 1766TIP3   OH226712   1.314   6.548  11.453  0.1982  0.3599  0.4920
 1766TIP3    H126713   1.256   6.624  11.452  0.8749  0.8912 -1.0552
 1766TIP3    H226714   1.305   6.509  11.366 -0.5395 -1.6873  1.4281
 1767TIP3   OH226715   4.019   5.628   5.257  0.3008  0.0220 -0.5758
 1767TIP3    H126716   3.929   5.638   5.226 -0.1881 -1.4967  0.2361
 1767TIP3    H226717   4.043   5.539   5.231  1.2443  0.0878  0.0231
 1768TIP3   OH226718   6.487   4.424   0.577  0.5017 -0.1622 -0.4224
 1768TIP3    H126719   6.560   4.485   0.586  0.1192  0.4578 -1.3500
 1768TIP3    H226720   6.419   4.474   0.532 -0.5254 -0.7124  0.4489
 1769TIP3   OH226721   3.075   1.333  14.973 -0.5180 -0.3086 -0.1265
 1769TIP3    H126722   3.082   1.330  14.878  0.1424  0.2464 -0.1045
 1769TIP3    H226723   3.123   1.256  15.004 -0.1696 -0.1351 -0.2269
 1770TIP3   OH226724   3.834   5.907  12.771  0.0782 -0.1304  0.5919
 1770TIP3    H126725   3.858   5.958  12.693 -1.8997  0.2677  0.2003
 1770TIP3    H226726   3.889   5.942  12.841  0.1472  1.1969 -0.1065
 1771TIP3   OH226727   1.909   5.080  17.138 -0.0287 -0.1147  0.6015
 1771TIP3    H126728   1.915   5.175  17.148  0.6663 -0.1496  0.5923
 1771TIP3    H226729   2.001   5.050  17.135 -0.2298 -0.8693  1.4216
 1772TIP3   OH226730   4.820   2.039  11.193 -0.0918  0.4486  0.1431
 1772TIP3    H126731   4.876   2.044  11.115  0.1611 -0.9956  0.2167
 1772TIP3    H226732   4.733   2.021  11.158 -0.2575  1.2389  0.1227
 1773TIP3   OH226733   5.911   5.059  13.697 -0.5785  0.3593 -0.5817
 1773TIP3    H126734   5.894   4.966  13.715  0.9820 -0.2239 -1.7972
 1773TIP3    H226735   5.993   5.058  13.647  0.5866  2.5563  1.1086
 1774TIP3   OH226736   3.468   3.378  15.802  0.0383 -0.4828  0.0198
 1774TIP3    H126737   3.471   3.390  15.897  1.2902  2.2780 -0.2583
 1774TIP3    H226738   3.377   3.355  15.784  0.0131 -2.2649  1.9280
 1775TIP3   OH226739   5.741   1.907  15.400 -0.2034 -0.7241  0.3217
 1775TIP3    H126740   5.651   1.941  15.404 -0.5823 -1.6387 -0.0751
 1775TIP3    H226741   5.783   1.962  15.334 -0.6247 -0.6036  0.1431
 1776TIP3   OH226742   4.699   0.963  10.779  0.0557 -0.3483 -0.3691
 1776TIP3    H126743   4.733   1.049  10.754  1.2716 -0.1731  1.6947
 1776TIP3    H226744   4.630   0.981  10.843  2.1148 -0.8648  2.1545
 1777TIP3   OH226745   2.350   6.428   5.853 -0.4997  0.2344  0.6753
 1777TIP3    H126746   2.445   6.432   5.863 -0.5073  0.4292  0.6687
 1777TIP3    H226747   2.326   6.513   5.816 -0.3135 -0.8681 -2.2448
 1778TIP3   OH226748   2.921   5.818  11.650 -0.0669  0.0164 -0.3856
 1778TIP3    H126749   2.939   5.895  11.595 -0.7102  0.1435 -0.4183
 1778TIP3    H226750   3.008   5.783  11.670  0.1620 -0.5640 -2.2280
 1779TIP3   OH226751   1.838   5.542  16.892 -0.4748 -0.8481  0.2046
 1779TIP3    H126752   1.815   5.450  16.879  0.8152 -1.1671  0.0374
 1779TIP3    H226753   1.928   5.539  16.925 -0.5242  0.3448  0.4705
 1780TIP3   OH226754   5.629   0.884  13.371  0.1449  0.1365 -0.0803
 1780TIP3    H126755   5.615   0.807  13.427 -0.9152 -0.0839 -0.6196
 1780TIP3    H226756   5.666   0.950  13.429 -0.4869 -0.2502  0.7790
 1781TIP3   OH226757   4.913   4.380   0.292  0.2456 -0.2627  0.0382
 1781TIP3    H126758   4.854   4.438   0.340 -0.6904 -0.2290 -1.1210
 1781TIP3    H226759   4.977   4.438   0.251 -0.9785  0.0561 -1.5289
 1782TIP3   OH226760   5.959   0.506   4.045 -0.4223 -0.3728 -0.0869
 1782TIP3    H126761   5.882   0.562   4.047 -0.7836 -0.8204 -1.1288
 1782TIP3    H226762   5.998   0.522   3.959  0.7284 -0.0526  0.4748
 1783TIP3   OH226763   6.109   3.759  10.737  0.4674 -0.2011  0.5377
 1783TIP3    H126764   6.121   3.664  10.732  0.7322 -0.1520  0.1653
 1783TIP3    H226765   6.063   3.781  10.656 -0.4362 -0.1277  1.0513
 1784TIP3   OH226766   1.111   5.992  16.447 -0.1617 -0.1510 -0.3812
 1784TIP3    H126767   1.054   6.047  16.501 -1.4930 -0.2050 -1.6759
 1784TIP3    H226768   1.196   5.996  16.490 -0.4858  2.0489  0.1618
 1785TIP3   OH226769   0.840   4.965   0.649  0.4916  0.2181  0.4370
 1785TIP3    H126770   0.870   5.051   0.620  0.1062  0.2037 -0.0319
 1785TIP3    H226771   0.916   4.907   0.638  0.2145  0.0907 -1.1266
 1786TIP3   OH226772   5.947   4.364   1.349 -0.0595 -0.0157  0.0207
 1786TIP3    H126773   6.026   4.311   1.356  0.9047  1.1990 -1.2329
 1786TIP3    H226774   5.895   4.322   1.280  2.1266  2.2504 -3.2790
 1787TIP3   OH226775   3.558   1.559  16.510  0.0044 -0.5849 -0.2654
 1787TIP3    H126776   3.560   1.529  16.601  0.3843  1.1480  0.3177
 1787TIP3    H226777   3.639   1.609  16.499 -1.1249  1.2165 -0.8347
 1788TIP3   OH226778   6.028   4.682   1.634  0.5502  0.4196  0.3275
 1788TIP3    H126779   6.068   4.600   1.662  0.7481  0.7238  0.9622
 1788TIP3    H226780   6.015   4.732   1.715 -0.1521  0.7582  0.0173
 1789TIP3   OH226781   5.435   6.631   4.447 -0.0207 -0.1680  0.2734
 1789TIP3    H126782   5.410   6.539   4.441 -0.8297  0.0497  0.1960
 1789TIP3    H226783   5.411   6.668   4.362  0.7375  0.0109  0.1358
 1790TIP3   OH226784   6.326   4.560   5.287  0.6093 -0.3657 -0.1970
 1790TIP3    H126785   6.368   4.549   5.372  2.0803 -0.3487 -0.8861
 1790TIP3    H226786   6.277   4.642   5.294  1.1443 -0.0990  0.4695
 1791TIP3   OH226787   1.647   6.641  14.364 -0.2487 -0.1550 -0.0048
 1791TIP3    H126788   1.659   6.696  14.286 -1.5405  0.6833  0.3559
 1791TIP3    H226789   1.574   6.584  14.341 -0.6685  0.1301  0.5915
 1792TIP3   OH226790   6.076   3.721   3.779 -0.2864 -0.6636  0.2720
 1792TIP3    H126791   5.990   3.745   3.745 -0.2904 -1.2812 -0.1729
 1792TIP3    H226792   6.133   3.724   3.702  0.3619  0.9581  0.7789
 1793TIP3   OH226793   2.325   4.362  13.967  0.3400 -0.6237 -0.0351
 1793TIP3    H126794   2.276   4.417  13.906  2.0408  0.8038 -0.1995
 1793TIP3    H226795   2.282   4.277  13.963 -1.2045  0.1653 -1.2300
 1794TIP3   OH226796   4.163   1.928   3.468  0.1484 -0.2499 -0.2178
 1794TIP3    H126797   4.253   1.948   3.442  0.8495 -0.5912  1.7526
 1794TIP3    H226798   4.115   2.009   3.451  1.0121  0.2018 -0.5785
 1795TIP3   OH226799   1.616   3.159   5.475 -0.3701  0.1624 -0.2811
 1795TIP3    H126800   1.554   3.113   5.419  0.4306 -1.6391  0.2545
 1795TIP3    H226801   1.628   3.101   5.550  1.4563  0.7896 -0.0530
 1796TIP3   OH226802   4.985   1.384   4.049  0.6777 -0.2382 -0.7552
 1796TIP3    H126803   5.030   1.339   4.121 -1.7164  1.3479  1.9736
 1796TIP3    H226804   4.983   1.476   4.076 -0.2229  0.4491 -2.9540
 1797TIP3   OH226805   4.361   5.488  12.160  0.2797 -0.7335 -0.1583
 1797TIP3    H126806   4.350   5.428  12.233  0.3764  0.4411  0.8514
 1797TIP3    H226807   4.410   5.562  12.196 -1.3906  0.7979 -0.8884
 1798TIP3   OH226808   4.355   6.424   3.734 -0.0915 -0.3350  0.1320
 1798TIP3    H126809   4.407   6.382   3.666  0.0442 -0.1656  0.1310
 1798TIP3    H226810   4.337   6.511   3.701  0.4227 -0.0681  0.5400
 1799TIP3   OH226811   3.172   3.359  12.656 -0.1806  0.2061 -0.1447
 1799TIP3    H126812   3.169   3.405  12.572 -0.7536 -0.7141 -0.6458
 1799TIP3    H226813   3.139   3.271  12.637  0.5577 -0.3152  0.8587
 1800TIP3   OH226814   6.350   4.105  14.028  0.1876  0.2430 -0.5986
 1800TIP3    H126815   6.283   4.171  14.009  1.1523  1.1819 -0.8176
 1800TIP3    H226816   6.399   4.141  14.102  0.9583 -0.0354 -0.9583
 1801TIP3   OH226817   4.304   1.982   5.478 -0.1002 -0.2303  0.0502
 1801TIP3    H126818   4.368   1.931   5.429 -3.1221 -2.1065 -2.3025
 1801TIP3    H226819   4.292   2.062   5.426 -1.7859 -1.2862 -1.3033
 1802TIP3   OH226820   0.338   5.853   0.393  0.1263  0.1259 -0.7638
 1802TIP3    H126821   0.415   5.807   0.360 -0.8914 -2.5720  0.3570
 1802TIP3    H226822   0.371   5.938   0.423  2.2242 -0.0857 -2.3140
 1803TIP3   OH226823   4.593   1.441  16.009 -0.3098 -0.2983  0.6198
 1803TIP3    H126824   4.558   1.383  16.077 -2.4043 -0.2136 -0.3291
 1803TIP3    H226825   4.685   1.416  16.002 -0.6403 -2.0012  1.7685
 1804TIP3   OH226826   6.328   3.690  16.290 -0.2136  1.0668  0.3923
 1804TIP3    H126827   6.420   3.665  16.282 -0.1675  1.1469  0.6588
 1804TIP3    H226828   6.280   3.607  16.285 -0.3027  1.1920 -2.1218
 1805TIP3   OH226829   1.398   3.849  17.279  0.2261 -0.2724 -0.4090
 1805TIP3    H126830   1.395   3.908  17.203 -1.0742  2.4919  1.6054
 1805TIP3    H226831   1.447   3.897  17.345 -2.7765 -0.3260  2.0889
 1806TIP3   OH226832   5.711   0.615   3.644 -0.2915 -1.1942  0.1975
 1806TIP3    H126833   5.621   0.614   3.612 -0.6144  0.7476  0.8471
 1806TIP3    H226834   5.703   0.596   3.738  0.0180 -1.4149  0.1797
 1807TIP3   OH226835   0.811   3.004   1.377 -0.2690  0.7748  0.1019
 1807TIP3    H126836   0.876   3.020   1.445  0.0150 -1.6299  0.4808
 1807TIP3    H226837   0.739   2.959   1.422  0.5703 -2.2386 -1.3447
 1808TIP3   OH226838   5.712   0.974  14.874 -0.3775 -0.2600 -0.3669
 1808TIP3    H126839   5.791   0.944  14.829 -0.0623 -0.5450  0.3564
 1808TIP3    H226840   5.707   0.919  14.952 -0.8055  0.3536  0.0455
 1809TIP3   OH226841   6.751   6.543  16.920 -0.1114 -0.2108  0.0027
 1809TIP3    H126842   6.747   6.511  17.010  1.7419 -1.1030 -0.1790
 1809TIP3    H226843   6.801   6.625  16.926 -0.5559  0.0742 -0.1423
 1810TIP3   OH226844   5.292   0.309   0.459  0.7239 -0.1511 -0.1669
 1810TIP3    H126845   5.381   0.294   0.428  0.3963 -1.5574 -0.4718
 1810TIP3    H226846   5.238   0.248   0.409 -0.4521  0.8165 -0.1272
 1811TIP3   OH226847   1.158   5.261   0.015 -0.3597 -0.4585 -0.4648
 1811TIP3    H126848   1.100   5.222  -0.050  0.1208  0.8870 -1.7660
 1811TIP3    H226849   1.136   5.355   0.014 -0.2276 -0.3799  1.2114
 1812TIP3   OH226850   3.862   5.159  11.408  0.3024  0.1082  0.0674
 1812TIP3    H126851   3.951   5.165  11.373  0.5798 -1.0886  0.5229
 1812TIP3    H226852   3.835   5.069  11.388 -1.7958  1.1293 -2.3584
 1813TIP3   OH226853   1.599   1.865   2.481 -0.3194 -0.1558 -0.1905
 1813TIP3    H126854   1.522   1.809   2.478 -1.0701  0.8730 -0.8186
 1813TIP3    H226855   1.586   1.920   2.559  0.0690 -0.3693  0.0294
 1814TIP3   OH226856   0.100   4.112  16.339  0.0614  0.0027  0.3672
 1814TIP3    H126857   0.138   4.063  16.413  0.1286 -1.1217 -0.3863
 1814TIP3    H226858   0.152   4.192  16.336  1.8920 -1.1194 -0.1069
 1815TIP3   OH226859   0.156   1.609  16.301 -0.1922 -0.1498  0.3095
 1815TIP3    H126860   0.105   1.632  16.223 -2.0509  1.0757  1.8153
 1815TIP3    H226861   0.186   1.693  16.337  0.6840 -0.6984  0.9233
 1816TIP3   OH226862   0.005   3.058  15.037  0.0661  0.6012  0.1112
 1816TIP3    H126863   0.049   3.061  14.952  1.1876  1.5697  0.7040
 1816TIP3    H226864  -0.048   3.137  15.040  0.3614  0.7869  0.4864
 1817TIP3   OH226865   2.930   5.019  10.763  0.1662  0.2150 -0.4986
 1817TIP3    H126866   2.982   4.951  10.719  0.4999 -0.7160  1.2513
 1817TIP3    H226867   2.992   5.091  10.778  1.0647 -0.9285  1.6679
 1818TIP3   OH226868   6.215   3.489   1.245  0.0279 -0.9884  0.1728
 1818TIP3    H126869   6.223   3.580   1.216  1.2760 -1.1200  0.0665
 1818TIP3    H226870   6.125   3.482   1.277  0.5275  0.8653  2.2295
 1819TIP3   OH226871   1.262   2.171  16.412 -0.1472  0.3261 -0.3101
 1819TIP3    H126872   1.229   2.094  16.367 -2.3443  1.2788 -0.4499
 1819TIP3    H226873   1.257   2.241  16.347 -0.8852  1.1628  0.6156
 1820TIP3   OH226874   2.720   4.806   2.670  0.7081 -0.1198  0.2947
 1820TIP3    H126875   2.773   4.879   2.640  0.7647 -0.2988 -0.0460
 1820TIP3    H226876   2.639   4.846   2.701  0.4080  0.0237 -0.6511
 1821TIP3   OH226877   6.003   5.737  13.994  0.3349  0.7384 -0.6234
 1821TIP3    H126878   6.095   5.765  13.991  1.0239 -1.2133  0.3853
 1821TIP3    H226879   5.979   5.724  13.902  1.5524 -0.1080 -0.8484
 1822TIP3   OH226880   5.448   1.385   2.023  0.3211  0.3891  0.0943
 1822TIP3    H126881   5.372   1.337   2.057 -0.9747  1.3803 -1.2711
 1822TIP3    H226882   5.523   1.346   2.068 -1.0383 -0.0908  2.0992
 1823TIP3   OH226883   3.941   3.939  13.496  0.1270  0.4308  0.4005
 1823TIP3    H126884   3.898   4.005  13.443  0.5733  2.1292  2.0416
 1823TIP3    H226885   3.946   3.862  13.440 -3.1037  0.8001 -0.5750
 1824TIP3   OH226886   2.138   6.633  14.814 -0.4171 -0.0539 -0.6537
 1824TIP3    H126887   2.144   6.727  14.797  0.0587 -0.2347 -1.4988
 1824TIP3    H226888   2.130   6.593  14.728  0.3863 -0.8659 -0.3657
 1825TIP3   OH226889   0.268   4.183  16.021  0.7145 -0.4289 -0.5351
 1825TIP3    H126890   0.345   4.136  16.053  0.1426 -1.1210 -0.1616
 1825TIP3    H226891   0.247   4.244  16.092 -0.3404 -1.7182  0.2919
 1826TIP3   OH226892   6.384   0.540   2.521  0.3175 -0.2576 -0.1546
 1826TIP3    H126893   6.413   0.551   2.431 -0.6836  1.8126 -0.3072
 1826TIP3    H226894   6.440   0.600   2.571 -0.4006  0.0739  0.2735
 1827TIP3   OH226895   1.018   3.885  16.161 -0.1658  0.2538  0.9808
 1827TIP3    H126896   1.086   3.853  16.219 -0.6911  0.2779  1.6166
 1827TIP3    H226897   1.061   3.951  16.107  0.1567  0.7412  1.8199
 1828TIP3   OH226898   2.731   2.904   5.227  0.3445 -0.0782 -0.1482
 1828TIP3    H126899   2.701   2.815   5.244 -1.7713  0.6704  0.3427
 1828TIP3    H226900   2.710   2.919   5.134  2.1538 -0.5809 -0.6783
 1829TIP3   OH226901   4.294   1.640   2.329 -0.3291 -0.1018 -0.0702
 1829TIP3    H126902   4.351   1.564   2.315 -2.3249 -1.6256 -0.3339
 1829TIP3    H226903   4.347   1.700   2.382  1.2822 -1.7144  0.2476
 1830TIP3   OH226904   5.846   1.265  14.047  0.4783 -0.1232  0.1934
 1830TIP3    H126905   5.860   1.176  14.080  0.2444 -0.0414  0.5254
 1830TIP3    H226906   5.754   1.283  14.067 -0.0289 -0.5321 -1.6292
 1831TIP3   OH226907   0.573   6.224   0.796  0.0152  0.0157  0.3786
 1831TIP3    H126908   0.637   6.213   0.866 -0.7390 -1.0426  0.9364
 1831TIP3    H226909   0.530   6.139   0.789 -0.4611  0.3301 -0.8519
 1832TIP3   OH226910   4.790   1.334  13.282  0.1374  0.4225 -0.6765
 1832TIP3    H126911   4.757   1.424  13.279 -0.1111  0.3534 -0.1804
 1832TIP3    H226912   4.862   1.338  13.346 -0.4194  0.1043 -0.0143
 1833TIP3   OH226913   0.741   2.528   4.241  0.4214 -0.1669  0.7435
 1833TIP3    H126914   0.668   2.562   4.293 -2.0837  0.6314 -2.9309
 1833TIP3    H226915   0.777   2.605   4.197 -0.5572 -1.1781 -2.0649
 1834TIP3   OH226916   0.419   4.333   2.246 -0.6258 -0.1220 -0.0080
 1834TIP3    H126917   0.329   4.326   2.213 -1.1918  3.7616  0.2471
 1834TIP3    H226918   0.418   4.286   2.329 -1.4284 -2.9718 -1.4990
 1835TIP3   OH226919   0.623   5.721   1.714 -0.4688 -0.3639  0.1478
 1835TIP3    H126920   0.568   5.758   1.783 -1.6723 -1.8159  0.0034
 1835TIP3    H226921   0.696   5.783   1.706 -3.7083  3.6906 -2.0968
 1836TIP3   OH226922   4.709   3.590  12.974  0.4668 -0.1211 -0.4234
 1836TIP3    H126923   4.694   3.684  12.968  1.8865  0.3263  1.7719
 1836TIP3    H226924   4.789   3.575  12.923  1.3163  0.2453  0.7408
 1837TIP3   OH226925   1.614   1.295  12.012 -0.1071  0.5033  0.0422
 1837TIP3    H126926   1.680   1.322  11.948  1.7985  2.1325  2.5276
 1837TIP3    H226927   1.610   1.366  12.075 -3.2924 -0.1840  0.7984
 1838TIP3   OH226928   0.904   2.416   0.674 -0.2034  0.1723  0.0249
 1838TIP3    H126929   0.945   2.374   0.599  0.2039 -0.4747  0.5999
 1838TIP3    H226930   0.927   2.361   0.749  0.2696  1.3550  0.7950
 1839TIP3   OH226931   2.049   5.671   1.800  0.6109 -0.0442 -0.1643
 1839TIP3    H126932   2.066   5.748   1.745  0.7245  0.7000  0.8752
 1839TIP3    H226933   2.133   5.651   1.840  0.1024  0.7488  1.3703
 1840TIP3   OH226934   1.195   6.446  15.509  0.4048 -0.0096  0.4530
 1840TIP3    H126935   1.209   6.501  15.432  0.8164  0.9318  1.1780
 1840TIP3    H226936   1.118   6.483  15.552  1.9469  1.4707  2.1361
 1841TIP3   OH226937   3.753   1.716   4.168  0.4895 -0.1742 -0.4297
 1841TIP3    H126938   3.841   1.733   4.135  1.0019 -1.1652  0.3827
 1841TIP3    H226939   3.715   1.655   4.105 -0.1090  1.2381 -1.4811
 1842TIP3   OH226940   0.895   0.279  13.823 -0.0029 -0.2284 -0.0116
 1842TIP3    H126941   0.845   0.280  13.742  1.1036 -2.6214 -0.8303
 1842TIP3    H226942   0.831   0.259  13.891 -0.7497  0.6687 -0.4305
 1843TIP3   OH226943   2.606   2.390   4.420  0.3826  0.3154  0.0703
 1843TIP3    H126944   2.592   2.358   4.509  1.1372 -1.7960 -0.5051
 1843TIP3    H226945   2.578   2.318   4.363  1.7916  0.8110 -1.3399
 1844TIP3   OH226946   0.586   4.414   0.740 -0.4128 -0.6755  0.3487
 1844TIP3    H126947   0.604   4.495   0.788  0.4734 -0.0856 -0.9132
 1844TIP3    H226948   0.541   4.358   0.803 -1.2058  0.8558  1.2082
 1845TIP3   OH226949   4.195   2.981   1.266 -0.5130  0.1363  0.1470
 1845TIP3    H126950   4.268   3.036   1.239 -1.0857  0.4217 -0.8861
 1845TIP3    H226951   4.165   2.940   1.185 -1.6462  0.2185  0.5060
 1846TIP3   OH226952   3.165   5.332   5.846 -0.0959 -0.0593 -0.8553
 1846TIP3    H126953   3.118   5.259   5.807 -0.8405 -0.1147  0.0988
 1846TIP3    H226954   3.129   5.339   5.935  0.2741  1.1841 -0.7805
 1847TIP3   OH226955   2.451   0.944  13.861  0.1458  0.0646  0.2226
 1847TIP3    H126956   2.478   1.029  13.897 -0.2292  0.0616  0.5266
 1847TIP3    H226957   2.520   0.921  13.799  0.2195  0.6218  0.0919
 1848TIP3   OH226958   3.249   1.630  12.271 -0.2313 -0.8906 -0.0926
 1848TIP3    H126959   3.209   1.591  12.193 -0.3939 -4.1097  1.4116
 1848TIP3    H226960   3.214   1.578  12.344  0.0373  1.8346  2.1723
 1849TIP3   OH226961   5.234   0.313  12.695  0.1755 -0.1969  0.1165
 1849TIP3    H126962   5.271   0.316  12.606 -0.8511  0.3654 -0.3159
 1849TIP3    H226963   5.176   0.237  12.694 -0.3203  0.1766  0.0995
 1850TIP3   OH226964   2.986   1.363  16.760 -0.3636 -0.0794  0.6059
 1850TIP3    H126965   3.010   1.456  16.754 -0.2608 -0.1090  0.5678
 1850TIP3    H226966   2.956   1.340  16.672 -0.4254 -0.0721  0.6248
 1851TIP3   OH226967   4.178   1.004  15.207  0.1144 -0.6874 -0.9146
 1851TIP3    H126968   4.272   0.997  15.192 -0.0406 -0.4254 -2.1570
 1851TIP3    H226969   4.154   1.090  15.171 -0.1845  0.5347  1.9001
 1852TIP3   OH226970   3.765   3.042   5.790  0.5562  0.0398 -0.1526
 1852TIP3    H126971   3.697   3.042   5.857 -1.3762 -0.5379 -2.0131
 1852TIP3    H226972   3.722   3.077   5.712  2.7967  0.9708 -1.0570
 1853TIP3   OH226973   3.417   4.392  13.369 -0.1968  0.1361  0.1361
 1853TIP3    H126974   3.440   4.355  13.454  0.0079 -0.7737 -0.2964
 1853TIP3    H226975   3.475   4.347  13.307  1.1303  2.2632 -0.2769
 1854TIP3   OH226976   6.002   3.073   3.001  0.0732  0.0490  0.0784
 1854TIP3    H126977   5.951   3.064   2.921  0.0792  0.1137  0.0670
 1854TIP3    H226978   5.946   3.037   3.070  0.2159 -0.3451 -0.0080
 1855TIP3   OH226979   3.828   0.932  15.645  1.6915  0.2326 -0.1694
 1855TIP3    H126980   3.776   0.858  15.613  0.6072  0.9478 -0.0852
 1855TIP3    H226981   3.874   0.897  15.721  1.3417 -0.4135 -0.2446
 1856TIP3   OH226982   5.356   1.710   3.200 -0.2790  0.2787 -0.6004
 1856TIP3    H126983   5.365   1.639   3.136 -1.9289 -1.3967  0.9011
 1856TIP3    H226984   5.295   1.675   3.265 -2.7809  3.7893 -0.7888
 1857TIP3   OH226985   2.570   5.849   0.946  0.2904 -0.8835  0.0696
 1857TIP3    H126986   2.659   5.819   0.930  0.6850  1.2618 -2.3185
 1857TIP3    H226987   2.578   5.942   0.966 -1.3428 -0.8758  0.8848
 1858TIP3   OH226988   2.831   1.453  10.617 -0.1846  0.8112 -0.0042
 1858TIP3    H126989   2.738   1.452  10.642  0.0341 -2.3987  1.1171
 1858TIP3    H226990   2.834   1.404  10.535  0.7102 -1.1427  1.1370
 1859TIP3   OH226991   2.728   0.418   6.495 -0.4016 -0.4459 -0.0794
 1859TIP3    H126992   2.645   0.451   6.462 -0.5838  0.2569  1.0534
 1859TIP3    H226993   2.793   0.456   6.435 -0.7372  0.7277  0.2598
 1860TIP3   OH226994   3.035   1.960   4.814 -0.0048  0.0697 -0.4358
 1860TIP3    H126995   3.067   1.910   4.739 -0.4175  1.3666 -1.5136
 1860TIP3    H226996   2.954   1.915   4.840 -2.3612  2.0265 -3.6199
 1861TIP3   OH226997   6.352   5.727   2.276  0.5933 -0.5178  0.5230
 1861TIP3    H126998   6.416   5.796   2.261 -0.0807 -0.0541 -0.3254
 1861TIP3    H226999   6.300   5.758   2.349 -1.4671  1.2526 -1.5351
 1862TIP3   OH227000   3.445   1.322  15.679 -0.2929 -0.2067 -0.1938
 1862TIP3    H127001   3.498   1.397  15.650  1.7728 -0.9043  1.5143
 1862TIP3    H227002   3.354   1.351  15.668  0.4308  2.1752 -0.4905
 1863TIP3   OH227003   1.080   6.639   1.164  0.5494 -0.3227 -0.8014
 1863TIP3    H127004   0.992   6.602   1.178  1.0231 -0.8396  1.0996
 1863TIP3    H227005   1.134   6.597   1.231  1.7190  1.8079 -0.3241
 1864TIP3   OH227006   0.734   6.595   2.835 -0.3068 -0.4137 -0.3120
 1864TIP3    H127007   0.799   6.598   2.904 -1.2218 -0.7029  0.5902
 1864TIP3    H227008   0.762   6.522   2.779  0.9975  0.4706 -0.8417
 1865TIP3   OH227009   3.544   4.908  10.384 -0.4005  0.0847  0.4351
 1865TIP3    H127010   3.535   4.826  10.432 -0.8222 -0.5933 -0.7542
 1865TIP3    H227011   3.470   4.908  10.322  0.9723  0.1376 -1.3020
 1866TIP3   OH227012   0.819   0.533   5.812 -0.1380  0.4275  0.3776
 1866TIP3    H127013   0.910   0.531   5.841  0.3940 -2.1079 -1.1284
 1866TIP3    H227014   0.820   0.583   5.731 -0.2597  1.0827  0.7721
 1867TIP3   OH227015   6.364   6.412  13.399  0.1863 -0.3773 -0.2139
 1867TIP3    H127016   6.332   6.487  13.450 -0.2382 -0.5008 -0.3014
 1867TIP3    H227017   6.400   6.451  13.320 -1.5938 -0.3824 -1.0640
 1868TIP3   OH227018   3.110   3.286  15.367  0.4803 -0.5375 -0.6283
 1868TIP3    H127019   3.102   3.299  15.462 -0.9232 -2.4798 -0.4276
 1868TIP3    H227020   3.198   3.316  15.347  0.7566  0.0893  1.2550
 1869TIP3   OH227021   2.713   6.312  13.443  0.7340 -0.2562 -0.0531
 1869TIP3    H127022   2.733   6.382  13.381  0.8664  0.7151  1.0582
 1869TIP3    H227023   2.751   6.233  13.404 -0.2009  0.0882 -1.7756
 1870TIP3   OH227024   3.092   6.237  12.785 -0.1419 -0.0010 -0.3221
 1870TIP3    H127025   3.181   6.206  12.770  0.0005  0.2872 -0.0914
 1870TIP3    H227026   3.038   6.158  12.783 -0.0992 -0.0102 -2.0146
 1871TIP3   OH227027   4.757   6.698   6.088  0.1002 -0.3465 -0.0070
 1871TIP3    H127028   4.815   6.623   6.101  1.8456  0.8621 -0.5732
 1871TIP3    H227029   4.764   6.719   5.995  0.6317  1.2629  0.3567
 1872TIP3   OH227030   4.923   2.248  11.665 -0.1424 -0.2255  0.5816
 1872TIP3    H127031   4.977   2.180  11.706 -1.4603 -1.0487  1.0402
 1872TIP3    H227032   4.977   2.283  11.595  0.7504 -1.4550  0.6163
 1873TIP3   OH227033   4.984   0.489  11.141 -0.4883 -0.4822  0.5921
 1873TIP3    H127034   4.894   0.477  11.171 -0.9910  0.2743 -0.5336
 1873TIP3    H227035   5.007   0.406  11.099 -0.2505 -1.0692  1.8414
 1874TIP3   OH227036   2.708   1.408   2.380  0.6235 -0.1762 -0.3514
 1874TIP3    H127037   2.761   1.437   2.454  1.7231  0.5770 -1.4049
 1874TIP3    H227038   2.617   1.423   2.408  1.0666  3.0006 -0.2578
 1875TIP3   OH227039   6.705   2.430   1.114  0.7177 -0.3253  0.3919
 1875TIP3    H127040   6.748   2.383   1.186  2.1444 -0.3118 -0.4191
 1875TIP3    H227041   6.724   2.522   1.130  1.1199 -0.3279 -0.0301
 1876TIP3   OH227042   2.066   2.100  13.148 -0.2512 -1.1894  0.5000
 1876TIP3    H127043   1.981   2.083  13.108  0.0585 -1.4284 -0.0603
 1876TIP3    H227044   2.127   2.043  13.101  0.4042 -0.2268  0.1624
 1877TIP3   OH227045   1.710   2.818  13.361 -0.2691  0.1673 -0.3723
 1877TIP3    H127046   1.740   2.790  13.274  0.0251 -0.5160 -0.0577
 1877TIP3    H227047   1.789   2.851  13.404 -0.1463 -0.7321  0.1102
 1878TIP3   OH227048   3.434   2.724   4.341 -0.5876  0.3173 -0.3001
 1878TIP3    H127049   3.511   2.706   4.287 -0.8329  1.4061 -1.0417
 1878TIP3    H227050   3.465   2.716   4.431  0.0302 -0.6976 -0.5861
 1879TIP3   OH227051   0.504   3.021   5.570 -0.0045  0.7001 -0.0659
 1879TIP3    H127052   0.559   2.973   5.632  0.6191  0.3682 -0.8618
 1879TIP3    H227053   0.545   3.007   5.485 -1.7945 -0.2699 -0.8213
 1880TIP3   OH227054   1.936   5.158   2.317  0.0816  0.2044  0.1777
 1880TIP3    H127055   1.947   5.244   2.357 -0.3365 -0.3789  1.6199
 1880TIP3    H227056   1.882   5.174   2.240  0.0726  1.2414  0.3836
 1881TIP3   OH227057   0.867   0.022  15.261  0.1608  0.3098 -0.4123
 1881TIP3    H127058   0.909   0.029  15.347  0.7766 -1.8218 -0.4849
 1881TIP3    H227059   0.931  -0.022  15.206 -1.4571 -1.4980 -0.9896
 1882TIP3   OH227060   1.550   1.797   0.359 -0.4763 -0.0090 -0.5681
 1882TIP3    H127061   1.625   1.830   0.408  0.4546 -0.5018 -1.6227
 1882TIP3    H227062   1.517   1.725   0.413  1.3789 -1.4543 -1.2548
 1883TIP3   OH227063   0.655   5.542   5.392 -0.3625  0.2860 -0.4192
 1883TIP3    H127064   0.738   5.518   5.433 -1.8861 -2.7304  1.2703
 1883TIP3    H227065   0.604   5.583   5.462 -1.2307 -0.4104 -0.6114
 1884TIP3   OH227066   1.069   5.798  15.859 -0.2646 -0.0627  0.0878
 1884TIP3    H127067   1.020   5.860  15.913  0.6516  0.8055 -0.0400
 1884TIP3    H227068   1.096   5.850  15.783  2.3965  0.0251  0.9972
 1885TIP3   OH227069   0.282   5.383   2.324 -0.5152  1.1578  0.1489
 1885TIP3    H127070   0.346   5.381   2.395 -0.3904  1.0172  0.0325
 1885TIP3    H227071   0.312   5.317   2.262 -1.8723 -0.4033  1.0613
 1886TIP3   OH227072   5.133   6.138   1.157  0.2185  0.0142  0.7822
 1886TIP3    H127073   5.152   6.075   1.087  1.1938 -0.5684  1.5541
 1886TIP3    H227074   5.145   6.224   1.115 -1.2458 -0.2582 -0.3094
 1887TIP3   OH227075   5.766   6.353   1.830 -0.2336 -0.4244  0.3159
 1887TIP3    H127076   5.734   6.433   1.871 -1.2571  0.4491 -1.9614
 1887TIP3    H227077   5.702   6.285   1.855 -1.2985  0.2698 -0.4192
 1888TIP3   OH227078   0.684   3.089  13.490  0.5868  0.5508 -0.0190
 1888TIP3    H127079   0.667   3.001  13.525  0.9308  0.8091  0.8373
 1888TIP3    H227080   0.651   3.087  13.401 -0.3697 -0.1331  0.3398
 1889TIP3   OH227081   3.089   0.860  16.471  0.5640 -0.2814  0.1160
 1889TIP3    H127082   3.035   0.835  16.397  0.4581 -1.1909  0.4915
 1889TIP3    H227083   3.085   0.956  16.473 -1.1469 -0.3273  0.2264
 1890TIP3   OH227084   3.884   6.324  15.970  0.0073 -0.4231 -0.1407
 1890TIP3    H127085   3.958   6.381  15.989  0.4060 -1.2852  1.0491
 1890TIP3    H227086   3.855   6.293  16.055 -0.4937 -1.6100 -0.7099
 1891TIP3   OH227087   6.551   0.854   4.657 -0.3226 -0.1486 -0.2275
 1891TIP3    H127088   6.600   0.773   4.668 -2.0079 -1.0596  1.0181
 1891TIP3    H227089   6.575   0.907   4.734  0.9128  0.6713 -1.1269
 1892TIP3   OH227090   1.670   0.612  11.999  0.6957  0.3274 -0.1998
 1892TIP3    H127091   1.623   0.602  12.082  1.2280  1.7452  0.3027
 1892TIP3    H227092   1.747   0.665  12.021  1.4792 -0.2850 -1.3831
 1893TIP3   OH227093   2.299   5.694   5.028  0.1933  0.1143  0.0068
 1893TIP3    H127094   2.244   5.639   5.084 -1.3237  2.9284  1.4801
 1893TIP3    H227095   2.379   5.643   5.016 -1.1259 -2.4293  1.1320
 1894TIP3   OH227096   4.990   1.972   3.783 -0.2265  0.7781 -0.0907
 1894TIP3    H127097   4.978   1.885   3.820 -0.2826  1.6079  1.9863
 1894TIP3    H227098   5.060   1.962   3.719 -1.2241 -1.0441 -0.9819
 1895TIP3   OH227099   0.913   2.059   1.485  0.0395  0.4991 -0.0034
 1895TIP3    H127100   0.961   2.061   1.402  0.4397  1.4001  0.2298
 1895TIP3    H227101   0.978   2.086   1.550  0.2309 -1.9205  0.8910
 1896TIP3   OH227102   0.068   5.279   5.463  0.1047  0.1428 -0.0407
 1896TIP3    H127103   0.039   5.189   5.449 -2.3364  1.2351 -2.9338
 1896TIP3    H227104  -0.005   5.321   5.507  1.8129  0.4929  2.6913
 1897TIP3   OH227105   5.673   6.617   5.904  0.3199  0.0007 -0.6265
 1897TIP3    H127106   5.623   6.557   5.959 -0.4080  1.6383  0.6045
 1897TIP3    H227107   5.764   6.593   5.919  0.0337 -1.2785 -0.7920
 1898TIP3   OH227108   0.242   4.273  15.459  0.8622  0.3052  0.3481
 1898TIP3    H127109   0.259   4.258  15.552  0.2892 -0.0658  0.3963
 1898TIP3    H227110   0.227   4.186  15.423  2.1924  0.3327 -0.3309
 1899TIP3   OH227111   0.461   0.601  10.790  0.3368 -0.9394 -0.2018
 1899TIP3    H127112   0.427   0.602  10.879 -1.8329 -0.7048 -0.9738
 1899TIP3    H227113   0.438   0.514  10.757 -2.2649  0.1896 -1.6706
 1900TIP3   OH227114   5.525   4.795   1.246 -0.3084 -0.0747  0.1414
 1900TIP3    H127115   5.496   4.831   1.330 -2.0795  0.3614 -0.6201
 1900TIP3    H227116   5.445   4.769   1.202  0.4948  0.6625 -1.8528
 1901TIP3   OH227117   3.465   0.432  14.534  0.0012  0.0036  0.4355
 1901TIP3    H127118   3.559   0.420  14.547 -0.1138 -0.1771  1.1479
 1901TIP3    H227119   3.439   0.359  14.478  0.5723  0.9955 -1.1754
 1902TIP3   OH227120   0.259   1.374  16.141  0.1978  0.2734 -0.6503
 1902TIP3    H127121   0.331   1.324  16.104  0.7235  0.7629 -0.3057
 1902TIP3    H227122   0.296   1.461  16.157  0.2652 -0.1349  1.8384
 1903TIP3   OH227123   2.732   0.690   3.698  0.2816 -0.2566  0.3300
 1903TIP3    H127124   2.672   0.746   3.648 -0.3530 -0.2659  1.0656
 1903TIP3    H227125   2.709   0.601   3.672 -1.3021 -0.3628  1.9746
 1904TIP3   OH227126   2.896   3.492  16.322 -0.6827  0.2797 -0.1711
 1904TIP3    H127127   2.819   3.538  16.356  0.4987  1.5226  0.9372
 1904TIP3    H227128   2.969   3.553  16.336  0.4749 -0.7308 -1.4798
 1905TIP3   OH227129   5.409   5.326   3.684  0.7971  0.2756 -0.3076
 1905TIP3    H127130   5.406   5.380   3.763  0.9555 -0.7300  0.3967
 1905TIP3    H227131   5.438   5.387   3.616 -0.5237  1.4555  0.1310
 1906TIP3   OH227132   2.709   6.546   0.080 -0.2050  0.0741 -0.2205
 1906TIP3    H127133   2.616   6.530   0.065 -0.7125  2.4236  0.0155
 1906TIP3    H227134   2.720   6.533   0.174 -0.5603  0.8259 -0.0643
 1907TIP3   OH227135   4.601   3.559   5.471  0.2079 -0.4456  0.0091
 1907TIP3    H127136   4.596   3.607   5.388  2.4923 -0.2288 -0.0824
 1907TIP3    H227137   4.546   3.608   5.531  0.9537  1.2303 -0.5967
 1908TIP3   OH227138   1.531   1.682   5.996  0.1858 -0.4998 -0.1060
 1908TIP3    H127139   1.564   1.604   6.039 -4.5352 -2.3734  0.7083
 1908TIP3    H227140   1.513   1.743   6.068 -1.7245 -1.1210 -0.0087
 1909TIP3   OH227141   5.396   6.488   5.059 -0.0263  0.1565  0.9756
 1909TIP3    H127142   5.359   6.436   4.988  1.5809 -1.5192  1.2909
 1909TIP3    H227143   5.356   6.574   5.049 -1.9073 -0.7963 -0.2850
 1910TIP3   OH227144   0.853   5.312  14.355  0.5792  0.8873 -0.5536
 1910TIP3    H127145   0.867   5.261  14.434 -0.4294  0.2659 -0.7620
 1910TIP3    H227146   0.883   5.400  14.377  0.9168  0.5584  0.3002
 1911TIP3   OH227147   4.633   3.893  14.756  0.4425  0.4362 -0.1825
 1911TIP3    H127148   4.613   3.877  14.848 -0.9503  0.8856 -0.3803
 1911TIP3    H227149   4.723   3.927  14.756  0.3590  0.6781  1.0276
 1912TIP3   OH227150   6.770   3.935   7.018  0.3463  0.4279 -0.2003
 1912TIP3    H127151   6.841   3.874   7.037 -0.2173  0.2250  1.4176
 1912TIP3    H227152   6.792   4.015   7.066 -1.3073 -0.2188  1.7899
 1913TIP3   OH227153   5.109   0.008   1.458 -0.0871 -0.5237 -0.0376
 1913TIP3    H127154   5.176   0.017   1.391  0.9833 -0.1197  1.0571
 1913TIP3    H227155   5.088   0.098   1.483 -1.1969 -0.6310 -0.4866
 1914TIP3   OH227156   0.127   2.883  16.060  0.1965  0.5807  0.1214
 1914TIP3    H127157   0.032   2.888  16.057  0.1673  0.8371  1.1010
 1914TIP3    H227158   0.148   2.791  16.047 -0.1210  0.7000 -1.3123
 1915TIP3   OH227159   4.185   2.016   3.153  0.3550 -0.4836 -0.4496
 1915TIP3    H127160   4.094   2.025   3.182  0.5475  0.5815 -0.1211
 1915TIP3    H227161   4.207   1.925   3.172 -0.7364 -0.8475 -0.8301
 1916TIP3   OH227162   5.434   1.929  16.452  0.0984 -0.5188 -0.5580
 1916TIP3    H127163   5.430   2.025  16.450 -0.8486 -0.5272  0.0748
 1916TIP3    H227164   5.518   1.908  16.413  2.6697  0.7772  3.6188
 1917TIP3   OH227165   6.386   5.873  11.381 -0.0968  0.2607 -0.1078
 1917TIP3    H127166   6.405   5.880  11.474 -0.0153 -0.4163 -0.0657
 1917TIP3    H227167   6.301   5.915  11.370 -0.3475 -0.1177  0.3629
 1918TIP3   OH227168   5.367   5.880  13.674 -0.1313  0.9222  0.3856
 1918TIP3    H127169   5.335   5.937  13.605  0.5091 -0.7384 -1.3850
 1918TIP3    H227170   5.450   5.846  13.640 -0.7504 -1.4804  1.0499
 1919TIP3   OH227171   6.596   3.056   0.850  0.1892 -0.1412  0.1916
 1919TIP3    H127172   6.655   3.059   0.775  0.2956 -2.2038  0.1411
 1919TIP3    H227173   6.605   3.142   0.891  1.3879  0.4306 -1.1896
 1920TIP3   OH227174   4.198   3.299   2.929  0.4300  0.5076 -0.2152
 1920TIP3    H127175   4.273   3.356   2.913  1.7698 -0.7101  1.5152
 1920TIP3    H227176   4.206   3.273   3.020 -1.6341 -0.3635 -0.2277
 1921TIP3   OH227177   5.144   5.980  16.653  0.7155  0.2813 -0.0827
 1921TIP3    H127178   5.145   6.064  16.607 -0.9568  0.4292  0.1082
 1921TIP3    H227179   5.110   6.000  16.740 -0.2642 -0.6841 -0.2244
 1922TIP3   OH227180   3.336   3.983  12.575 -0.1755  0.2959 -0.2312
 1922TIP3    H127181   3.428   4.010  12.568 -0.3077  0.4792 -1.5670
 1922TIP3    H227182   3.286   4.058  12.543 -0.7975  0.1810  0.4534
 1923TIP3   OH227183   4.331   1.276  12.317  0.2923  0.9064  0.1105
 1923TIP3    H127184   4.263   1.285  12.251  0.2734 -2.9459 -0.6024
 1923TIP3    H227185   4.412   1.293  12.270  0.1295  0.5599 -0.3039
 1924TIP3   OH227186   2.857   2.111   4.511  0.1035 -0.8670 -0.3068
 1924TIP3    H127187   2.902   2.027   4.505 -0.7394 -1.2385 -2.2681
 1924TIP3    H227188   2.774   2.091   4.554  0.7248 -0.6341  1.0525
 1925TIP3   OH227189   3.562   2.388   0.120  0.4197 -1.0316 -0.1101
 1925TIP3    H127190   3.499   2.317   0.110 -1.5135  0.3506  1.3868
 1925TIP3    H227191   3.560   2.433   0.036 -3.6901  1.2318  0.8925
 1926TIP3   OH227192   4.600   6.641  11.166 -0.6891  0.7650 -0.4363
 1926TIP3    H127193   4.669   6.596  11.214 -0.6209  0.6582 -0.6316
 1926TIP3    H227194   4.523   6.586  11.177 -0.6639  0.7213 -0.4805
 1927TIP3   OH227195   0.667   4.917   0.867 -0.2588 -0.4379 -0.0134
 1927TIP3    H127196   0.703   4.944   0.782 -1.1179  1.3901  0.1594
 1927TIP3    H227197   0.709   4.975   0.930 -0.7724 -0.7729  0.6394
 1928TIP3   OH227198   0.691   3.760   3.643  0.2014 -0.3846 -0.1116
 1928TIP3    H127199   0.650   3.677   3.621  0.1806 -0.4112  0.0250
 1928TIP3    H227200   0.754   3.776   3.572  0.2633 -0.5556 -0.0943
 1929TIP3   OH227201   1.422   1.245   6.799 -0.4459 -0.5649  0.8423
 1929TIP3    H127202   1.383   1.160   6.819  0.1465 -0.6337  1.7815
 1929TIP3    H227203   1.359   1.309   6.831 -0.2805 -0.6709  1.3995
 1930TIP3   OH227204   1.792   2.178   4.060  0.2014  0.0795 -0.6553
 1930TIP3    H127205   1.801   2.083   4.073  0.0987  0.4084  2.5728
 1930TIP3    H227206   1.871   2.203   4.011  1.5813 -1.3576  0.7104
 1931TIP3   OH227207   4.987   1.916  16.177 -0.1193  0.6055  0.6712
 1931TIP3    H127208   5.052   1.845  16.174  1.7004  2.2067  0.6759
 1931TIP3    H227209   4.957   1.925  16.087 -1.3262 -0.9665  0.8694
 1932TIP3   OH227210   6.105   0.414  13.869 -0.2513  0.1121 -0.2427
 1932TIP3    H127211   6.045   0.340  13.860  0.3233 -0.3365 -0.4770
 1932TIP3    H227212   6.162   0.389  13.941 -2.0396  1.7414  1.8506
 1933TIP3   OH227213   4.249   4.946  11.949 -0.0606  0.0968  0.0734
 1933TIP3    H127214   4.214   5.023  11.905 -0.9617  0.1662  0.8867
 1933TIP3    H227215   4.335   4.933  11.909  0.3200  1.8001  0.2392
 1934TIP3   OH227216   4.585   1.611   4.599  0.2278  0.3736 -0.3243
 1934TIP3    H127217   4.637   1.556   4.541  0.0211 -0.6208  0.4005
 1934TIP3    H227218   4.494   1.588   4.581  0.0147  1.8874 -1.3698
 1935TIP3   OH227219   4.457   5.949   4.293 -0.7460  0.1318  0.1674
 1935TIP3    H127220   4.503   5.954   4.376 -1.4610  0.1662  0.5686
 1935TIP3    H227221   4.372   5.989   4.310 -1.4311 -1.1232 -0.1955
 1936TIP3   OH227222   3.743   3.067  12.250 -0.2912 -0.4554  0.2460
 1936TIP3    H127223   3.722   3.112  12.168  0.6007 -1.5652 -0.6309
 1936TIP3    H227224   3.837   3.078  12.260 -0.1877 -1.4325  0.4368
 1937TIP3   OH227225   3.287   3.922  12.136 -0.2455 -0.2956  0.0331
 1937TIP3    H127226   3.198   3.949  12.115 -0.0731  0.7555  0.5710
 1937TIP3    H227227   3.330   4.002  12.165  0.6856 -0.9179  0.4259
 1938TIP3   OH227228   3.050   6.216  17.251  0.4665 -0.0614  0.8978
 1938TIP3    H127229   3.067   6.177  17.165  1.1084 -0.2017  1.0828
 1938TIP3    H227230   2.984   6.159  17.291 -2.1239  1.6569 -0.6545
 1939TIP3   OH227231   0.122   6.401   3.239 -0.3522  0.1670 -0.0741
 1939TIP3    H127232   0.095   6.356   3.319  0.8857 -1.1158 -0.3521
 1939TIP3    H227233   0.213   6.376   3.227 -0.3549  0.8021 -1.5972
 1940TIP3   OH227234   2.111   0.228  13.447  0.1384 -0.0249  0.0080
 1940TIP3    H127235   2.186   0.247  13.503 -0.4954  1.5687  0.3815
 1940TIP3    H227236   2.037   0.221  13.508  0.0700 -2.5072 -0.2567
 1941TIP3   OH227237   3.807   3.349   5.038  0.3846  0.3644  0.2891
 1941TIP3    H127238   3.826   3.357   4.944  0.5057  2.6116  0.4547
 1941TIP3    H227239   3.790   3.255   5.051  0.2904  0.0107 -1.9807
 1942TIP3   OH227240   2.128   1.067   0.086 -0.0583  0.6906  0.0074
 1942TIP3    H127241   2.149   0.981   0.123 -0.1302 -0.2185 -1.9353
 1942TIP3    H227242   2.206   1.092   0.037 -0.8866  0.5982 -1.4005
 1943TIP3   OH227243   0.472   3.375   3.374  0.1342 -0.5369  0.5008
 1943TIP3    H127244   0.469   3.299   3.432 -0.3364 -0.8974  0.0244
 1943TIP3    H227245   0.554   3.365   3.325  0.3669 -0.4110  0.8640
 1944TIP3   OH227246   0.859   0.206   3.917 -0.0726 -0.1239 -0.6183
 1944TIP3    H127247   0.764   0.198   3.914  0.0285 -1.9738 -0.3507
 1944TIP3    H227248   0.882   0.262   3.843 -1.2777 -0.6182 -1.3841
 1945TIP3   OH227249   4.459   1.140   3.967  0.5417 -0.2828 -0.4987
 1945TIP3    H127250   4.369   1.131   3.996 -0.0633 -0.6236 -2.3605
 1945TIP3    H227251   4.510   1.090   4.032 -0.5481  0.1515  0.7218
 1946TIP3   OH227252   5.452   0.484   1.065  0.6690 -0.0838  0.4950
 1946TIP3    H127253   5.438   0.561   1.121 -1.6616 -0.5416  0.6440
 1946TIP3    H227254   5.474   0.414   1.125 -1.4181 -0.4767  0.8607
 1947TIP3   OH227255   4.409   3.361  15.673  0.2657  0.2969 -0.0205
 1947TIP3    H127256   4.484   3.342  15.616 -0.8221  0.9866 -1.7788
 1947TIP3    H227257   4.350   3.412  15.618 -2.0701 -1.2829  0.8720
 1948TIP3   OH227258   2.039   5.820   0.123 -0.4459 -0.2861  0.4565
 1948TIP3    H127259   1.967   5.805   0.184 -0.9743  0.8447  0.1335
 1948TIP3    H227260   2.108   5.760   0.152 -1.1610 -0.6931  1.3567
 1949TIP3   OH227261   3.390   4.501  14.919 -0.5448 -0.0400 -0.2942
 1949TIP3    H127262   3.450   4.442  14.873 -0.7566  0.5166 -1.3023
 1949TIP3    H227263   3.429   4.588  14.908 -0.6246  0.1079  0.5526
 1950TIP3   OH227264   5.259   2.227   1.939 -0.0206  0.2869 -0.3229
 1950TIP3    H127265   5.170   2.228   1.904 -0.2013  0.2913  0.1344
 1950TIP3    H227266   5.300   2.152   1.897 -0.5830 -0.3840  0.3006
 1951TIP3   OH227267   5.129   6.075   3.121  0.0571 -0.2824  0.1759
 1951TIP3    H127268   5.120   6.169   3.132 -1.7327 -0.2933 -0.8291
 1951TIP3    H227269   5.133   6.040   3.210  1.8780  0.7944  0.5574
 1952TIP3   OH227270   0.961   5.145   1.319 -0.2087 -0.1068  0.0204
 1952TIP3    H127271   0.997   5.230   1.346  0.2284  0.6496 -2.6174
 1952TIP3    H227272   1.022   5.081   1.354 -0.1085  0.6958  1.3900
 1953TIP3   OH227273   2.173   3.971   3.288  0.3796  0.1987  0.7173
 1953TIP3    H127274   2.217   4.051   3.317 -2.0330  2.7868 -2.0694
 1953TIP3    H227275   2.102   3.957   3.351  1.2294 -0.2386  1.6077
 1954TIP3   OH227276   1.265   5.823   5.818 -0.2254  0.7192 -0.0529
 1954TIP3    H127277   1.325   5.876   5.869  0.1266  0.0102  0.2875
 1954TIP3    H227278   1.241   5.878   5.744  1.7798  0.6219 -0.8478
 1955TIP3   OH227279   6.312   3.857  15.987  0.3759  0.2063 -0.4440
 1955TIP3    H127280   6.341   3.895  15.904  0.6928  0.2829 -0.3006
 1955TIP3    H227281   6.380   3.883  16.050 -1.2662  2.6401  0.4840
 1956TIP3   OH227282   4.170   1.997   2.031  0.3202 -0.0223 -0.3127
 1956TIP3    H127283   4.203   1.977   1.943 -1.8576  0.4278 -1.3179
 1956TIP3    H227284   4.179   1.915   2.079  2.1950 -0.0931 -0.6852
 1957TIP3   OH227285   3.341   4.029  13.062 -0.3726  0.2706 -0.0478
 1957TIP3    H127286   3.262   3.976  13.052 -0.0917 -0.4687  1.3877
 1957TIP3    H227287   3.320   4.090  13.133  0.0360  0.6558 -0.2565
 1958TIP3   OH227288   1.485   1.277  14.186  0.0113 -0.6916  0.3401
 1958TIP3    H127289   1.439   1.219  14.125 -1.3209 -0.5153  1.1322
 1958TIP3    H227290   1.532   1.218  14.245 -1.2317 -1.0024  1.0608
 1959TIP3   OH227291   0.013   4.086   6.216 -0.3477  0.4150  0.5441
 1959TIP3    H127292  -0.031   4.039   6.288  1.7794 -1.8888  0.5060
 1959TIP3    H227293  -0.055   4.101   6.152 -1.5227 -1.1813  1.3324
 1960TIP3   OH227294   1.717   2.946   1.982 -0.1062  0.0565  0.2537
 1960TIP3    H127295   1.794   2.937   1.925 -0.0032 -0.3114  0.4520
 1960TIP3    H227296   1.686   2.856   1.995 -0.0160  0.1216  0.9359
 1961TIP3   OH227297   0.315   6.122  10.383 -0.2764  0.5127  0.3100
 1961TIP3    H127298   0.408   6.127  10.360 -0.0041 -0.6392  1.0320
 1961TIP3    H227299   0.273   6.086  10.304  0.4760 -2.3532  1.0695
 1962TIP3   OH227300   6.745   4.820  14.252 -0.3578  0.6530 -0.4553
 1962TIP3    H127301   6.752   4.746  14.192  0.1119 -0.6159  1.0827
 1962TIP3    H227302   6.747   4.781  14.339  0.4220  2.5107  0.4325
 1963TIP3   OH227303   2.678   3.270  14.249 -0.0308 -0.2961  0.2005
 1963TIP3    H127304   2.602   3.324  14.226  0.6607 -0.3404 -2.5073
 1963TIP3    H227305   2.642   3.198  14.301 -1.4282  0.9743  1.0979
 1964TIP3   OH227306   4.920   2.611   1.285  0.3497  0.2825  0.0776
 1964TIP3    H127307   5.003   2.657   1.276  1.3231 -1.2781  0.4859
 1964TIP3    H227308   4.916   2.587   1.378  0.3586 -1.2340 -0.2869
 1965TIP3   OH227309   0.404   5.837  11.898  0.3889  0.2829  0.0781
 1965TIP3    H127310   0.439   5.749  11.908  0.0697 -0.0517 -1.4768
 1965TIP3    H227311   0.481   5.892  11.884  0.5687  0.2240  0.7898
 1966TIP3   OH227312   3.577   5.944  15.265 -0.4824  0.0625 -0.3613
 1966TIP3    H127313   3.567   5.907  15.177 -2.4068  0.4681 -0.3689
 1966TIP3    H227314   3.491   5.982  15.284 -0.2084 -0.2866  1.8177
 1967TIP3   OH227315   0.573   5.447  16.868 -0.0666  0.1998  0.2226
 1967TIP3    H127316   0.518   5.508  16.820 -0.9730 -0.9189 -0.1823
 1967TIP3    H227317   0.640   5.503  16.909 -1.1177  1.5017  0.2218
 1968TIP3   OH227318   4.005   5.001   1.106 -0.2330 -0.3513 -0.5065
 1968TIP3    H127319   4.005   4.906   1.099 -0.8717 -0.3880 -0.0693
 1968TIP3    H227320   3.968   5.031   1.023  0.4622 -0.4563 -0.8648
 1969TIP3   OH227321   0.084   0.664   0.371  0.4249  0.0141  0.2610
 1969TIP3    H127322   0.124   0.722   0.305  0.7438 -0.4451  0.0434
 1969TIP3    H227323   0.095   0.576   0.334  0.3633 -0.2218  0.8063
 1970TIP3   OH227324   5.227   5.598  16.099  0.1741  0.0245 -0.7099
 1970TIP3    H127325   5.136   5.607  16.127 -0.0980  2.3662 -2.0633
 1970TIP3    H227326   5.278   5.649  16.162  0.3379 -0.0387 -0.7893
 1971TIP3   OH227327   2.254   4.692   2.659 -0.5393 -0.2657 -0.5336
 1971TIP3    H127328   2.168   4.654   2.646 -0.3629 -0.7300 -0.3726
 1971TIP3    H227329   2.314   4.617   2.658  0.0209  0.1560 -1.9895
 1972TIP3   OH227330   4.574   2.144   1.219 -0.2666  0.5703 -0.0655
 1972TIP3    H127331   4.536   2.231   1.228 -0.8120  0.4657 -1.1478
 1972TIP3    H227332   4.665   2.154   1.249 -0.5248  1.3413  0.4693
 1973TIP3   OH227333   4.570   2.291  16.174 -0.0815  0.0948 -0.1771
 1973TIP3    H127334   4.528   2.370  16.142  2.0823  1.1001 -0.7600
 1973TIP3    H227335   4.556   2.226  16.105 -3.1472 -0.6201  0.9399
 1974TIP3   OH227336   3.110   3.914   0.963 -0.0579  0.0355 -0.6093
 1974TIP3    H127337   3.064   3.850   0.908  0.9490  0.4604 -1.9905
 1974TIP3    H227338   3.078   3.999   0.932 -1.0402  0.2618  0.9003
 1975TIP3   OH227339   4.434   5.034  14.380  0.0934  0.3508  0.1911
 1975TIP3    H127340   4.434   5.113  14.326 -0.1049  0.8361  0.8824
 1975TIP3    H227341   4.358   4.985  14.350  1.2389 -0.4629 -1.4748
 1976TIP3   OH227342   3.774   3.988   5.161 -0.0289  0.1608 -0.5774
 1976TIP3    H127343   3.716   4.029   5.225  0.0053 -0.0362 -0.4191
 1976TIP3    H227344   3.736   3.901   5.147  1.2849 -0.7170  0.9652
 1977TIP3   OH227345   1.914   6.169  15.394 -0.2296  0.4302  0.4491
 1977TIP3    H127346   1.830   6.195  15.432  0.3427  1.0886  1.2854
 1977TIP3    H227347   1.976   6.236  15.424  0.7262 -0.4034  0.3798
 1978TIP3   OH227348   6.627   0.848  10.505  0.3309  0.2549  0.2438
 1978TIP3    H127349   6.552   0.789  10.512  0.1805  0.5373  1.2885
 1978TIP3    H227350   6.703   0.791  10.495  0.0083 -0.0461 -0.5078
 1979TIP3   OH227351   5.579   4.660   2.134  0.1007 -0.1767  0.6643
 1979TIP3    H127352   5.510   4.721   2.161  0.0813 -1.2356  3.3664
 1979TIP3    H227353   5.654   4.716   2.112 -0.6125  0.8820  0.8682
 1980TIP3   OH227354   1.098   0.877   4.078  0.1353  0.5715 -0.4166
 1980TIP3    H127355   1.146   0.839   4.151 -0.7121 -0.8289 -0.5513
 1980TIP3    H227356   1.146   0.847   4.000 -0.2918  0.1138 -0.5079
 1981TIP3   OH227357   2.541   4.373  16.269 -0.1072  0.9104 -0.7474
 1981TIP3    H127358   2.613   4.427  16.300  0.0291  0.2732  0.0857
 1981TIP3    H227359   2.579   4.287  16.255 -0.6698  0.5984 -0.4222
 1982TIP3   OH227360   4.783   4.274   3.895 -0.3986 -0.1809  0.4437
 1982TIP3    H127361   4.785   4.346   3.958 -1.7301  0.4446 -0.1881
 1982TIP3    H227362   4.761   4.197   3.948 -0.8762  0.2310  0.8570
 1983TIP3   OH227363   4.538   0.308  12.084  0.3075 -0.1958  0.6732
 1983TIP3    H127364   4.633   0.317  12.078  0.5048 -2.5602 -1.5118
 1983TIP3    H227365   4.508   0.302  11.993 -1.6809 -1.4547  1.3336
 1984TIP3   OH227366   3.605   5.854   4.222 -0.3037 -0.0062  0.3947
 1984TIP3    H127367   3.654   5.866   4.140  1.7363 -0.0082  1.5479
 1984TIP3    H227368   3.530   5.913   4.214  1.5589  2.4070 -0.1926
 1985TIP3   OH227369   6.066   0.471   4.616  0.5464  0.1034 -0.4726
 1985TIP3    H127370   5.974   0.491   4.602  0.2540 -1.2843 -0.6744
 1985TIP3    H227371   6.088   0.409   4.547  1.1248 -1.0336  0.6979
 1986TIP3   OH227372   5.908   2.356   0.091 -0.2125 -0.1187 -0.7572
 1986TIP3    H127373   5.922   2.310   0.009  3.4397 -3.5748  1.4588
 1986TIP3    H227374   5.983   2.415   0.100 -1.8046  2.0700 -0.8225
 1987TIP3   OH227375   4.414   4.130   3.886 -0.1549  0.0833  0.1583
 1987TIP3    H127376   4.349   4.067   3.856 -0.2786 -0.1413  0.8862
 1987TIP3    H227377   4.378   4.166   3.967  1.1344 -0.8969  1.2225
 1988TIP3   OH227378   1.373   2.614   4.395 -0.0007  0.3723  0.6037
 1988TIP3    H127379   1.359   2.554   4.468 -2.0907  0.5254  0.3810
 1988TIP3    H227380   1.349   2.564   4.317 -0.9431  1.1953  0.3425
 1989TIP3   OH227381   1.360   2.904   5.144 -0.2005  0.3730 -0.5177
 1989TIP3    H127382   1.267   2.922   5.159  0.0537  1.7947 -0.4832
 1989TIP3    H227383   1.382   2.956   5.067  0.6650  0.4019 -0.2658
 1990TIP3   OH227384   6.588   1.419  13.816  0.9495  0.2808  0.0948
 1990TIP3    H127385   6.607   1.441  13.907  0.4423  2.5754 -0.2824
 1990TIP3    H227386   6.528   1.488  13.787  0.1584 -1.0682 -1.6423
 1991TIP3   OH227387   5.522   1.698   4.657 -0.1988 -0.2371  0.0610
 1991TIP3    H127388   5.535   1.697   4.562 -1.2874 -0.2215 -0.1028
 1991TIP3    H227389   5.444   1.645   4.671  0.1503 -0.5234  0.9906
 1992TIP3   OH227390   3.471   4.817   3.361  0.0869 -0.4248  0.7181
 1992TIP3    H127391   3.542   4.761   3.328  0.5270 -1.0210  2.5391
 1992TIP3    H227392   3.393   4.786   3.316  0.5551 -1.6304  0.6817
 1993TIP3   OH227393   4.023   6.093   1.380 -0.0764  0.9748  0.1174
 1993TIP3    H127394   4.057   6.125   1.463 -0.0835  1.0278  0.1001
 1993TIP3    H227395   3.931   6.121   1.379  0.5200  3.0334 -0.9388
 1994TIP3   OH227396   0.669   0.630  13.389  0.1659 -0.3711  0.2853
 1994TIP3    H127397   0.604   0.643  13.458 -0.5128 -0.6337 -0.2905
 1994TIP3    H227398   0.681   0.717  13.350 -1.1727 -0.6298 -0.7604
 1995TIP3   OH227399   0.632   3.800   2.623  0.2651 -0.0286  0.6320
 1995TIP3    H127400   0.542   3.819   2.651  0.7746  0.2807  2.1499
 1995TIP3    H227401   0.641   3.705   2.634  0.1664 -0.0397  0.6146
 1996TIP3   OH227402   0.458   3.282  13.612  0.5783  0.2569  0.3427
 1996TIP3    H127403   0.363   3.279  13.603  0.3172 -2.4782  2.7822
 1996TIP3    H227404   0.490   3.288  13.522 -1.8531  1.2213 -0.5410
 1997TIP3   OH227405   2.569   4.512   4.605  0.3011 -0.1400  0.6346
 1997TIP3    H127406   2.539   4.445   4.667  1.4529 -0.1240  1.2462
 1997TIP3    H227407   2.497   4.521   4.543 -0.8436 -0.2532  1.8875
 1998TIP3   OH227408   1.136   4.430  17.327  0.3059 -0.2836 -0.1165
 1998TIP3    H127409   1.135   4.464  17.416 -0.3548 -1.1723  0.2314
 1998TIP3    H227410   1.217   4.380  17.321  0.0692 -0.7032  0.1736
 1999TIP3   OH227411   1.004   0.647   5.529 -0.0277  0.4838 -0.3250
 1999TIP3    H127412   0.923   0.698   5.528 -1.3372 -1.5244 -0.1455
 1999TIP3    H227413   1.040   0.659   5.441 -1.9149 -0.6746 -1.3201
 2000TIP3   OH227414   5.393   2.119   4.103 -0.0740  0.4872 -0.2829
 2000TIP3    H127415   5.373   2.053   4.169 -2.9385  1.1722 -0.3115
 2000TIP3    H227416   5.418   2.069   4.025  1.1992 -0.3901  0.6515
 2001TIP3   OH227417   4.410   5.043  14.923 -0.5422  0.1636  0.3625
 2001TIP3    H127418   4.372   5.111  14.978 -0.0262 -0.3765  1.4064
 2001TIP3    H227419   4.389   5.070  14.834  0.3511  2.1179  0.6981
 2002TIP3   OH227420   6.503   1.919   0.064 -0.3075  0.0865  0.5088
 2002TIP3    H127421   6.508   1.997   0.009 -0.8927  0.6256  1.2074
 2002TIP3    H227422   6.516   1.952   0.153  0.7090 -0.7849  0.7003
 2003TIP3   OH227423   0.116   6.574  10.966  0.0461  0.4943 -0.2026
 2003TIP3    H127424   0.099   6.599  10.875 -0.2941 -0.6930 -0.4788
 2003TIP3    H227425   0.113   6.479  10.966  3.0490  0.2906  0.4562
 2004TIP3   OH227426   5.780   4.324  12.187 -0.5401  0.9357  0.4146
 2004TIP3    H127427   5.814   4.379  12.116  3.2767  1.0513  2.0454
 2004TIP3    H227428   5.752   4.386  12.254  0.6565  0.9353  0.9446
 2005TIP3   OH227429   6.340   6.780   3.654  0.2961 -0.0455  0.2250
 2005TIP3    H127430   6.263   6.766   3.598 -0.0779 -1.5318  1.0554
 2005TIP3    H227431   6.322   6.727   3.732  0.9661  1.7190  1.6157
 2006TIP3   OH227432   0.059   2.275   6.255 -0.0872  0.0963  0.3483
 2006TIP3    H127433   0.091   2.317   6.335  1.8417 -0.9856  0.1816
 2006TIP3    H227434   0.076   2.182   6.267  0.4581 -0.0696 -1.4002
 2007TIP3   OH227435   3.608   6.120   0.697 -0.0424 -0.4653  0.5475
 2007TIP3    H127436   3.631   6.195   0.642 -3.0232  0.4656  0.3398
 2007TIP3    H227437   3.571   6.160   0.776 -1.2839 -1.6698  0.6139
 2008TIP3   OH227438   3.596   4.070   1.646  0.3371 -0.4088 -0.1010
 2008TIP3    H127439   3.586   3.975   1.651  1.8631 -0.7918 -2.3341
 2008TIP3    H227440   3.571   4.102   1.732  0.3478 -2.8990  0.9144
 2009TIP3   OH227441   0.283   5.167  14.650 -0.0591  0.3737 -0.6536
 2009TIP3    H127442   0.204   5.155  14.703  0.3803 -2.8347 -0.5408
 2009TIP3    H227443   0.252   5.208  14.569 -1.4341  1.2646  0.2891
 2010TIP3   OH227444   5.289   0.563   6.282 -0.5071 -0.0884  0.7813
 2010TIP3    H127445   5.211   0.618   6.290 -0.5380 -0.0132 -0.0205
 2010TIP3    H227446   5.346   0.611   6.222 -0.7567 -1.1730 -0.3629
 2011TIP3   OH227447   3.143   5.113   2.193 -0.4157  0.1646  0.6328
 2011TIP3    H127448   3.080   5.047   2.165 -0.4021  0.6204 -0.5463
 2011TIP3    H227449   3.181   5.146   2.111  1.2347  0.0221  1.2946
 2012TIP3   OH227450   5.602   4.202  14.790 -0.5309  0.1859  0.3527
 2012TIP3    H127451   5.554   4.121  14.809 -0.0874  0.2085  1.6926
 2012TIP3    H227452   5.669   4.207  14.859  1.1265  0.3854 -1.1952
 2013TIP3   OH227453   5.783   1.879   2.764 -0.1920 -0.7792 -0.1965
 2013TIP3    H127454   5.852   1.838   2.817 -0.5233 -0.7832  0.2404
 2013TIP3    H227455   5.715   1.903   2.828 -0.6130 -0.8151 -0.6259
 2014TIP3   OH227456   5.708   4.451   4.198 -0.5931 -0.2663 -0.0414
 2014TIP3    H127457   5.773   4.503   4.245 -1.3613  0.7566 -0.0843
 2014TIP3    H227458   5.624   4.483   4.229 -1.1216  0.0071 -1.6297
 2015TIP3   OH227459   3.377   3.947   3.555  0.3458  0.2795 -0.2398
 2015TIP3    H127460   3.413   3.979   3.638  0.6201 -1.3248  0.3078
 2015TIP3    H227461   3.443   3.886   3.523 -0.4411 -0.2689 -0.8584
 2016TIP3   OH227462   0.940   4.305  17.197 -0.6320  0.2061  0.1855
 2016TIP3    H127463   0.876   4.376  17.197  0.2874  1.1577 -2.5099
 2016TIP3    H227464   1.011   4.337  17.253 -0.5411  1.1239 -0.4299
 2017TIP3   OH227465   3.606   3.514   2.179  0.2185 -0.0272  0.5347
 2017TIP3    H127466   3.701   3.511   2.163  0.1173  0.7222 -0.2668
 2017TIP3    H227467   3.589   3.604   2.207 -0.3501  0.0235  0.0383
 2018TIP3   OH227468   0.911   1.948  15.404  0.1295  0.0364  0.1427
 2018TIP3    H127469   0.870   1.972  15.321 -1.6940 -0.0909  0.9642
 2018TIP3    H227470   0.921   1.853  15.400  2.0209  0.2160 -0.7459
 2019TIP3   OH227471   2.183   3.483   3.546 -0.6632 -0.1421 -0.6143
 2019TIP3    H127472   2.261   3.535   3.524 -0.2758 -1.3382 -2.2815
 2019TIP3    H227473   2.110   3.544   3.538  0.0812  1.1668  1.5771
 2020TIP3   OH227474   1.815   1.828   0.795  0.1519  0.2875  0.1188
 2020TIP3    H127475   1.858   1.913   0.807 -1.5853  1.1825  0.2907
 2020TIP3    H227476   1.827   1.783   0.878 -0.2982  1.0298  0.5923
 2021TIP3   OH227477   3.151   2.149   2.020  0.2414 -0.2221  0.0244
 2021TIP3    H127478   3.180   2.096   1.946 -0.5667  0.6998 -0.9756
 2021TIP3    H227479   3.086   2.209   1.984 -0.2152  0.2222  1.4915
 2022TIP3   OH227480   2.756   2.779  14.578 -0.0396 -0.2572 -0.4253
 2022TIP3    H127481   2.786   2.833  14.504 -0.3503 -1.8806 -1.8069
 2022TIP3    H227482   2.680   2.733  14.544 -1.9021  0.9424  1.8100
 2023TIP3   OH227483   1.296   4.620   2.677  0.3383  0.0318 -0.1536
 2023TIP3    H127484   1.228   4.556   2.699 -0.4336  0.6176 -0.7643
 2023TIP3    H227485   1.327   4.593   2.591  0.1599  0.3508 -0.3202
 2024TIP3   OH227486   1.464   3.314   1.606  0.5525  0.1363 -0.0926
 2024TIP3    H127487   1.422   3.393   1.571 -0.4752 -0.5117 -0.3737
 2024TIP3    H227488   1.414   3.294   1.686  1.2388  0.1429  0.3471
 2025TIP3   OH227489   0.310   1.925  11.053 -0.2476 -0.2078  0.2630
 2025TIP3    H127490   0.396   1.964  11.039 -0.4276 -0.0039 -0.3431
 2025TIP3    H227491   0.252   1.973  10.993 -0.5272 -1.2090 -0.3096
 2026TIP3   OH227492   1.049   2.375  14.147 -0.3875  0.1510 -0.1719
 2026TIP3    H127493   1.079   2.420  14.226 -0.7928 -1.2388  0.8175
 2026TIP3    H227494   0.980   2.316  14.179 -1.2428  0.2630 -1.7280
 2027TIP3   OH227495   6.143   1.984   6.164  0.0155  0.4080  0.0110
 2027TIP3    H127496   6.121   2.069   6.203 -3.1940  0.1647 -0.9637
 2027TIP3    H227497   6.081   1.922   6.203 -0.6328 -0.5839 -2.3562
 2028TIP3   OH227498   6.450   5.807  13.072 -0.1195  0.2192 -0.4905
 2028TIP3    H127499   6.364   5.842  13.050 -0.1322 -0.2081 -1.1530
 2028TIP3    H227500   6.445   5.714  13.048 -0.0618 -0.2366  1.1366
 2029TIP3   OH227501   0.486   4.700   1.183  0.0173  0.3218 -0.0287
 2029TIP3    H127502   0.561   4.759   1.178 -0.1125  0.4081 -1.5124
 2029TIP3    H227503   0.505   4.644   1.258  1.0976  0.9546  0.2046
 2030TIP3   OH227504   3.098   5.999   5.611  0.2476 -0.3857 -0.0212
 2030TIP3    H127505   3.038   6.058   5.657  0.9203 -0.9779  1.7216
 2030TIP3    H227506   3.176   5.996   5.667  0.3069 -2.7464 -0.1262
 2031TIP3   OH227507   1.783   4.839  12.559 -0.3286 -0.0155  0.2282
 2031TIP3    H127508   1.866   4.797  12.583 -0.9671 -0.8230  1.1175
 2031TIP3    H227509   1.716   4.786  12.602 -1.3978 -0.0591 -1.3857
 2032TIP3   OH227510   6.109   1.007  14.121  0.3000  0.1677 -0.9133
 2032TIP3    H127511   6.016   1.027  14.115  0.0520 -0.2187  0.9252
 2032TIP3    H227512   6.122   0.932  14.063 -0.5978  0.0181 -0.9271
 2033TIP3   OH227513   0.490   2.181  15.657 -0.4079  0.0768 -0.3105
 2033TIP3    H127514   0.532   2.114  15.603  1.0817  1.9098 -1.5947
 2033TIP3    H227515   0.406   2.197  15.614 -0.7560 -0.9076 -0.0155
 2034TIP3   OH227516   5.217   5.793   5.359 -0.0203  0.6184 -0.3031
 2034TIP3    H127517   5.142   5.832   5.315 -0.4444  0.4781  0.2918
 2034TIP3    H227518   5.292   5.821   5.306 -0.4607  0.9387 -0.7761
 2035TIP3   OH227519   2.181   6.154  10.968  0.2336 -0.8149  0.3025
 2035TIP3    H127520   2.156   6.094  11.039  2.2488 -0.2665  1.5800
 2035TIP3    H227521   2.167   6.104  10.888  0.1782 -2.3607  1.2317
 2036TIP3   OH227522   1.349   0.265   4.451 -0.0083 -0.0850 -0.2236
 2036TIP3    H127523   1.408   0.336   4.474 -0.8524  0.7301 -0.5359
 2036TIP3    H227524   1.398   0.213   4.387  0.0446  1.0893 -1.1574
 2037TIP3   OH227525   1.019   5.696   5.595  0.3105  0.3783  0.0425
 2037TIP3    H127526   0.987   5.628   5.536  0.0642 -0.3097  0.9600
 2037TIP3    H227527   1.109   5.711   5.567  0.7910 -1.2222  0.5928
 2038TIP3   OH227528   6.647   4.234  16.697  0.1673 -0.6747  0.0642
 2038TIP3    H127529   6.670   4.310  16.750 -1.8798  0.9018 -1.1088
 2038TIP3    H227530   6.582   4.187  16.749  0.3661 -0.8180  0.1859
 2039TIP3   OH227531   1.599   0.386   2.133  0.1800  0.4625 -0.8257
 2039TIP3    H127532   1.597   0.292   2.152 -0.2176  0.9391  1.8892
 2039TIP3    H227533   1.559   0.394   2.047 -0.8391 -1.7575 -0.6211
 2040TIP3   OH227534   1.734   1.053  14.089 -0.2577  0.2944  0.2644
 2040TIP3    H127535   1.712   1.021  14.176  1.0998  1.2440  0.9953
 2040TIP3    H227536   1.726   0.976  14.033 -0.2096 -0.5642  1.3909
 2041TIP3   OH227537   1.913   6.750   3.412 -0.4667 -0.0657 -0.3984
 2041TIP3    H127538   1.822   6.721   3.424 -0.7916  0.5643 -1.2776
 2041TIP3    H227539   1.940   6.710   3.330  0.7878 -1.9942  0.8707
 2042TIP3   OH227540   2.820   3.250   5.556 -0.4466  0.4232  0.1662
 2042TIP3    H127541   2.824   3.205   5.641 -0.3982  1.6459  0.8361
 2042TIP3    H227542   2.865   3.333   5.571  0.2191  0.3502 -1.2753
 2043TIP3   OH227543   2.451   4.855  11.313 -0.4519 -0.5617 -0.6512
 2043TIP3    H127544   2.469   4.936  11.264 -2.3737 -0.1099 -0.6874
 2043TIP3    H227545   2.527   4.845  11.370 -0.1321  1.2501 -0.6704
 2044TIP3   OH227546   4.940   3.046   3.961  0.3096  0.2863 -0.1032
 2044TIP3    H127547   4.954   3.132   3.922  0.1432 -0.5731 -2.2000
 2044TIP3    H227548   4.868   3.009   3.911 -0.0353 -0.8445  1.1803
 2045TIP3   OH227549   4.762   1.461   4.466 -0.0676 -0.3628 -0.1157
 2045TIP3    H127550   4.761   1.371   4.435 -1.0958 -0.8418  1.2199
 2045TIP3    H227551   4.855   1.484   4.472  0.2130 -1.4852 -0.0434
 2046TIP3   OH227552   0.254   2.241   2.305 -0.1004 -0.2359  0.5935
 2046TIP3    H127553   0.237   2.320   2.356 -0.7710  0.1555 -0.2201
 2046TIP3    H227554   0.180   2.183   2.324  0.6022 -0.8713  1.5275
 2047TIP3   OH227555   3.352   3.305   5.799 -0.1691  0.1872  0.0794
 2047TIP3    H127556   3.268   3.270   5.769  0.5347 -1.6680  0.1984
 2047TIP3    H227557   3.342   3.313   5.894 -0.6278  1.1859 -0.0401
 2048TIP3   OH227558   3.193   0.198   1.146 -0.3379  0.3216  0.2906
 2048TIP3    H127559   3.281   0.163   1.152 -1.4452 -2.5987  1.3645
 2048TIP3    H227560   3.192   0.246   1.063  1.9795 -0.3533 -0.1908
 2049TIP3   OH227561   2.992   5.933   4.448 -0.1349 -0.2012  0.5417
 2049TIP3    H127562   3.073   5.882   4.453 -0.0833 -0.2971 -0.9041
 2049TIP3    H227563   2.961   5.937   4.539  2.5479  1.5882  1.4909
 2050TIP3   OH227564   1.308   3.192   3.703  0.0595  0.4446  0.1354
 2050TIP3    H127565   1.330   3.285   3.707  0.3639  0.3272  2.4072
 2050TIP3    H227566   1.212   3.190   3.710  0.1495  0.5593  1.6479
 2051TIP3   OH227567   6.685   1.056   0.936 -0.3515 -0.2697 -0.1839
 2051TIP3    H127568   6.669   0.978   0.883  1.0670 -0.0624 -0.9947
 2051TIP3    H227569   6.777   1.049   0.962  0.4170  2.0550 -1.9177
 2052TIP3   OH227570   3.695   2.264   5.288  0.4850  0.1685 -0.0976
 2052TIP3    H127571   3.696   2.228   5.377  1.4251 -1.4737 -0.7423
 2052TIP3    H227572   3.628   2.213   5.242 -1.0373  1.9733 -0.0064
 2053TIP3   OH227573   5.593   2.509   6.775  0.1558  0.1615  0.1984
 2053TIP3    H127574   5.629   2.422   6.793 -1.3635 -0.8932 -1.5365
 2053TIP3    H227575   5.499   2.499   6.784 -0.0550  1.6303 -0.0680
 2054TIP3   OH227576   4.308   5.005   1.895  0.1986  0.1783 -0.4475
 2054TIP3    H127577   4.235   4.952   1.862 -0.5229  1.4490 -0.9913
 2054TIP3    H227578   4.385   4.950   1.882 -0.4171 -0.4501 -1.7035
 2055TIP3   OH227579   4.737   3.886  12.759  0.0245  0.4370  0.1671
 2055TIP3    H127580   4.705   3.904  12.670  1.9233  2.1845 -0.2459
 2055TIP3    H227581   4.658   3.868  12.810 -1.4164  2.3681 -1.2388
 2056TIP3   OH227582   1.581   5.999   6.490  0.2082 -0.3969 -0.0364
 2056TIP3    H127583   1.588   5.904   6.487 -0.0998 -0.3876 -1.2421
 2056TIP3    H227584   1.504   6.016   6.544  0.7545 -0.8008  0.8960
 2057TIP3   OH227585   5.887   4.278  15.205  0.3295  1.1121  0.3135
 2057TIP3    H127586   5.958   4.303  15.146  0.4270 -0.5406 -0.3187
 2057TIP3    H227587   5.932   4.243  15.282  0.2275  0.2822  0.0093
 2058TIP3   OH227588   0.772   1.662   4.377  0.4650  0.4791 -0.1361
 2058TIP3    H127589   0.743   1.668   4.468  0.2298 -0.1339 -0.1650
 2058TIP3    H227590   0.694   1.633   4.329  1.2229 -1.7867 -0.1333
 2059TIP3   OH227591   1.956   6.540   2.040  0.4069  0.0511  0.3497
 2059TIP3    H127592   2.003   6.610   1.993 -0.1731  0.6019  0.5710
 2059TIP3    H227593   2.023   6.474   2.057  0.8715  0.3457 -0.2707
 2060TIP3   OH227594   6.456   3.829   0.178 -0.0690 -0.1754  0.2357
 2060TIP3    H127595   6.538   3.784   0.198 -0.5172 -1.7146 -1.1190
 2060TIP3    H227596   6.390   3.783   0.230 -0.4122 -0.5715 -0.5337
 2061TIP3   OH227597   1.340   0.700   0.951 -0.1376 -0.2692  0.8923
 2061TIP3    H127598   1.382   0.667   0.871 -0.7361  0.0814  0.4262
 2061TIP3    H227599   1.381   0.785   0.967 -0.8584  0.2092  0.2684
 2062TIP3   OH227600   5.328   1.280  15.983 -0.4292  0.3342 -0.1821
 2062TIP3    H127601   5.263   1.338  15.945 -0.4644  0.4761  0.0940
 2062TIP3    H227602   5.384   1.337  16.035  1.2342  0.5883 -2.0971
 2063TIP3   OH227603   1.860   4.282  13.651  0.5946  0.6435  0.4744
 2063TIP3    H127604   1.849   4.312  13.742  2.2070  0.4119  0.7839
 2063TIP3    H227605   1.932   4.335  13.617  0.5668  0.1404 -0.4002
 2064TIP3   OH227606   4.085   5.930   3.136  0.1805  0.0444  0.0410
 2064TIP3    H127607   4.062   6.000   3.074 -0.6548 -0.3540 -0.1171
 2064TIP3    H227608   4.154   5.880   3.092  1.4655  1.3020  0.5460
 2065TIP3   OH227609   1.848   2.870  16.721 -0.2012 -0.0110 -0.5680
 2065TIP3    H127610   1.837   2.806  16.650  0.0168 -0.6521 -0.0284
 2065TIP3    H227611   1.926   2.919  16.696 -2.0244  2.1669 -2.5726
 2066TIP3   OH227612   4.546   5.088  11.295  0.1983 -0.3985 -0.0543
 2066TIP3    H127613   4.453   5.066  11.299  0.5655 -2.2844 -0.5336
 2066TIP3    H227614   4.549   5.178  11.263 -1.4208 -1.4034 -3.4536
 2067TIP3   OH227615   2.330   2.792  13.314  0.3148  0.1871  0.4534
 2067TIP3    H127616   2.292   2.736  13.247 -0.7019  2.5386 -1.0689
 2067TIP3    H227617   2.317   2.744  13.396 -1.7377 -1.1778 -0.5935
 2068TIP3   OH227618   1.022   2.836   1.882  0.1062 -0.0418 -0.1848
 2068TIP3    H127619   1.015   2.928   1.907 -2.2465 -0.1618 -0.1505
 2068TIP3    H227620   1.076   2.796   1.950 -0.2689  0.9992  0.7449
 2069TIP3   OH227621   5.321   0.133  11.460  0.5666  0.6569 -0.6542
 2069TIP3    H127622   5.234   0.171  11.449  0.9989  1.3234 -2.1180
 2069TIP3    H227623   5.359   0.136  11.372  1.4894 -1.0624 -0.3557
 2070TIP3   OH227624   4.836   0.160  13.993 -0.3752 -0.1258  0.0310
 2070TIP3    H127625   4.887   0.081  14.010  0.3546  0.6308  1.5878
 2070TIP3    H227626   4.895   0.232  14.016 -1.9328  0.8034  1.3055
 2071TIP3   OH227627   5.658   1.051   0.817 -0.1294  0.3076 -0.3400
 2071TIP3    H127628   5.695   1.068   0.903 -0.1371 -1.0315 -0.0421
 2071TIP3    H227629   5.638   0.957   0.818  2.1826 -0.3235 -2.6547
 2072TIP3   OH227630   0.863   5.191  12.269  0.0156 -0.0767 -0.2439
 2072TIP3    H127631   0.920   5.253  12.224 -1.5323  1.7162  0.1129
 2072TIP3    H227632   0.868   5.217  12.361  2.0887 -2.8297  0.5627
 2073TIP3   OH227633   4.549   3.406   5.923  0.5045  0.7747 -1.0077
 2073TIP3    H127634   4.599   3.324   5.933 -2.8258 -1.1852  1.9330
 2073TIP3    H227635   4.615   3.472   5.901  3.9899 -1.9393  0.3404
 2074TIP3   OH227636   2.618   2.859  11.911 -0.3845 -0.1331 -0.1145
 2074TIP3    H127637   2.694   2.801  11.899 -0.1509  0.4425 -1.5330
 2074TIP3    H227638   2.605   2.900  11.826 -2.2715 -0.1759  0.1114
 2075TIP3   OH227639   6.583   2.085  14.196 -0.4330 -0.2361 -0.7194
 2075TIP3    H127640   6.675   2.084  14.173 -0.7704 -0.8593 -2.1470
 2075TIP3    H227641   6.582   2.079  14.291  0.9764 -1.6334 -0.7563
 2076TIP3   OH227642   0.298   3.685   6.317 -0.3630 -0.0353  0.0987
 2076TIP3    H127643   0.209   3.719   6.314 -0.2366  0.3057  0.2013
 2076TIP3    H227644   0.323   3.689   6.409  0.0572  0.6552 -0.0338
 2077TIP3   OH227645   4.347   1.387   2.202  0.7542  0.0170 -0.0017
 2077TIP3    H127646   4.359   1.400   2.108 -0.3701 -1.4237 -0.3767
 2077TIP3    H227647   4.272   1.328   2.209 -0.3501  1.5184  1.8671
 2078TIP3   OH227648   5.535   0.363   4.969  0.1581  0.0589 -0.0265
 2078TIP3    H127649   5.457   0.417   4.956  0.3303  0.7139  1.4449
 2078TIP3    H227650   5.590   0.383   4.893 -0.6859  0.3403 -0.5768
 2079TIP3   OH227651   4.706   1.375   0.932  0.2253  0.3710 -0.2004
 2079TIP3    H127652   4.796   1.342   0.937  0.2683  0.1972 -1.6989
 2079TIP3    H227653   4.665   1.323   0.863 -0.5295  1.5423 -0.6707
 2080TIP3   OH227654   1.452   5.634  16.240  0.3114 -0.6837 -0.3290
 2080TIP3    H127655   1.514   5.700  16.268  0.8522 -0.7628 -1.2846
 2080TIP3    H227656   1.454   5.638  16.144 -1.6444 -0.2350 -0.3968
 2081TIP3   OH227657   5.545   2.898   5.026  0.3067 -0.0385  0.3348
 2081TIP3    H127658   5.499   2.935   5.101 -0.2528  0.7862 -0.3839
 2081TIP3    H227659   5.485   2.833   4.990  1.2986 -1.7296  1.6074
 2082TIP3   OH227660   2.328   6.248  12.198 -0.1593  0.1924  0.3102
 2082TIP3    H127661   2.282   6.218  12.277  0.0706  0.0362  0.3867
 2082TIP3    H227662   2.393   6.180  12.181  1.4722  1.3783  1.4239
 2083TIP3   OH227663   0.216   4.913   0.650  0.6007  0.2421  0.4741
 2083TIP3    H127664   0.171   4.878   0.573  2.7144 -0.6622 -0.4283
 2083TIP3    H227665   0.273   4.841   0.679  2.2392  1.6572  0.8920
 2084TIP3   OH227666   5.156   1.744  16.672  0.1907 -0.0294  0.1688
 2084TIP3    H127667   5.237   1.719  16.716  0.6639  0.1020 -0.6275
 2084TIP3    H227668   5.163   1.839  16.662 -1.3670  0.4615  2.7210
 2085TIP3   OH227669   3.855   1.387  12.509  0.4658 -0.6059  0.6421
 2085TIP3    H127670   3.800   1.426  12.441  0.1627 -0.6892  0.8377
 2085TIP3    H227671   3.836   1.438  12.587 -0.3289 -1.4652  1.0276
 2086TIP3   OH227672   6.623   0.401  11.949 -0.0234  0.1530 -0.0239
 2086TIP3    H127673   6.678   0.370  12.021  2.4477 -0.2343 -1.9504
 2086TIP3    H227674   6.646   0.494  11.939 -1.7314  0.7167  0.7866
 2087TIP3   OH227675   0.680   0.558   2.803 -0.0460 -0.3424 -0.6027
 2087TIP3    H127676   0.659   0.648   2.829 -3.9762 -1.5272  1.0630
 2087TIP3    H227677   0.669   0.507   2.883  1.3139 -2.4433 -1.6775
 2088TIP3   OH227678   5.226   0.760   2.032  0.1580 -0.4973 -0.4695
 2088TIP3    H127679   5.302   0.755   1.974  0.9964 -2.3554  0.6873
 2088TIP3    H227680   5.195   0.670   2.039 -1.8697  0.1458 -0.4893
 2089TIP3   OH227681   5.163   1.480  15.919 -0.4364 -0.1184  0.2268
 2089TIP3    H127682   5.158   1.512  15.829 -1.1268 -1.2608 -0.1505
 2089TIP3    H227683   5.171   1.560  15.972 -0.8799  0.6146 -0.7792
 2090TIP3   OH227684   1.666   4.453   1.284  0.0413 -0.5583  0.3588
 2090TIP3    H127685   1.715   4.428   1.362 -0.1092 -0.3712  0.5111
 2090TIP3    H227686   1.716   4.415   1.212  0.5094 -0.2169  0.5022
 2091TIP3   OH227687   1.201   3.999  15.578 -0.3722 -0.3182  0.0836
 2091TIP3    H127688   1.174   3.909  15.563  0.1365 -0.5723  0.6721
 2091TIP3    H227689   1.246   3.997  15.663 -0.6642  0.5491  0.2667
 2092TIP3   OH227690   6.671   4.604   2.520  0.0174  0.0316 -0.3924
 2092TIP3    H127691   6.757   4.612   2.561  0.0315  2.8643 -0.8016
 2092TIP3    H227692   6.651   4.511   2.525  1.6403 -0.2819  2.6699
 2093TIP3   OH227693   6.678   1.691   3.597 -0.4352  0.1937  0.2965
 2093TIP3    H127694   6.637   1.759   3.650 -0.9695 -1.6638  2.4217
 2093TIP3    H227695   6.606   1.638   3.565  0.0976 -1.1789  1.3017
 2094TIP3   OH227696   2.907   4.417   4.978  0.1113  0.0826  0.2164
 2094TIP3    H127697   2.974   4.463   4.927  1.6605 -0.5827  1.5923
 2094TIP3    H227698   2.854   4.487   5.016 -1.1788  0.6029 -2.3287
 2095TIP3   OH227699   4.969   4.832  15.210 -0.0427 -0.6014 -0.2226
 2095TIP3    H127700   4.923   4.748  15.216  1.0763 -1.4180 -1.9312
 2095TIP3    H227701   4.904   4.892  15.174 -1.3568 -0.2369  2.5652
 2096TIP3   OH227702   3.538   3.447   4.573  0.1729  0.0252  0.5723
 2096TIP3    H127703   3.558   3.382   4.641 -2.7623 -0.5628  1.0085
 2096TIP3    H227704   3.555   3.531   4.615  1.5072 -0.3712  0.8879
 2097TIP3   OH227705   0.157   0.701  15.457  0.7392 -0.0060 -0.1694
 2097TIP3    H127706   0.112   0.683  15.539  2.5180  0.7629  1.0364
 2097TIP3    H227707   0.219   0.770  15.478  2.9936 -1.4622 -1.5168
 2098TIP3   OH227708   6.125   1.376   2.542 -0.2131 -0.6949 -0.0577
 2098TIP3    H127709   6.171   1.412   2.466 -0.7504 -1.5955 -0.8299
 2098TIP3    H227710   6.193   1.368   2.609  0.3510 -0.2434 -0.5661
 2099TIP3   OH227711   2.446   6.592  13.745  0.2767 -0.1218  0.1365
 2099TIP3    H127712   2.423   6.521  13.804 -0.2796 -0.8596 -0.9233
 2099TIP3    H227713   2.523   6.633  13.784  1.3286 -2.0630  0.1878
 2100TIP3   OH227714   4.213   5.698   5.907 -0.3859  0.4784 -0.4656
 2100TIP3    H127715   4.211   5.615   5.859 -1.9764  0.4643 -0.4394
 2100TIP3    H227716   4.291   5.693   5.960 -0.4177 -0.9902 -0.5135
 2101TIP3   OH227717   2.830   3.833  12.458  0.2722 -0.9684 -0.2012
 2101TIP3    H127718   2.823   3.827  12.363  0.5601 -0.1165 -0.2806
 2101TIP3    H227719   2.813   3.743  12.489 -1.5514 -0.9204 -0.9382
 2102TIP3   OH227720   4.201   2.625  11.294  0.1605 -0.1708  0.5961
 2102TIP3    H127721   4.133   2.587  11.238  2.2409 -2.3456 -0.6557
 2102TIP3    H227722   4.283   2.600  11.251  1.7873  1.6407  2.4654
 2103TIP3   OH227723   2.403   6.594   3.716  0.3331  0.0594  0.0652
 2103TIP3    H127724   2.328   6.644   3.685 -1.0150 -0.7512  1.8629
 2103TIP3    H227725   2.476   6.656   3.712  0.0155  0.4209 -3.2301
 2104TIP3   OH227726   2.374   0.173  12.871 -0.3004 -0.0475 -0.4207
 2104TIP3    H127727   2.362   0.223  12.951  1.0133  0.3934 -0.4655
 2104TIP3    H227728   2.379   0.081  12.899 -0.6197  0.0385 -0.0920
 2105TIP3   OH227729   1.518   2.944  14.201 -0.5146 -0.3242 -0.1183
 2105TIP3    H127730   1.430   2.951  14.238  0.3000 -0.2165  1.9784
 2105TIP3    H227731   1.527   3.020  14.144 -0.9666  1.0385  1.5489
 2106TIP3   OH227732   0.012   1.707  12.984  0.8051  0.4807 -0.1396
 2106TIP3    H127733   0.092   1.691  13.034  0.2128 -0.1485  0.6449
 2106TIP3    H227734   0.009   1.802  12.972  1.4980  0.5385  0.1062
 2107TIP3   OH227735   1.037   4.545  12.193  0.0851  0.0898 -0.3160
 2107TIP3    H127736   0.983   4.618  12.221  0.8674  0.8334 -0.6976
 2107TIP3    H227737   1.046   4.556  12.098  1.9874  0.7584 -0.0925
 2108TIP3   OH227738   1.407   6.661  15.873 -0.2348 -0.1660 -0.2599
 2108TIP3    H127739   1.328   6.646  15.925  1.1426 -1.0172  1.7198
 2108TIP3    H227740   1.461   6.719  15.926  1.0413 -0.6675 -0.9473
 2109TIP3   OH227741   1.925   0.606  17.262  0.0926 -0.3535  0.1088
 2109TIP3    H127742   1.883   0.661  17.196 -2.3812 -0.5723  1.3721
 2109TIP3    H227743   1.867   0.531  17.271  0.8574 -0.7879  1.8333
 2110TIP3   OH227744   2.922   3.005   1.968  0.0825 -0.2169 -0.1255
 2110TIP3    H127745   2.898   3.036   1.881 -0.6657  0.4371  0.3013
 2110TIP3    H227746   2.960   2.918   1.953  0.4631  0.1174 -1.1497
 2111TIP3   OH227747   5.948   5.602   0.398 -0.5940  0.4464 -0.3028
 2111TIP3    H127748   5.902   5.659   0.459  0.8352  2.8048 -1.3066
 2111TIP3    H227749   6.010   5.553   0.453 -2.4571 -0.9100  0.6915
 2112TIP3   OH227750   3.522   6.456  15.764 -0.3028 -0.3382  0.1365
 2112TIP3    H127751   3.447   6.424  15.813 -0.7574  1.5650  0.7612
 2112TIP3    H227752   3.573   6.506  15.827  0.1432  0.5035 -0.8553
 2113TIP3   OH227753   3.762   3.701   5.283  0.1036  0.4262  0.0785
 2113TIP3    H127754   3.793   3.751   5.358  1.4812 -0.6667  0.2909
 2113TIP3    H227755   3.842   3.662   5.246 -0.9028 -1.6814 -0.0091
 2114TIP3   OH227756   2.228   6.739  16.433 -0.0051 -0.2963 -0.7534
 2114TIP3    H127757   2.255   6.824  16.398 -1.4080  0.2650 -0.5265
 2114TIP3    H227758   2.266   6.736  16.521 -0.6274  0.4689 -0.4417
 2115TIP3   OH227759   0.776   1.072   6.230  0.2247 -0.1132 -0.4761
 2115TIP3    H127760   0.752   1.165   6.232 -1.5873 -0.5368 -1.0548
 2115TIP3    H227761   0.709   1.029   6.283  0.2102 -1.2645 -1.3983
 2116TIP3   OH227762   5.129   5.899  11.816  0.2849 -0.2229 -0.5862
 2116TIP3    H127763   5.150   5.969  11.877 -0.4091  0.6107 -1.2868
 2116TIP3    H227764   5.085   5.942  11.743 -3.3823 -1.7291  0.4974
 2117TIP3   OH227765   1.474   3.772   4.517 -0.7648 -0.3501 -0.4195
 2117TIP3    H127766   1.469   3.677   4.525  0.2832 -0.3284  0.9495
 2117TIP3    H227767   1.425   3.804   4.593 -1.0403  0.2179 -0.8285
 2118TIP3   OH227768   1.500   0.091   3.273  0.4602  0.0935  0.1623
 2118TIP3    H127769   1.422   0.040   3.292  0.0997 -0.1173 -1.7138
 2118TIP3    H227770   1.509   0.087   3.178 -1.2372  5.8696 -0.6175
 2119TIP3   OH227771   2.442   3.580  14.430 -0.0594  0.1745 -0.1959
 2119TIP3    H127772   2.436   3.486  14.413  2.4523 -0.2534  0.8591
 2119TIP3    H227773   2.517   3.610  14.378 -1.8044  2.0135 -1.8409
 2120TIP3   OH227774   4.892   1.884   1.785  0.5501  0.6072 -0.4821
 2120TIP3    H127775   4.831   1.915   1.852  0.9629  2.2021 -0.8132
 2120TIP3    H227776   4.978   1.886   1.827  0.7666  1.2830 -0.9437
 2121TIP3   OH227777   1.420   0.926   5.244 -0.1039 -0.2136  0.2841
 2121TIP3    H127778   1.351   0.871   5.281  1.4706 -2.3585  0.2780
 2121TIP3    H227779   1.390   0.946   5.155 -1.1241 -0.3207  0.6035
 2122TIP3   OH227780   4.743   4.581  13.445 -0.6495  0.2754  0.1582
 2122TIP3    H127781   4.664   4.617  13.405  0.7055  3.1282 -0.2056
 2122TIP3    H227782   4.813   4.601  13.382  0.5060 -1.5140  0.7909
 2123TIP3   OH227783   0.573   3.318   1.116 -0.5298 -0.1895 -0.2932
 2123TIP3    H127784   0.540   3.377   1.048 -1.9475 -1.0151 -0.3648
 2123TIP3    H227785   0.574   3.372   1.195 -0.4153  0.3295 -0.6392
 2124TIP3   OH227786   2.344   5.182   2.855 -0.6555  0.1079 -0.4212
 2124TIP3    H127787   2.360   5.173   2.949 -2.5012  1.3661  0.0720
 2124TIP3    H227788   2.331   5.093   2.824  1.1681 -0.4410  0.2349
 2125TIP3   OH227789   4.603   5.698   3.933 -0.2974  0.5635  0.1408
 2125TIP3    H127790   4.652   5.753   3.994  0.4109 -1.2427  1.2722
 2125TIP3    H227791   4.598   5.750   3.853  0.4964  2.1819  1.0862
 2126TIP3   OH227792   2.166   3.941   0.121  0.7734 -0.0594  0.0127
 2126TIP3    H127793   2.125   3.859   0.149  0.7226  0.0321  0.2032
 2126TIP3    H227794   2.260   3.922   0.119  0.8515  0.1724  1.0434
 2127TIP3   OH227795   0.282   6.034   1.027 -0.2491  0.1617 -0.3810
 2127TIP3    H127796   0.231   5.996   1.099  2.7968  1.5356  2.7760
 2127TIP3    H227797   0.247   6.123   1.017  0.7178  0.7329  1.0332
 2128TIP3   OH227798   4.136   6.469   5.497 -0.1687  0.3490  0.1885
 2128TIP3    H127799   4.085   6.523   5.437 -0.0579  0.9661  0.6318
 2128TIP3    H227800   4.217   6.518   5.511  1.7996 -1.8053 -2.5376
 2129TIP3   OH227801   1.562   4.884   3.767  0.3997 -0.0726 -0.2675
 2129TIP3    H127802   1.492   4.939   3.802 -0.8456  0.0773 -2.8094
 2129TIP3    H227803   1.553   4.890   3.672  2.3412 -2.0271 -0.6638
 2130TIP3   OH227804   6.767   1.095  12.794 -0.6734  0.1101  0.3341
 2130TIP3    H127805   6.770   1.015  12.742  2.3253 -0.6727  1.5196
 2130TIP3    H227806   6.814   1.160  12.742 -1.3382  0.5642  0.2750
 2131TIP3   OH227807   1.216   1.840   0.400 -0.9598  0.0152  0.1324
 2131TIP3    H127808   1.256   1.926   0.410  2.3860 -1.2125 -1.2543
 2131TIP3    H227809   1.175   1.842   0.313 -0.6625  0.1441 -0.0058
 2132TIP3   OH227810   6.729   4.603  14.444 -0.6885 -0.1432 -0.6717
 2132TIP3    H127811   6.747   4.519  14.401  1.9614  0.1809 -0.4015
 2132TIP3    H227812   6.743   4.586  14.537 -2.8042  0.0083 -0.2908
 2133TIP3   OH227813   5.244   4.258   6.038  0.1160 -0.2621 -0.3447
 2133TIP3    H127814   5.193   4.209   6.102  0.6226  0.3917  0.5695
 2133TIP3    H227815   5.334   4.231   6.053  0.3734  0.7729  0.0164
 2134TIP3   OH227816   3.912   0.543   0.762 -0.1786  0.0985 -0.6265
 2134TIP3    H127817   3.933   0.533   0.855 -1.4276 -0.9730 -0.4213
 2134TIP3    H227818   3.899   0.453   0.731  1.5599  0.3388 -2.1892
 2135TIP3   OH227819   2.905   1.954   3.796  0.7200 -0.1592 -0.3146
 2135TIP3    H127820   2.822   1.988   3.830  0.8270  1.1395 -1.2720
 2135TIP3    H227821   2.925   2.011   3.722  1.9010 -1.1678 -0.7975
 2136TIP3   OH227822   5.776   2.888   4.875  0.1198  0.3943  0.6743
 2136TIP3    H127823   5.697   2.881   4.929 -1.8677  0.0850 -2.0544
 2136TIP3    H227824   5.806   2.798   4.865 -0.6638  0.2221 -0.2629
 2137TIP3   OH227825   6.121   0.122   3.346 -0.2040  0.0363 -0.0551
 2137TIP3    H127826   6.141   0.044   3.398  0.0415 -0.4483 -0.8680
 2137TIP3    H227827   6.152   0.101   3.258  0.9076  1.4973 -0.0427
 2138TIP3   OH227828   5.954   2.355  12.937 -0.2293  0.1229 -0.5272
 2138TIP3    H127829   5.902   2.435  12.951 -2.0894 -0.9627 -0.9355
 2138TIP3    H227830   5.963   2.316  13.024  0.7943  0.7998 -0.3057
 2139TIP3   OH227831   5.685   4.576   1.252  0.0059 -0.7750 -0.0012
 2139TIP3    H127832   5.687   4.509   1.321  0.2371  0.2723  1.0295
 2139TIP3    H227833   5.613   4.634   1.275  2.9123  2.3661  2.1314
 2140TIP3   OH227834   4.479   1.036  13.866  0.2712  0.2673 -0.3099
 2140TIP3    H127835   4.422   1.087  13.924  0.8292  0.0129  0.4736
 2140TIP3    H227836   4.419   1.001  13.799 -0.2058  1.4682 -0.5434
 2141TIP3   OH227837   6.016   1.768  15.303  0.6166 -0.6244 -0.2661
 2141TIP3    H127838   6.052   1.772  15.392  0.7174 -0.9847 -0.2876
 2141TIP3    H227839   5.938   1.823  15.306  0.9689 -0.1286 -0.1209
 2142TIP3   OH227840   3.732   6.022  16.129 -0.5211  0.2731  0.7534
 2142TIP3    H127841   3.686   5.967  16.192  1.3811 -0.2080  1.8038
 2142TIP3    H227842   3.805   6.060  16.178  1.1030 -0.2107 -1.1446
 2143TIP3   OH227843   6.648   4.005   2.999 -0.7639 -0.6639 -0.0468
 2143TIP3    H127844   6.574   3.964   3.043 -1.3655  0.3157 -0.1074
 2143TIP3    H227845   6.614   4.032   2.914  0.0180 -1.3158 -0.5879
 2144TIP3   OH227846   2.346   3.089  12.407 -0.1014 -0.0240  0.2483
 2144TIP3    H127847   2.413   3.154  12.389  0.5581 -1.0800 -1.4103
 2144TIP3    H227848   2.384   3.006  12.378 -1.2541 -1.0221  1.4392
 2145TIP3   OH227849   6.138   2.502   4.475  0.1696 -0.0358 -0.5376
 2145TIP3    H127850   6.231   2.508   4.452  0.2646 -0.0523 -0.1679
 2145TIP3    H227851   6.137   2.499   4.571 -0.1926 -0.4029 -0.5492
 2146TIP3   OH227852   2.425   0.351   2.647  0.3858 -0.3358  0.1761
 2146TIP3    H127853   2.356   0.395   2.598  0.3389 -0.0550  0.4903
 2146TIP3    H227854   2.456   0.282   2.588  2.4251  1.8816 -1.5200
 2147TIP3   OH227855   3.023   0.171   5.259  0.0839 -0.2019  0.1065
 2147TIP3    H127856   3.018   0.078   5.282  0.8024  0.0097  1.2051
 2147TIP3    H227857   3.040   0.171   5.165 -1.5195 -1.1393 -0.2186
 2148TIP3   OH227858   1.286   2.064  15.578  0.1712 -0.3207  0.4518
 2148TIP3    H127859   1.210   2.022  15.538  0.0839  0.6511 -0.4441
 2148TIP3    H227860   1.282   2.039  15.670 -0.7021 -1.0466  0.2220
 2149TIP3   OH227861   4.040   6.383  13.512  0.4168 -0.2600  0.3119
 2149TIP3    H127862   4.065   6.391  13.605  0.7223 -1.0415  0.3120
 2149TIP3    H227863   3.966   6.322  13.512 -0.3572  0.6620  0.1390
 2150TIP3   OH227864   0.661   4.876   2.487  0.0396  0.5663 -0.2447
 2150TIP3    H127865   0.599   4.877   2.560  0.3557 -2.3656  0.1777
 2150TIP3    H227866   0.733   4.822   2.517  0.6321  0.0593 -2.4017
 2151TIP3   OH227867   6.412   6.545   2.281 -0.2360 -0.1271  0.2698
 2151TIP3    H127868   6.432   6.557   2.374 -1.4519  0.1151  0.5134
 2151TIP3    H227869   6.489   6.578   2.236 -0.6167  2.1264  1.1373
 2152TIP3   OH227870   6.102   0.281   0.631 -0.0136 -0.2338  0.2002
 2152TIP3    H127871   6.124   0.250   0.543 -1.3213  0.2584 -0.3375
 2152TIP3    H227872   6.182   0.270   0.682  0.7560 -0.5714 -1.0449
 2153TIP3   OH227873   0.753   5.985   3.923  0.1993 -0.3754  0.0086
 2153TIP3    H127874   0.717   5.954   4.007  1.8034  2.0340  1.7093
 2153TIP3    H227875   0.827   6.039   3.948 -0.0795  1.5389 -2.9412
 2154TIP3   OH227876   2.298   3.888   4.682  0.1040 -0.0446 -0.9582
 2154TIP3    H127877   2.224   3.827   4.690  1.0439 -1.0717  0.6311
 2154TIP3    H227878   2.337   3.889   4.770 -0.9919  4.3984 -0.3206
 2155TIP3   OH227879   5.040   6.118  15.307  0.2385 -0.1079  0.7197
 2155TIP3    H127880   5.134   6.101  15.307  0.0686 -1.3038 -0.8921
 2155TIP3    H227881   5.017   6.130  15.400  1.7396 -1.1929  1.2632
 2156TIP3   OH227882   4.735   4.226   1.906  0.6179 -0.0681  0.0628
 2156TIP3    H127883   4.679   4.281   1.851  0.2483  0.6532  1.1276
 2156TIP3    H227884   4.820   4.269   1.905  0.3899  0.4247  0.7053
 2157TIP3   OH227885   4.919   2.411   4.175 -0.0732  0.3156  0.1543
 2157TIP3    H127886   4.956   2.499   4.182  0.9036 -0.0569 -0.1555
 2157TIP3    H227887   4.988   2.359   4.134  0.3269 -1.1590  2.4738
 2158TIP3   OH227888   1.432   6.045   3.257  0.2044  0.4668  0.6147
 2158TIP3    H127889   1.457   6.035   3.165 -0.4506  1.6780  0.2827
 2158TIP3    H227890   1.514   6.043   3.305  0.5532 -0.2265  0.0210
 2159TIP3   OH227891   2.097   5.292  13.553 -0.1227 -0.1930  0.3568
 2159TIP3    H127892   2.068   5.382  13.537 -0.6181 -0.8617 -3.0653
 2159TIP3    H227893   2.190   5.293  13.530  0.1277 -0.3669  1.3158
 2160TIP3   OH227894   5.315   5.760   1.001  0.3840  0.0478  0.2551
 2160TIP3    H127895   5.363   5.795   1.076 -1.2238  0.2758  1.2346
 2160TIP3    H227896   5.239   5.818   0.992  0.5449  0.0142 -1.5596
 2161TIP3   OH227897   4.500   1.872   6.291  0.3967 -0.3972 -0.3693
 2161TIP3    H127898   4.461   1.829   6.367 -1.6324 -0.2244 -1.2639
 2161TIP3    H227899   4.527   1.800   6.234 -1.0317 -0.5196 -0.9070
 2162TIP3   OH227900   0.045   0.853  12.140 -0.1096 -0.2188  0.2293
 2162TIP3    H127901   0.070   0.928  12.194  0.3866  0.2448 -0.6264
 2162TIP3    H227902   0.108   0.853  12.068 -0.5584 -1.0202 -0.1766
 2163TIP3   OH227903   0.746   1.996  11.310  0.0301 -0.2558 -0.5961
 2163TIP3    H127904   0.751   1.986  11.405  0.3759  0.8381 -0.4895
 2163TIP3    H227905   0.770   1.910  11.276 -0.8407 -0.8762  0.3066
 2164TIP3   OH227906   3.816   4.937  14.271  0.3562  0.2622  0.1340
 2164TIP3    H127907   3.770   4.965  14.192  0.2854  0.1746  0.1446
 2164TIP3    H227908   3.893   4.994  14.275  0.5702  0.0055 -0.2145
 2165TIP3   OH227909   3.355   5.699   3.538  0.3205 -0.0756 -0.4427
 2165TIP3    H127910   3.296   5.740   3.600 -1.6360 -1.3673 -1.3448
 2165TIP3    H227911   3.333   5.739   3.454  2.0399  0.7294 -0.5583
 2166TIP3   OH227912   5.657   2.792   1.837 -0.2474  0.2717  0.7147
 2166TIP3    H127913   5.625   2.711   1.875 -4.7077  0.0232 -2.7448
 2166TIP3    H227914   5.702   2.765   1.757 -0.6955  1.0918  0.1683
 2167TIP3   OH227915   4.519   4.424   5.982  0.5638 -0.0318  0.0178
 2167TIP3    H127916   4.612   4.417   5.961  0.8411 -2.2012  1.6575
 2167TIP3    H227917   4.517   4.469   6.067  0.1032  0.0156 -0.0159
 2168TIP3   OH227918   5.862   6.749  17.035 -0.3905 -0.0533  0.1049
 2168TIP3    H127919   5.880   6.808  16.961 -0.7077  2.0800  1.6566
 2168TIP3    H227920   5.945   6.743  17.082 -0.6831  0.1606  0.6530
 2169TIP3   OH227921   1.434   6.182   1.162  0.2780 -0.0092 -0.1869
 2169TIP3    H127922   1.339   6.190   1.149  0.3903  1.6506 -0.2708
 2169TIP3    H227923   1.454   6.091   1.141 -1.2761 -0.3634 -0.2744
 2170TIP3   OH227924   1.057   1.445   6.090  0.4965 -0.6050 -0.3510
 2170TIP3    H127925   1.063   1.357   6.127  3.5151  0.3050  1.7415
 2170TIP3    H227926   0.995   1.490   6.148  1.1741 -0.6086  0.3948
 2171TIP3   OH227927   2.780   3.219  15.672  0.0523 -0.3367 -0.1955
 2171TIP3    H127928   2.725   3.282  15.625 -1.4581 -0.9929  0.6033
 2171TIP3    H227929   2.851   3.271  15.708 -0.1283  0.5845 -1.1142
 2172TIP3   OH227930   0.579   6.323  16.749  0.5315  0.1560 -0.1378
 2172TIP3    H127931   0.490   6.350  16.728 -0.0476 -0.2954  1.5540
 2172TIP3    H227932   0.609   6.275  16.672 -2.1121 -3.0429  0.6282
 2173TIP3   OH227933   4.403   4.716   4.659 -0.4659  0.5598  0.4305
 2173TIP3    H127934   4.420   4.775   4.586  0.8232 -0.3859 -0.0824
 2173TIP3    H227935   4.402   4.772   4.736 -2.4475  1.6618 -0.3296
 2174TIP3   OH227936   5.609   6.454   3.076  0.2645 -0.0297  0.7048
 2174TIP3    H127937   5.700   6.482   3.088  0.4223  0.2895 -0.9406
 2174TIP3    H227938   5.616   6.364   3.045  0.1051  0.2875 -0.3211
 2175TIP3   OH227939   5.965   6.379  15.244 -0.3932 -0.4222  0.0221
 2175TIP3    H127940   5.988   6.356  15.334  1.3068 -0.1417 -0.3108
 2175TIP3    H227941   6.013   6.459  15.227  2.1005 -2.2108 -2.1933
 2176TIP3   OH227942   0.805   2.680   5.289 -0.1738  0.2997  0.0887
 2176TIP3    H127943   0.763   2.603   5.249 -0.0613  0.3975 -0.2264
 2176TIP3    H227944   0.817   2.741   5.216 -1.8131  1.3193  0.6216
 2177TIP3   OH227945   1.879   6.679  17.175 -0.7103  0.0285  0.2309
 2177TIP3    H127946   1.943   6.738  17.135  0.0815 -1.1045 -0.2240
 2177TIP3    H227947   1.918   6.593  17.167 -1.4777 -0.4706  1.6312
 2178TIP3   OH227948   3.508   1.702   0.937  0.0668 -0.5978  0.5216
 2178TIP3    H127949   3.420   1.693   0.973 -0.6337 -0.7792 -1.1600
 2178TIP3    H227950   3.521   1.796   0.928 -0.8238 -0.5837 -1.1424
 2179TIP3   OH227951   5.521   5.239   0.193 -0.1151  0.3146  0.1638
 2179TIP3    H127952   5.543   5.173   0.127  2.4826  0.3797  0.8590
 2179TIP3    H227953   5.512   5.321   0.144  0.4661  0.1225 -0.2754
 2180TIP3   OH227954   5.492   5.955   1.470 -0.4122 -0.5763  0.0532
 2180TIP3    H127955   5.493   5.894   1.544 -1.1965  0.5238  1.0126
 2180TIP3    H227956   5.412   6.006   1.482  0.3502  0.8175 -0.5526
 2181TIP3   OH227957   3.718   1.651   4.993  0.4137  0.0256  0.8392
 2181TIP3    H127958   3.623   1.648   5.007  0.0758 -1.1933 -1.2945
 2181TIP3    H227959   3.752   1.692   5.072 -2.0255  1.9765  1.0173
 2182TIP3   OH227960   2.778   2.268  16.557 -0.6633 -0.3361 -0.6153
 2182TIP3    H127961   2.853   2.301  16.506 -1.5164 -0.7128 -2.2034
 2182TIP3    H227962   2.811   2.190  16.600  0.1677  0.1377 -0.3727
 2183TIP3   OH227963   2.756   2.224   2.434  0.0495  0.1846 -0.0541
 2183TIP3    H127964   2.700   2.153   2.403  1.3657 -0.1897 -1.7705
 2183TIP3    H227965   2.825   2.180   2.484 -0.6152  0.5612  1.2642
 2184TIP3   OH227966   0.482   5.869  16.779  0.7238  0.0251  0.5479
 2184TIP3    H127967   0.436   5.885  16.861 -0.2572 -2.7208  0.6482
 2184TIP3    H227968   0.437   5.923  16.714  0.8001  1.3758  1.5929
 2185TIP3   OH227969   2.299   0.238  12.100  0.0227 -0.2718  0.3336
 2185TIP3    H127970   2.379   0.214  12.053 -0.8988 -0.8309 -1.0200
 2185TIP3    H227971   2.235   0.257  12.031 -1.4239 -1.2296  1.3378
 2186TIP3   OH227972   1.959   2.574   5.295  0.5511  0.4251  1.0968
 2186TIP3    H127973   1.873   2.614   5.282  0.1683 -0.3267  1.2274
 2186TIP3    H227974   1.941   2.480   5.301  1.4343  0.2144  0.6719
 2187TIP3   OH227975   4.472   3.886   2.113  0.5538 -0.1064 -0.3681
 2187TIP3    H127976   4.475   3.967   2.063  1.8820  1.8366  2.5838
 2187TIP3    H227977   4.429   3.910   2.195  1.5791 -2.2140  0.8779
 2188TIP3   OH227978   2.503   0.071  13.622  0.2130  0.2518 -0.3910
 2188TIP3    H127979   2.574   0.055  13.684  0.4470  0.4137 -0.6117
 2188TIP3    H227980   2.433   0.013  13.649  1.1095 -1.3571 -1.3293
 2189TIP3   OH227981   3.766   2.803  15.162  0.0419 -0.6979 -0.0071
 2189TIP3    H127982   3.784   2.709  15.161 -0.5895 -0.8252 -0.3288
 2189TIP3    H227983   3.694   2.814  15.225 -0.2912 -0.5184 -0.4070
 2190TIP3   OH227984   1.028   3.411  12.076  0.1586 -0.5177 -0.0988
 2190TIP3    H127985   1.037   3.502  12.045 -0.1365 -0.7386 -0.8508
 2190TIP3    H227986   1.116   3.374  12.066  0.6258  0.0747  1.5266
 2191TIP3   OH227987   5.814   4.977  16.600  0.9948  0.2556  0.4428
 2191TIP3    H127988   5.721   4.993  16.582  1.3492  1.6020 -0.3799
 2191TIP3    H227989   5.815   4.898  16.653 -0.6057  0.0520  0.2275
 2192TIP3   OH227990   2.763   0.464   0.896 -0.2913  0.1620 -0.4257
 2192TIP3    H127991   2.685   0.518   0.904 -1.6296 -1.6162 -0.7868
 2192TIP3    H227992   2.753   0.420   0.812  2.3373  1.6582 -1.6295
 2193TIP3   OH227993   2.527   3.931  14.255 -0.2715  0.5435 -0.1163
 2193TIP3    H127994   2.496   4.008  14.302 -2.3032  0.2596 -0.8987
 2193TIP3    H227995   2.555   3.964  14.170 -1.3148  0.4298 -0.5203
 2194TIP3   OH227996   2.564   0.047   1.161  0.0198 -0.3513  0.0462
 2194TIP3    H127997   2.645   0.094   1.183  0.2256 -1.0358  0.7909
 2194TIP3    H227998   2.593  -0.041   1.139 -0.5331 -0.6327  0.4307
 2195TIP3   OH227999   3.169   0.109  16.327  0.3571  0.1861 -0.4098
 2195TIP3    H128000   3.127   0.035  16.284  1.0749  0.1304 -1.0459
 2195TIP3    H228001   3.258   0.110  16.292  0.1812  1.7347 -0.9064
 2196TIP3   OH228002   2.963   5.244  14.711  0.0959 -0.4641  0.0025
 2196TIP3    H128003   2.923   5.165  14.748  0.7261  0.3920  2.6615
 2196TIP3    H228004   2.974   5.303  14.785 -0.4057  2.2028 -1.9168
 2197TIP3   OH228005   0.625   4.650  14.624  0.4278 -0.0300  0.0829
 2197TIP3    H128006   0.627   4.669  14.530 -0.7891  1.9571  0.3981
 2197TIP3    H228007   0.635   4.735  14.666 -1.1083 -0.5786  1.7151
 2198TIP3   OH228008   0.139   2.006   4.389  0.0951  0.9729 -0.4496
 2198TIP3    H128009   0.140   1.945   4.315  3.1257 -0.2109  0.4266
 2198TIP3    H228010   0.105   1.954   4.462 -0.6794  1.4347 -0.4737
 2199TIP3   OH228011   4.427   1.526  16.469 -0.2253 -0.3589  0.3282
 2199TIP3    H128012   4.431   1.601  16.408 -0.5907 -1.4925 -1.1499
 2199TIP3    H228013   4.337   1.527  16.501 -1.9496 -3.0131 -3.6241
 2200TIP3   OH228014   2.447   0.249  12.451 -0.5055 -0.0203  0.5496
 2200TIP3    H128015   2.528   0.215  12.489 -0.5855 -0.0946  0.6535
 2200TIP3    H228016   2.408   0.302  12.521 -0.1662  0.6377  0.2465
 2201TIP3   OH228017   2.128   6.175  12.923 -0.0296 -0.5785 -0.7608
 2201TIP3    H128018   2.211   6.221  12.920 -0.1038 -0.4851 -1.6053
 2201TIP3    H228019   2.116   6.152  13.016  0.7053 -0.1916 -0.5665
 2202TIP3   OH228020   0.706   0.914  12.355 -0.1593 -0.4531  0.0754
 2202TIP3    H128021   0.773   0.967  12.399  0.0961  1.1986 -2.1576
 2202TIP3    H228022   0.751   0.878  12.279 -1.6738  0.4034 -1.2829
 2203TIP3   OH228023   0.709   1.377  14.768  0.4354 -0.4678 -0.0026
 2203TIP3    H128024   0.630   1.423  14.740  1.2764  0.3816 -1.0666
 2203TIP3    H228025   0.781   1.427  14.729  1.6669  0.3690  3.0749
 2204TIP3   OH228026   1.638   2.168  17.126 -0.3647  0.1266  0.0178
 2204TIP3    H128027   1.620   2.219  17.048 -1.6391  0.8409  0.7452
 2204TIP3    H228028   1.604   2.081  17.106 -2.8459  0.8860  0.5495
 2205TIP3   OH228029   1.082   3.229  14.265 -0.1096 -0.3561  0.4809
 2205TIP3    H128030   1.047   3.318  14.273 -3.0746 -1.3652  0.1303
 2205TIP3    H228031   1.095   3.200  14.355 -0.1255  0.0702  0.6224
 2206TIP3   OH228032   5.129   2.837   2.077  0.0397  0.3484 -0.2195
 2206TIP3    H128033   5.112   2.921   2.034  1.7337  0.6281 -0.4282
 2206TIP3    H228034   5.059   2.779   2.045  0.7552  0.7563 -2.7809
 2207TIP3   OH228035   5.039   0.834   2.376  0.1835 -0.4947  0.7139
 2207TIP3    H128036   5.051   0.764   2.440  2.1426  0.3424  1.3454
 2207TIP3    H228037   4.968   0.888   2.413  0.4563 -0.6951  1.5660
 2208TIP3   OH228038   3.749   0.741  17.118 -0.3872  0.1778 -0.2585
 2208TIP3    H128039   3.796   0.824  17.120 -0.1577  0.0760 -1.0009
 2208TIP3    H228040   3.765   0.707  17.030  2.0084 -2.0935  0.9066
 2209TIP3   OH228041   3.370   2.129   3.064 -0.3898 -0.6025  0.0072
 2209TIP3    H128042   3.328   2.211   3.092 -0.7798 -0.5763 -0.6494
 2209TIP3    H228043   3.402   2.147   2.976 -0.2424 -1.0778 -0.0395
 2210TIP3   OH228044   1.453   6.706   0.275 -0.0328  0.1163  0.6664
 2210TIP3    H128045   1.370   6.719   0.229 -0.3358  0.3593  1.2798
 2210TIP3    H228046   1.515   6.762   0.227  0.1165 -1.1243 -0.6535
 2211TIP3   OH228047   4.217   3.126  14.581  0.5880 -0.2732  0.6546
 2211TIP3    H128048   4.273   3.141  14.505 -0.0949 -2.1906 -0.3018
 2211TIP3    H228049   4.252   3.184  14.649  2.1825  0.3645 -0.6508
 2212TIP3   OH228050   4.474   4.362   2.094 -0.3892  0.4214  0.1937
 2212TIP3    H128051   4.488   4.457   2.100  0.5850  0.2205  1.5317
 2212TIP3    H228052   4.496   4.329   2.181  2.0432 -1.3671 -0.9771
 2213TIP3   OH228053   1.070   1.835  11.443 -0.3740 -0.3545 -0.2213
 2213TIP3    H128054   1.084   1.785  11.362 -1.0145  0.7923 -1.0735
 2213TIP3    H228055   1.070   1.926  11.414  2.7353  0.3547  1.5291
 2214TIP3   OH228056   1.059   0.665  14.635 -0.1802 -0.3995 -0.4802
 2214TIP3    H128057   1.124   0.676  14.705 -1.4752 -0.0277  0.6920
 2214TIP3    H228058   1.065   0.746  14.585 -0.6946  0.2510  0.4712
 2215TIP3   OH228059   1.747   6.287   5.188  0.3383  0.1956  0.2111
 2215TIP3    H128060   1.682   6.356   5.175  0.7754  0.0501 -3.9381
 2215TIP3    H228061   1.823   6.332   5.224 -0.3829  1.2650  0.4503
 2216TIP3   OH228062   1.902   3.970  17.125  0.5317  0.1985  0.3723
 2216TIP3    H128063   1.838   3.984  17.055  0.2772 -1.1241  0.3087
 2216TIP3    H228064   1.849   3.955  17.203  0.7086 -1.5334  0.1998
 2217TIP3   OH228065   1.702   4.933   4.550  0.0520  0.5225 -0.1854
 2217TIP3    H128066   1.780   4.878   4.563 -0.1027  0.2216 -0.5130
 2217TIP3    H228067   1.673   4.954   4.639  0.0623 -0.0047 -0.0531
 2218TIP3   OH228068   2.722   6.100  15.307  0.4705 -0.0647  0.1111
 2218TIP3    H128069   2.655   6.168  15.302  0.8729  0.2316 -2.3383
 2218TIP3    H228070   2.720   6.057  15.222  0.5235 -2.9174  1.4048
 2219TIP3   OH228071   0.425   0.730  16.813 -0.0904  0.2033  0.6001
 2219TIP3    H128072   0.501   0.779  16.781  1.1000 -2.4041 -0.8464
 2219TIP3    H228073   0.372   0.715  16.735  0.9080 -2.9608  0.3968
 2220TIP3   OH228074   4.242   4.667  15.552 -0.3371 -0.2729 -0.3244
 2220TIP3    H128075   4.241   4.590  15.608  0.9505 -1.2285 -1.5295
 2220TIP3    H228076   4.333   4.696  15.553 -0.5204  0.3543 -1.0129
 2221TIP3   OH228077   1.647   2.364  15.425 -0.0871 -0.2833  0.3095
 2221TIP3    H128078   1.702   2.436  15.458 -1.3834  1.6748 -1.5100
 2221TIP3    H228079   1.564   2.374  15.472 -0.8436  0.5410 -1.1130
 2222TIP3   OH228080   2.245   6.259   2.303  0.0088  0.5761 -0.5424
 2222TIP3    H128081   2.320   6.290   2.354 -0.2508  0.5988 -0.1673
 2222TIP3    H228082   2.215   6.180   2.350  0.6934 -0.2896 -1.5099
 2223TIP3   OH228083   1.444   0.668  13.718 -0.7701 -0.1714 -0.2340
 2223TIP3    H128084   1.409   0.717  13.792 -1.2803 -0.7652 -0.0658
 2223TIP3    H228085   1.528   0.635  13.748 -0.7391  0.0276 -0.1030
 2224TIP3   OH228086   3.612   2.045  14.110 -0.6848  0.7860 -0.0147
 2224TIP3    H128087   3.696   2.019  14.148 -1.0567  1.3543  1.2528
 2224TIP3    H228088   3.549   1.983  14.147 -0.7469 -0.0990 -1.5287
 2225TIP3   OH228089   3.923   0.788   5.623 -0.2466 -0.2888 -0.5610
 2225TIP3    H128090   4.016   0.802   5.608  0.1370 -1.0788  0.8970
 2225TIP3    H228091   3.891   0.871   5.659 -0.1179 -0.0268 -1.0393
 2226TIP3   OH228092   2.048   3.404   0.147  0.4657 -0.3978  0.3425
 2226TIP3    H128093   2.076   3.378   0.235 -0.5221 -0.3738  0.6869
 2226TIP3    H228094   1.955   3.379   0.144 -0.7039  3.2959  0.8246
 2227TIP3   OH228095   4.223   6.426  11.989 -0.5828  0.1926 -0.0149
 2227TIP3    H128096   4.189   6.506  12.029 -0.5208 -0.0328  0.4998
 2227TIP3    H228097   4.302   6.454  11.943 -0.1427  0.3125  0.7846
 2228TIP3   OH228098   2.769   6.144   3.826 -0.0953  0.5774  0.2017
 2228TIP3    H128099   2.824   6.219   3.847 -3.3572  2.9063  1.2005
 2228TIP3    H228100   2.679   6.177   3.832 -1.6875 -2.4837 -3.0712
 2229TIP3   OH228101   3.880   4.655  16.722 -0.5002 -0.2590  0.0295
 2229TIP3    H128102   3.835   4.574  16.744  1.0885 -0.8033  1.4910
 2229TIP3    H228103   3.811   4.712  16.689 -2.5985 -0.5654  3.3566
 2230TIP3   OH228104   3.142   5.008   3.478  0.2511 -0.4598  0.6647
 2230TIP3    H128105   3.071   5.023   3.540  0.9547 -0.7433  1.5548
 2230TIP3    H228106   3.141   4.913   3.463  0.1296 -0.4003  0.3022
 2231TIP3   OH228107   1.819   0.407  14.042  0.3962  0.0282  0.1620
 2231TIP3    H128108   1.840   0.391  14.134  1.0244 -1.1481 -0.1544
 2231TIP3    H228109   1.729   0.374  14.032  0.4598 -0.1858  0.2810
 2232TIP3   OH228110   0.026   6.578  14.135  0.4684 -0.3262 -0.1953
 2232TIP3    H128111   0.047   6.619  14.219  0.8176 -1.0562  0.0902
 2232TIP3    H228112  -0.001   6.489  14.158 -2.8441  0.4548 -0.5566
 2233TIP3   OH228113   2.325   2.936   3.243  0.4789  0.0959 -0.3406
 2233TIP3    H128114   2.253   2.872   3.243  1.2819 -0.8245 -0.0883
 2233TIP3    H228115   2.357   2.934   3.153 -0.5054  1.3420 -0.7561
 2234TIP3   OH228116   5.238   2.032  11.343  0.3303 -0.1001  0.3674
 2234TIP3    H128117   5.207   2.064  11.258 -1.5782  1.4650  1.5656
 2234TIP3    H228118   5.325   1.997  11.325  0.2675  0.8149 -2.1040
 2235TIP3   OH228119   2.026   2.626  11.462 -0.3255  0.1876 -0.0559
 2235TIP3    H128120   1.965   2.561  11.498 -0.3058 -0.5945 -1.3837
 2235TIP3    H228121   1.969   2.687  11.414 -0.0435 -1.3555 -2.5470
 2236TIP3   OH228122   6.192   0.600  16.054 -0.5313 -0.2044  1.0008
 2236TIP3    H128123   6.136   0.661  16.102  2.2411  2.5655  1.0179
 2236TIP3    H228124   6.241   0.555  16.123 -1.0026 -0.8886  0.9026
 2237TIP3   OH228125   5.107   3.344  16.148  0.2509 -0.1852 -0.2132
 2237TIP3    H128126   5.153   3.381  16.072 -0.4033 -0.4603 -0.7601
 2237TIP3    H228127   5.167   3.357  16.221  0.8971  0.0931 -0.7778
 2238TIP3   OH228128   2.705   1.444  11.534  0.4220 -0.0784  0.9582
 2238TIP3    H128129   2.754   1.526  11.527  0.7808 -0.3338  0.3278
 2238TIP3    H228130   2.720   1.414  11.623 -0.3683  0.9390  1.4446
 2239TIP3   OH228131   1.942   3.274   3.592  0.6134 -0.4585  0.1323
 2239TIP3    H128132   1.980   3.186   3.596  0.9315 -0.2700  2.4922
 2239TIP3    H228133   2.018   3.333   3.591  0.4239 -0.1662  1.4647
 2240TIP3   OH228134   0.391   2.626  11.976  0.2469  0.7212 -0.0442
 2240TIP3    H128135   0.453   2.561  12.011  0.0887  1.1068  0.9813
 2240TIP3    H228136   0.387   2.606  11.883  2.0535  0.7766 -0.1857
 2241TIP3   OH228137   0.890   6.313  12.781 -0.0199 -0.1471  0.2182
 2241TIP3    H128138   0.936   6.395  12.764  1.6063 -0.8912  0.8728
 2241TIP3    H228139   0.813   6.317  12.724  0.9969  1.0067 -1.1575
 2242TIP3   OH228140   5.276   1.162   0.875  0.4727 -0.4657  0.5940
 2242TIP3    H128141   5.245   1.079   0.839  0.5331  0.1348 -0.9266
 2242TIP3    H228142   5.339   1.137   0.943 -0.5775 -1.6619  1.1687
 2243TIP3   OH228143   4.096   2.661   3.791  0.1328 -0.8253 -0.2675
 2243TIP3    H128144   4.168   2.720   3.767 -0.0872 -0.0452  0.8805
 2243TIP3    H228145   4.093   2.665   3.886 -0.8583 -1.5493 -0.2551
 2244TIP3   OH228146   5.242   0.464  13.678 -0.4048  0.0024  0.4140
 2244TIP3    H128147   5.212   0.554  13.665 -1.3629 -0.3701 -0.0356
 2244TIP3    H228148   5.192   0.412  13.615  1.1631 -0.6668 -0.3418
 2245TIP3   OH228149   0.175   4.816  11.292  0.5575 -0.0551 -0.2752
 2245TIP3    H128150   0.264   4.844  11.311  1.0390 -1.7290  0.0466
 2245TIP3    H228151   0.185   4.736  11.241 -0.7705 -0.4303  0.0104
 2246TIP3   OH228152   0.314   6.764  15.245 -0.6569  0.1278  0.2707
 2246TIP3    H128153   0.315   6.731  15.335 -3.3218  0.5368  0.5267
 2246TIP3    H228154   0.309   6.685  15.190  2.0659 -0.1845  0.3337
 2247TIP3   OH228155   1.816   4.102  14.425 -1.0311  0.2652 -0.4841
 2247TIP3    H128156   1.734   4.072  14.385 -0.0429 -1.9233 -0.9382
 2247TIP3    H228157   1.863   4.023  14.447  0.1856  1.4615  1.5198
 2248TIP3   OH228158   1.630   0.033  10.970  0.5067  0.8917 -0.4092
 2248TIP3    H128159   1.547   0.079  10.983  0.4334  0.0140  2.9631
 2248TIP3    H228160   1.618  -0.013  10.887 -1.1327  3.2343 -1.5892
 2249TIP3   OH228161   2.103   2.741  15.531 -1.0361  0.3496 -1.0893
 2249TIP3    H128162   2.130   2.833  15.529 -0.6342  0.2255 -1.6892
 2249TIP3    H228163   2.182   2.693  15.507 -1.6226 -0.0603 -2.2827
 2250TIP3   OH228164   4.383   1.099  15.363  0.0549  0.1064 -0.2016
 2250TIP3    H128165   4.419   1.034  15.424  2.3647  1.9310  0.5076
 2250TIP3    H228166   4.308   1.136  15.409 -0.1491 -0.7247  0.1664
 2251TIP3   OH228167   2.695   2.118  14.781 -0.0811  0.5719  0.1422
 2251TIP3    H128168   2.752   2.072  14.842 -0.5997  1.4116  1.2826
 2251TIP3    H228169   2.716   2.211  14.793 -0.5085  0.7844 -0.6439
 2252TIP3   OH228170   5.390   2.827   3.762 -0.0855 -0.0600 -0.1155
 2252TIP3    H128171   5.376   2.921   3.762  2.2776  0.4384  2.7907
 2252TIP3    H228172   5.359   2.797   3.847  0.0607 -1.7436 -0.6162
 2253TIP3   OH228173   4.236   2.285   3.210  0.3292 -0.1426 -0.5011
 2253TIP3    H128174   4.323   2.318   3.189  0.3017  0.1934 -0.1022
 2253TIP3    H228175   4.223   2.210   3.151 -0.7231  2.1707 -3.4838
 2254TIP3   OH228176   3.127   0.204   5.780 -0.2086 -0.4236 -0.3766
 2254TIP3    H128177   3.110   0.290   5.819 -0.5129 -0.4798 -0.3877
 2254TIP3    H228178   3.072   0.201   5.702  0.2948 -0.3696 -0.7366
 2255TIP3   OH228179   0.295   0.897   3.694 -0.3036 -0.3964 -0.1038
 2255TIP3    H128180   0.232   0.833   3.660 -0.6857  0.3312 -0.8110
 2255TIP3    H228181   0.289   0.971   3.633  0.2421  0.2515  0.6065
 2256TIP3   OH228182   5.786   0.245   4.518 -0.0687  0.3521 -0.0278
 2256TIP3    H128183   5.737   0.307   4.464 -1.9247 -0.3238  0.7811
 2256TIP3    H228184   5.752   0.159   4.491  1.7628 -0.2722 -0.4602
 2257TIP3   OH228185   5.850   0.512  13.557  0.6875  0.2452 -0.6634
 2257TIP3    H128186   5.917   0.572  13.590 -2.1026  2.4840  1.4433
 2257TIP3    H228187   5.791   0.499  13.631 -0.9186 -2.1013 -2.2226
 2258TIP3   OH228188   2.014   1.115   2.722 -0.6337  0.2232 -0.0145
 2258TIP3    H128189   1.974   1.103   2.808 -0.1589  0.5386  0.2570
 2258TIP3    H228190   1.944   1.093   2.660 -0.8907 -0.2949  0.4462
 2259TIP3   OH228191   3.284   6.693   3.806 -0.6344 -0.4880  0.2024
 2259TIP3    H128192   3.378   6.711   3.813 -0.7913  0.3659  0.2073
 2259TIP3    H228193   3.242   6.779   3.811 -1.4132 -0.8462  0.0595
 2260TIP3   OH228194   0.619   2.966   6.070 -0.4518 -0.1878 -0.3934
 2260TIP3    H128195   0.668   2.978   6.151  0.9526 -0.7119 -1.1320
 2260TIP3    H228196   0.572   2.884   6.082 -1.0846  0.2650  0.2797
 2261TIP3   OH228197   3.013   3.142   0.491 -0.5344  0.3844  0.0342
 2261TIP3    H128198   2.989   3.050   0.495  3.3476 -0.7777  0.2624
 2261TIP3    H228199   2.957   3.184   0.556 -0.4600 -2.3597  2.0692
 2262TIP3   OH228200   1.586   0.022   6.496  0.5302 -0.2009 -0.6332
 2262TIP3    H128201   1.668  -0.020   6.470  0.4389  0.1132 -1.4558
 2262TIP3    H228202   1.520  -0.047   6.486  0.7327 -0.5698  0.4034
 2263TIP3   OH228203   4.609   2.333   2.209  0.2413 -0.4345  0.0328
 2263TIP3    H128204   4.544   2.263   2.212 -0.0294 -0.1775  0.0903
 2263TIP3    H228205   4.588   2.382   2.130  0.4773 -0.4583 -0.0474
 2264TIP3   OH228206   5.945   0.803   5.958 -0.1015 -0.1496  0.0055
 2264TIP3    H128207   6.029   0.758   5.972  1.4356  2.7577  0.9946
 2264TIP3    H228208   5.884   0.757   6.016  1.1288 -1.4763  0.3143
 2265TIP3   OH228209   4.461   4.568  15.327 -0.2459  0.0480  0.1454
 2265TIP3    H128210   4.408   4.488  15.329  2.5379 -2.1577 -3.1992
 2265TIP3    H228211   4.505   4.570  15.412 -1.9451 -0.7517  1.0880
 2266TIP3   OH228212   2.744   0.178   1.442  0.0159  0.5091 -0.3911
 2266TIP3    H128213   2.755   0.089   1.474  0.8495  0.0383 -1.8934
 2266TIP3    H228214   2.833   0.213   1.434  0.0053  0.0886 -3.4217
 2267TIP3   OH228215   6.371   3.601  13.230  0.3569  0.3366  0.1224
 2267TIP3    H128216   6.361   3.570  13.140  0.8465 -0.3846  0.3126
 2267TIP3    H228217   6.464   3.616  13.241  0.3706 -0.1024  0.6729
 2268TIP3   OH228218   2.328   1.358  10.695 -0.3704  0.3625  0.0300
 2268TIP3    H128219   2.373   1.284  10.735 -0.8579  0.1663  0.2225
 2268TIP3    H228220   2.263   1.385  10.760 -1.0904  0.1163 -0.5790
 2269TIP3   OH228221   4.417   6.511   5.466  0.5169 -0.2122 -0.0870
 2269TIP3    H128222   4.360   6.575   5.424  0.0368 -0.5759  0.0039
 2269TIP3    H228223   4.429   6.442   5.401  1.0069 -0.0473 -0.1734
 2270TIP3   OH228224   0.540   3.332   0.439  0.1468  0.3457 -0.2279
 2270TIP3    H128225   0.587   3.273   0.381  0.4226 -0.8562  1.1422
 2270TIP3    H228226   0.492   3.274   0.498  1.2534  1.4225  1.8546
 2271TIP3   OH228227   3.865   4.710  12.727  0.1492  0.8783 -0.5308
 2271TIP3    H128228   3.888   4.715  12.634 -0.8940  1.0220 -0.8018
 2271TIP3    H228229   3.807   4.634  12.733  0.0589  0.9858 -0.0413
 2272TIP3   OH228230   4.054   6.546  11.789 -0.4515  0.4454  0.5370
 2272TIP3    H128231   4.143   6.511  11.793 -0.6889 -0.2857 -0.1856
 2272TIP3    H228232   4.003   6.488  11.847 -0.9286 -0.7122 -0.9818
 2273TIP3   OH228233   0.942   6.021   4.150 -0.4823 -0.2563  0.5296
 2273TIP3    H128234   0.996   6.071   4.210 -0.2126 -0.2780  0.3048
 2273TIP3    H228235   0.960   6.058   4.064 -0.7170 -0.3571  0.4344
 2274TIP3   OH228236   6.244   2.067  11.456 -0.0811  0.0235 -0.5721
 2274TIP3    H128237   6.218   1.976  11.438  0.9510 -0.0478 -1.8769
 2274TIP3    H228238   6.254   2.106  11.370  1.6968  0.7243 -0.0942
 2275TIP3   OH228239   1.558   5.677  14.185 -0.1571 -0.3061  0.4553
 2275TIP3    H128240   1.644   5.712  14.208 -0.0255 -0.8792  0.8383
 2275TIP3    H228241   1.560   5.586  14.212  0.5461 -1.5072 -3.1093
 2276TIP3   OH228242   3.531   2.862  13.499  0.3780  0.0767  0.4354
 2276TIP3    H128243   3.463   2.795  13.511  1.8352 -1.5882 -0.1194
 2276TIP3    H228244   3.585   2.856  13.577  1.9960 -1.2685 -0.7040
 2277TIP3   OH228245   5.675   2.678  16.062  0.4795  0.4188 -0.0535
 2277TIP3    H128246   5.600   2.737  16.061  0.8899  0.9667  0.7447
 2277TIP3    H228247   5.751   2.735  16.074  0.9624 -0.1985 -0.0914
 2278TIP3   OH228248   4.348   2.844  16.750  0.1722 -0.0734  0.0329
 2278TIP3    H128249   4.256   2.865  16.737 -0.3339 -1.8417  0.4121
 2278TIP3    H228250   4.380   2.910  16.812 -0.5166  1.2488 -0.9845
 2279TIP3   OH228251   0.702   3.033  11.329 -0.3426 -0.2987 -0.1447
 2279TIP3    H128252   0.641   3.022  11.256 -0.0917  2.2697 -0.8461
 2279TIP3    H228253   0.663   3.103  11.382  0.5489 -0.6665  1.0305
 2280TIP3   OH228254   4.668   5.315  14.933 -0.1256 -0.0264  0.0702
 2280TIP3    H128255   4.736   5.296  14.869  0.2616 -1.1453  0.7864
 2280TIP3    H228256   4.652   5.409  14.924 -0.6557 -0.2885 -2.1878
 2281TIP3   OH228257   5.305   2.095  17.062 -0.2196  0.3127  0.0043
 2281TIP3    H128258   5.394   2.121  17.084  0.0934  0.9156 -1.7946
 2281TIP3    H228259   5.275   2.161  17.000 -2.1507  0.4349  0.9959
 2282TIP3   OH228260   2.397   5.851   3.026  0.2799  0.5731 -0.6005
 2282TIP3    H128261   2.420   5.776   2.970  0.4043  0.0386  0.1556
 2282TIP3    H228262   2.327   5.818   3.082  1.0555  0.6953  0.4584
 2283TIP3   OH228263   5.221   0.178   1.110 -0.0987  0.2142 -0.1259
 2283TIP3    H128264   5.247   0.270   1.108 -0.5196  0.3440  0.3016
 2283TIP3    H228265   5.276   0.139   1.178 -0.3987  0.3000  0.1686
 2284TIP3   OH228266   3.064   4.467   0.028 -0.4586  0.2681  0.4192
 2284TIP3    H128267   3.005   4.477   0.102 -0.4401 -2.3583  0.8989
 2284TIP3    H228268   3.012   4.421  -0.038  0.3591 -0.0049 -0.0512
 2285TIP3   OH228269   2.719   2.617   3.703 -0.0255 -0.8478  0.0440
 2285TIP3    H128270   2.774   2.548   3.743  1.4585  0.1776 -0.1286
 2285TIP3    H228271   2.694   2.672   3.777  1.3673  0.1267 -0.1570
 2286TIP3   OH228272   0.493   1.474  12.953  0.3838  0.8833 -0.1475
 2286TIP3    H128273   0.571   1.422  12.971  0.4495  1.2498  0.6572
 2286TIP3    H228274   0.440   1.418  12.896  0.8766  0.3148 -0.0576
 2287TIP3   OH228275   2.624   1.348  12.490 -0.1389 -0.1596 -0.0550
 2287TIP3    H128276   2.559   1.367  12.423  0.5504  0.3541 -0.5909
 2287TIP3    H228277   2.689   1.293  12.446  0.2289  0.0340  0.2413
 2288TIP3   OH228278   4.003   0.317  13.475  0.9890  0.0053  0.0345
 2288TIP3    H128279   3.964   0.299  13.560  2.3585  0.2127  0.7424
 2288TIP3    H228280   4.090   0.278  13.480  1.3183  0.5640 -1.0343
 2289TIP3   OH228281   6.455   0.497  14.671 -0.1162 -0.4035  0.3514
 2289TIP3    H128282   6.521   0.436  14.640 -1.7165 -2.4681  0.8082
 2289TIP3    H228283   6.408   0.449  14.740 -3.8847 -0.1774 -1.7754
 2290TIP3   OH228284   1.113   2.823   2.745  0.5673  0.0578 -0.0999
 2290TIP3    H128285   1.177   2.887   2.716  0.8358 -0.5321 -0.8576
 2290TIP3    H228286   1.083   2.781   2.664  0.3571 -0.7304  0.3739
 2291TIP3   OH228287   6.181   1.474  17.145 -0.0906  0.0449 -0.1995
 2291TIP3    H128288   6.154   1.554  17.190  0.4301  0.1280 -0.0255
 2291TIP3    H228289   6.264   1.496  17.104  0.5668 -0.6802  0.6704
 2292TIP3   OH228290   3.324   2.288  15.521  0.9703  0.0040 -0.0696
 2292TIP3    H128291   3.362   2.270  15.435 -1.9952 -2.8907 -1.0137
 2292TIP3    H228292   3.247   2.341  15.502  0.0745 -0.9866  0.6784
 2293TIP3   OH228293   1.155   2.734   4.597 -0.3532 -0.1634 -0.3435
 2293TIP3    H128294   1.208   2.684   4.535 -1.8395 -1.1624 -0.8701
 2293TIP3    H228295   1.067   2.733   4.559 -1.0650  0.1894  1.2323
 2294TIP3   OH228296   0.130   3.977   5.891  0.5039  0.2999  0.2213
 2294TIP3    H128297   0.138   3.886   5.862  0.2441  0.0813  0.8146
 2294TIP3    H228298   0.187   3.983   5.968 -0.6637  0.2029  1.1393
 2295TIP3   OH228299   6.116   3.034  16.711 -0.3652 -0.0937  0.4063
 2295TIP3    H128300   6.068   2.974  16.767  1.6874 -1.0583  1.2311
 2295TIP3    H228301   6.164   3.090  16.772 -0.9168  1.2945 -0.3802
 2296TIP3   OH228302   0.946   0.574   2.362  0.1009 -0.7722  0.7960
 2296TIP3    H128303   0.853   0.590   2.351  0.0901 -0.0134  1.8806
 2296TIP3    H228304   0.957   0.480   2.343 -0.8200 -0.8064  0.4010
 2297TIP3   OH228305   4.616   2.049   5.462 -0.0253  1.3729 -0.4441
 2297TIP3    H128306   4.619   1.954   5.449  1.7692  1.4726 -0.9630
 2297TIP3    H228307   4.534   2.064   5.509  0.3671 -0.5824  0.9556
 2298TIP3   OH228308   5.167   3.413   4.004  0.1376 -0.0061 -0.1389
 2298TIP3    H128309   5.182   3.336   3.950  0.3374  1.5427 -2.4077
 2298TIP3    H228310   5.093   3.458   3.963 -1.1302  0.1923  2.1543
 2299TIP3   OH228311   2.753   1.458   0.174 -0.2261 -0.4459 -0.0714
 2299TIP3    H128312   2.660   1.442   0.156 -0.1676  0.3087 -1.1264
 2299TIP3    H228313   2.754   1.546   0.212  0.2033  0.2353 -1.5998
 2300TIP3   OH228314   3.902   1.099   0.093 -0.2851  0.3541  0.0742
 2300TIP3    H128315   3.904   1.182   0.140 -1.5479  0.3879  0.1011
 2300TIP3    H228316   3.877   1.122   0.003 -1.2488 -0.0301  0.2271
 2301TIP3   OH228317   2.335   0.186   5.672 -0.2005 -0.0212  0.1009
 2301TIP3    H128318   2.256   0.134   5.690 -1.9077  0.4188 -4.5271
 2301TIP3    H228319   2.319   0.270   5.714 -1.2256 -0.6111  0.9418
 2302TIP3   OH228320   2.393   4.122   1.125  0.1590  0.6376  0.2062
 2302TIP3    H128321   2.352   4.116   1.039 -1.4273  1.2324  0.8807
 2302TIP3    H228322   2.460   4.054   1.125 -1.8245 -1.4493 -0.4504
 2303TIP3   OH228323   5.909   6.223  17.264 -0.7451 -0.2667  0.3981
 2303TIP3    H128324   5.881   6.260  17.180  0.4394 -0.1905  0.0175
 2303TIP3    H228325   5.937   6.134  17.243 -0.9794 -0.4401  0.8199
 2304TIP3   OH228326   4.727   3.422  11.788 -0.5115 -0.1154 -0.5033
 2304TIP3    H128327   4.763   3.348  11.738 -0.7617 -0.9760  0.5579
 2304TIP3    H228328   4.634   3.401  11.798 -0.8944  1.0555 -1.4012
 2305TIP3   OH228329   3.843   2.165   0.686 -0.0812  0.0678 -0.3191
 2305TIP3    H128330   3.819   2.199   0.772  0.5418 -0.5091  0.0808
 2305TIP3    H228331   3.931   2.199   0.670  0.2477 -0.7437 -0.2456
 2306TIP3   OH228332   3.350   4.466   0.708  0.2415 -0.2135  0.5245
 2306TIP3    H128333   3.254   4.460   0.707  0.3424 -3.0162 -0.4611
 2306TIP3    H228334   3.374   4.450   0.799 -0.1634 -2.5515  0.2598
 2307TIP3   OH228335   2.962   2.543   1.711 -0.1315  0.0942 -0.2337
 2307TIP3    H128336   2.907   2.590   1.773 -0.8531 -0.6472 -0.2868
 2307TIP3    H228337   2.947   2.588   1.627 -0.5826 -0.0301 -0.2245
 2308TIP3   OH228338   3.208   1.801  13.177 -0.3001  0.4216 -0.3404
 2308TIP3    H128339   3.149   1.856  13.126 -1.1746 -1.9198 -2.0555
 2308TIP3    H228340   3.160   1.783  13.257 -0.7173  0.7900 -0.5009
 2309TIP3   OH228341   5.228   2.369   2.536  0.0640  0.4202  0.4361
 2309TIP3    H128342   5.179   2.441   2.574 -0.0567  0.5149  0.1068
 2309TIP3    H228343   5.168   2.332   2.471  0.0569 -0.0886  0.7284
 2310TIP3   OH228344   5.823   0.921  12.136 -0.0724  0.1677  0.0389
 2310TIP3    H128345   5.901   0.943  12.085 -0.6683  2.0198 -0.1416
 2310TIP3    H228346   5.767   0.998  12.128 -1.3451 -0.5934  1.2769
 2311TIP3   OH228347   0.597   0.015  15.669  0.0449  0.0172  0.2825
 2311TIP3    H128348   0.661   0.085  15.654 -0.0428 -0.1400 -0.9067
 2311TIP3    H228349   0.584   0.014  15.764 -0.0531  1.6925  0.3065
 2312TIP3   OH228350   4.808   3.220   4.335  0.4685 -0.1404 -0.4146
 2312TIP3    H128351   4.758   3.187   4.410  1.6121 -0.9629 -0.0050
 2312TIP3    H228352   4.855   3.296   4.369 -1.9268  1.9103 -1.2803
 2313TIP3   OH228353   0.111   0.658   0.646  0.5562 -0.4018  0.0430
 2313TIP3    H128354   0.109   0.667   0.551 -1.5818  0.6224  0.1297
 2313TIP3    H228355   0.174   0.724   0.675  0.1890  0.2410 -0.5959
 2314TIP3   OH228356   1.642   1.526   2.515 -0.5884 -0.6278  0.2455
 2314TIP3    H128357   1.642   1.595   2.581  0.3276 -1.0233  0.6730
 2314TIP3    H228358   1.574   1.552   2.453 -0.7944  0.2444  0.8224
 2315TIP3   OH228359   0.421   6.751   2.104  0.1722  0.0304 -0.1020
 2315TIP3    H128360   0.326   6.759   2.113  0.3366  0.3002  1.6565
 2315TIP3    H228361   0.432   6.679   2.041 -1.1752  0.3006 -0.7068
 2316TIP3   OH228362   0.794   0.992   0.834  0.2732  0.6462  0.0013
 2316TIP3    H128363   0.857   1.057   0.804 -0.9835  1.2446 -1.5005
 2316TIP3    H228364   0.828   0.909   0.800 -0.2787  1.1086 -1.8015
 2317TIP3   OH228365   3.323   4.017   3.111  0.1241 -0.1084  0.6569
 2317TIP3    H128366   3.358   4.070   3.183 -0.0529  1.8514 -0.6173
 2317TIP3    H228367   3.275   4.080   3.057 -0.3242 -1.6536 -0.8152
 2318TIP3   OH228368   6.614   5.264   5.204  0.5602 -0.1122 -0.2337
 2318TIP3    H128369   6.585   5.297   5.119 -0.2390  0.1577  0.1353
 2318TIP3    H228370   6.695   5.216   5.184  1.0697  0.9956 -0.9623
 2319TIP3   OH228371   3.544   0.010   5.166  0.4522  0.0131  0.2918
 2319TIP3    H128372   3.468   0.045   5.213 -0.2287 -0.0175 -0.7477
 2319TIP3    H228373   3.520  -0.080   5.145  0.8922 -0.0849  0.1993
 2320TIP3   OH228374   4.625   6.294   4.641 -0.0110  0.2770  0.5939
 2320TIP3    H128375   4.555   6.355   4.667  0.1800 -0.2366  2.4398
 2320TIP3    H228376   4.692   6.350   4.603  0.1854  1.2782  2.3118
 2321TIP3   OH228377   0.242   1.308   1.561  0.1648  0.0522  0.2116
 2321TIP3    H128378   0.167   1.347   1.605 -0.9916 -0.1427 -1.4854
 2321TIP3    H228379   0.257   1.225   1.607 -0.9416 -0.1045  0.3040
 2322TIP3   OH228380   4.509   4.121  15.497  0.4864 -0.2349 -0.0225
 2322TIP3    H128381   4.416   4.106  15.484  0.6807 -2.0321  0.3987
 2322TIP3    H228382   4.551   4.044  15.459  1.7119 -0.1435  1.0728
 2323TIP3   OH228383   1.738   1.509  12.252 -0.5717  0.3125 -0.1187
 2323TIP3    H128384   1.769   1.561  12.177 -1.7825 -0.0794 -0.9218
 2323TIP3    H228385   1.813   1.505  12.311  0.4513  0.5477 -1.3621
 2324TIP3   OH228386   4.074   0.583   5.197  0.4480 -0.6154 -0.0044
 2324TIP3    H128387   4.136   0.655   5.204  0.4159 -0.5778 -0.1091
 2324TIP3    H228388   4.099   0.523   5.267  0.3765 -0.4265  0.1869
 2325TIP3   OH228389   1.393   3.598   3.447  0.7847 -0.0064  0.1158
 2325TIP3    H128390   1.393   3.692   3.431 -0.3369 -0.0963 -0.5369
 2325TIP3    H228391   1.329   3.563   3.385  1.3620 -1.2353  0.1729
 2326TIP3   OH228392   5.072   4.230   2.111 -0.0526 -0.1370 -0.2043
 2326TIP3    H128393   5.002   4.287   2.144  0.0637  0.1049 -0.3686
 2326TIP3    H228394   5.088   4.168   2.182  0.4248  0.5811  0.3225
 2327TIP3   OH228395   5.857   3.639   3.441  0.2257  0.6425  0.0164
 2327TIP3    H128396   5.876   3.664   3.351  0.3746  1.4609  0.2600
 2327TIP3    H228397   5.781   3.691   3.465 -0.4092 -0.2927  0.0574
 2328TIP3   OH228398   3.646   3.393  11.000 -0.1639  0.5084  0.1632
 2328TIP3    H128399   3.642   3.451  10.923 -1.9507 -0.7220 -0.7450
 2328TIP3    H228400   3.575   3.330  10.986  0.3629 -0.6078  2.1647
 2329TIP3   OH228401   0.991   0.105   2.163  0.1281  0.0227  0.4967
 2329TIP3    H128402   0.905   0.072   2.137  0.5671  0.0457 -1.1244
 2329TIP3    H228403   1.013   0.055   2.241 -0.7454 -1.0142  0.1122
 2330TIP3   OH228404   5.549   5.261  11.284  0.2042 -0.2289 -0.1146
 2330TIP3    H128405   5.606   5.191  11.317 -1.8990 -1.3624  1.4245
 2330TIP3    H228406   5.467   5.216  11.262 -0.4201  1.4404 -1.3893
 2331TIP3   OH228407   0.805   3.855  15.812  0.2618  0.3019  0.0691
 2331TIP3    H128408   0.784   3.821  15.725  1.5784 -0.5252  0.0403
 2331TIP3    H228409   0.806   3.950  15.802 -3.1990  0.4424  0.0656
 2332TIP3   OH228410   0.225   0.734  11.032 -0.1946  0.5931 -0.2983
 2332TIP3    H128411   0.231   0.653  11.083  0.5524  0.8281  0.0098
 2332TIP3    H228412   0.226   0.804  11.099  0.6435  0.9004 -0.6195
 2333TIP3   OH228413   3.264   4.542   5.041 -0.0217 -0.5968 -0.3445
 2333TIP3    H128414   3.340   4.539   4.982 -1.6168 -2.3760 -2.5067
 2333TIP3    H228415   3.266   4.459   5.087  0.7526  0.4546  1.6143
 2334TIP3   OH228416   4.603   2.281  14.553  0.2185  0.1344  0.4287
 2334TIP3    H128417   4.548   2.275  14.474  0.7281  2.4803 -0.1710
 2334TIP3    H228418   4.680   2.228  14.532 -0.1415 -0.1519 -0.2152
 2335TIP3   OH228419   5.828   5.442  15.293 -0.0522  0.2058 -0.0739
 2335TIP3    H128420   5.849   5.456  15.386 -0.6032  1.5900 -0.1219
 2335TIP3    H228421   5.912   5.424  15.252  0.1580 -0.7580  0.7371
 2336TIP3   OH228422   3.438   4.830  15.174 -0.0992 -0.1529 -0.3000
 2336TIP3    H128423   3.461   4.739  15.151  0.4770  0.0539 -0.5625
 2336TIP3    H228424   3.481   4.883  15.107  1.5985  0.4748  1.1916
 2337TIP3   OH228425   4.054   4.741   0.497  0.1866  0.0587  0.1569
 2337TIP3    H128426   4.008   4.795   0.433  1.2550 -2.7401 -3.3315
 2337TIP3    H228427   4.141   4.780   0.504  0.3193 -0.0188 -0.8233
 2338TIP3   OH228428   0.860   1.215  11.559  0.3955 -0.5305 -0.4929
 2338TIP3    H128429   0.935   1.187  11.612  0.3971  0.3853  0.0007
 2338TIP3    H228430   0.895   1.281  11.500  0.0344 -0.3145 -0.4685
 2339TIP3   OH228431   5.139   2.810  15.990  0.1631  0.1055 -0.0915
 2339TIP3    H128432   5.107   2.720  15.986 -1.1809  0.5266  0.5346
 2339TIP3    H228433   5.086   2.858  15.927  1.1511  0.4040 -0.7260
 2340TIP3   OH228434   4.826   0.065   0.487  0.0869 -0.1569 -0.0107
 2340TIP3    H128435   4.823   0.099   0.577 -0.5173  1.0301 -0.4617
 2340TIP3    H228436   4.822   0.142   0.432 -0.1967 -0.9134 -1.0818
 2341TIP3   OH228437   1.085   1.510  15.790  0.2155  1.0143  0.9338
 2341TIP3    H128438   1.112   1.453  15.862  0.0054  0.3592  0.4967
 2341TIP3    H228439   1.161   1.514  15.733 -0.0485  0.5005  0.5435
 2342TIP3   OH228440   0.387   1.858  14.049  0.6491 -0.0526 -0.1652
 2342TIP3    H128441   0.421   1.869  13.961 -0.7342  3.3393 -0.4132
 2342TIP3    H228442   0.459   1.883  14.106  0.8224  0.0284 -0.4199
 2343TIP3   OH228443   1.415   0.423   6.185  0.2305  0.2183 -0.2648
 2343TIP3    H128444   1.453   0.447   6.270  0.8317 -0.4695 -0.3324
 2343TIP3    H228445   1.324   0.454   6.190 -0.1195 -0.8964  1.1092
 2344TIP3   OH228446   0.833   2.939   2.182  0.2377 -0.4548  0.4791
 2344TIP3    H128447   0.848   2.996   2.258 -1.0294  1.0293 -0.3216
 2344TIP3    H228448   0.867   2.989   2.107 -2.1980 -0.0301 -0.4309
 2345TIP3   OH228449   5.132   2.899  16.506 -0.3229  0.0088 -0.2787
 2345TIP3    H128450   5.094   2.890  16.418  0.8111  1.4743 -0.9772
 2345TIP3    H228451   5.225   2.880  16.493  0.7000  4.0849 -0.3285
 2346TIP3   OH228452   0.001   4.226   0.925  0.4461 -0.2967 -0.3121
 2346TIP3    H128453  -0.037   4.281   0.856 -0.8002  0.1298  0.6783
 2346TIP3    H228454  -0.054   4.148   0.927 -0.0176  0.0382  0.7050
 2347TIP3   OH228455   5.343   4.310  12.382  0.0734 -0.0996  0.0755
 2347TIP3    H128456   5.425   4.302  12.432 -0.0988  0.0731  0.3885
 2347TIP3    H228457   5.284   4.356  12.441 -0.2803 -0.3079 -0.1178
 2348TIP3   OH228458   6.054   4.603   1.370  0.2944  0.0492  0.5725
 2348TIP3    H128459   6.020   4.620   1.458 -0.9760 -2.0400  0.5542
 2348TIP3    H228460   6.041   4.509   1.357  0.0475  0.3640 -2.0243
 2349TIP3   OH228461   4.806   2.976  12.367 -0.2056  0.3868 -0.4990
 2349TIP3    H128462   4.887   2.953  12.412 -0.9560  0.0583  0.7304
 2349TIP3    H228463   4.828   3.054  12.315  1.3824 -0.8300 -1.7449
 2350TIP3   OH228464   1.895   0.762  12.782  0.1030  0.4292  0.0218
 2350TIP3    H128465   1.976   0.745  12.734 -1.8458 -1.0982 -3.0504
 2350TIP3    H228466   1.917   0.833  12.842  4.2311 -1.3816  0.9806
 2351TIP3   OH228467   4.731   6.323  15.616 -0.5954  0.5002  0.3601
 2351TIP3    H128468   4.683   6.277  15.547  0.9673 -0.0967 -0.3650
 2351TIP3    H228469   4.663   6.355  15.675 -1.8500 -1.1078 -0.1307
 2352TIP3   OH228470   2.131   5.344  14.209 -0.4168  0.2708 -1.4413
 2352TIP3    H128471   2.096   5.380  14.291 -0.5287  0.6597 -1.6528
 2352TIP3    H228472   2.081   5.264  14.195  0.0695 -0.1515 -0.7851
 2353TIP3   OH228473   2.899   1.826  13.996 -0.0205 -0.3335  0.2810
 2353TIP3    H128474   2.806   1.849  13.999 -0.4267 -1.8473  0.0319
 2353TIP3    H228475   2.920   1.823  13.902  0.0983 -0.6691  0.3170
 2354TIP3   OH228476   6.712   2.828  15.433  0.1305 -0.2346  0.6456
 2354TIP3    H128477   6.778   2.844  15.365 -1.3833  0.1460 -0.7705
 2354TIP3    H228478   6.709   2.732  15.440  0.1734 -0.2821  0.0581
 2355TIP3   OH228479   0.076   0.007  12.763 -0.0657 -0.6818  0.2248
 2355TIP3    H128480  -0.000   0.055  12.796  0.0547 -1.3388  1.5354
 2355TIP3    H228481   0.039  -0.073  12.725 -0.0846 -0.6544  0.1846
 2356TIP3   OH228482   2.645   2.704   0.741  0.1674  0.1365 -0.1703
 2356TIP3    H128483   2.693   2.622   0.732 -1.0040 -0.4655 -1.2117
 2356TIP3    H228484   2.554   2.677   0.756 -0.6387  1.1665 -2.6362
 2357TIP3   OH228485   3.913   6.200   5.669  0.2733 -0.1433  0.7399
 2357TIP3    H128486   3.873   6.143   5.734 -0.1070  0.4612  1.0477
 2357TIP3    H228487   4.006   6.179   5.671  0.0766 -1.0707  0.5206
 2358TIP3   OH228488   3.864   1.224  15.807  0.0593  0.2174 -0.1016
 2358TIP3    H128489   3.959   1.224  15.821  0.2508  1.3193 -1.2128
 2358TIP3    H228490   3.845   1.311  15.771 -1.3973  0.0556  0.2044
 2359TIP3   OH228491   3.422   6.469  14.704 -0.7031  0.0639  0.2446
 2359TIP3    H128492   3.359   6.401  14.730 -0.3155 -0.4883 -0.2456
 2359TIP3    H228493   3.392   6.547  14.750 -1.8428 -0.1507 -0.0858
 2360TIP3   OH228494   2.272   2.885   4.396  0.4232  0.0791  0.5395
 2360TIP3    H128495   2.212   2.899   4.469  0.3452 -0.9446  0.6943
 2360TIP3    H228496   2.220   2.838   4.331  0.7257  0.2457  0.1705
 2361TIP3   OH228497   1.755   1.953  16.141 -0.0890 -0.0754 -0.3014
 2361TIP3    H128498   1.662   1.961  16.121 -0.0949 -2.3875 -1.5569
 2361TIP3    H228499   1.774   1.860  16.127  2.2117  0.1627  0.8464
 2362TIP3   OH228500   1.977   0.768   5.597 -0.1996 -0.5390  0.2057
 2362TIP3    H128501   1.973   0.862   5.611  0.8783 -0.5470  0.7381
 2362TIP3    H228502   1.990   0.758   5.502 -2.8553 -0.2903 -0.2565
 2363TIP3   OH228503   1.789   4.610   3.443 -0.6676  0.1699 -0.3461
 2363TIP3    H128504   1.701   4.625   3.478 -1.0810 -0.1332 -1.2260
 2363TIP3    H228505   1.776   4.594   3.349  0.4412  1.2507 -0.7093
 2364TIP3   OH228506   3.023   5.737  13.239  0.1208 -0.1696  0.2261
 2364TIP3    H128507   2.958   5.774  13.179  0.7970 -0.1661 -0.5174
 2364TIP3    H228508   3.107   5.763  13.202  0.5471  0.0979  1.3550
 2365TIP3   OH228509   1.710   4.074   0.236  0.0525  0.6668  0.1597
 2365TIP3    H128510   1.717   4.168   0.253 -0.4832  0.8367 -0.5490
 2365TIP3    H228511   1.789   4.038   0.276 -0.1010  1.3186  1.0976
 2366TIP3   OH228512   4.849   5.714  11.416  0.5703  0.0297  0.2984
 2366TIP3    H128513   4.824   5.621  11.410 -2.4739  0.6071  2.0532
 2366TIP3    H228514   4.896   5.721  11.499  0.2493  0.1537  0.4705
 2367TIP3   OH228515   0.944   2.910  15.484 -0.1715  0.4913  0.0332
 2367TIP3    H128516   0.905   2.916  15.571 -2.7912 -1.5161 -0.8974
 2367TIP3    H228517   0.948   3.001  15.454  1.2782  1.3063  2.3256
 2368TIP3   OH228518   5.810   0.584  12.126 -0.1976  0.0095  0.4518
 2368TIP3    H128519   5.730   0.576  12.074  0.0078 -1.8927  0.3733
 2368TIP3    H228520   5.862   0.651  12.080 -1.4298  0.7706  0.1309
 2369TIP3   OH228521   3.115   2.350   2.429 -0.1707 -0.0502  0.5387
 2369TIP3    H128522   3.168   2.400   2.367  1.4172 -1.4288  0.7020
 2369TIP3    H228523   3.085   2.274   2.379 -2.0921  0.7138  0.4442
 2370TIP3   OH228524   1.944   1.026  16.155  0.5943  0.3182  0.3058
 2370TIP3    H128525   1.976   1.110  16.123  0.2817 -0.0882 -1.1970
 2370TIP3    H228526   1.931   1.038  16.249  2.2295  1.3985  0.4193
 2371TIP3   OH228527   1.293   2.645  16.438  0.2722  0.2273 -0.2875
 2371TIP3    H128528   1.316   2.702  16.365  1.2608  0.5279  0.2365
 2371TIP3    H228529   1.205   2.672  16.463  0.1993  0.5854 -0.9275
 2372TIP3   OH228530   5.768   5.802   0.109 -0.0338  0.1346  0.1807
 2372TIP3    H128531   5.716   5.842   0.039  0.3531  0.7547  0.2404
 2372TIP3    H228532   5.849   5.853   0.110  1.3172 -1.8292 -1.0270
 2373TIP3   OH228533   1.965   0.174   2.799 -0.6992  0.4185  0.2274
 2373TIP3    H128534   1.947   0.144   2.710  0.0067  0.3392  0.1051
 2373TIP3    H228535   2.057   0.200   2.797 -0.6871  0.4395  0.9323
 2374TIP3   OH228536   0.252   3.521   0.594 -0.4081  0.1401 -0.5995
 2374TIP3    H128537   0.331   3.475   0.623 -0.1465  0.4951 -0.7370
 2374TIP3    H228538   0.180   3.463   0.618 -0.0897 -0.2929 -0.6786
 2375TIP3   OH228539   5.593   3.529   3.045 -0.3074  0.1020  0.0708
 2375TIP3    H128540   5.611   3.615   3.083  1.8247 -1.3015  2.5222
 2375TIP3    H228541   5.546   3.481   3.113  1.9091 -1.8684  0.3271
 2376TIP3   OH228542   3.772   1.819  11.745  0.3665  0.0519 -0.0786
 2376TIP3    H128543   3.762   1.755  11.816 -0.1673  0.7286  0.4682
 2376TIP3    H228544   3.864   1.812  11.719  0.5678 -0.2086  0.6775
 2377TIP3   OH228545   4.449   5.405   2.120 -0.1187 -0.4504  0.6016
 2377TIP3    H128546   4.394   5.419   2.197 -1.5016  0.7045 -0.5357
 2377TIP3    H228547   4.392   5.426   2.046  1.7205  0.3220 -0.6715
 2378TIP3   OH228548   1.290   3.182   2.513 -0.1577  0.3367  0.1810
 2378TIP3    H128549   1.201   3.205   2.485 -0.2950  1.6129  1.5084
 2378TIP3    H228550   1.299   3.224   2.599  0.9852 -1.5532  1.0464
 2379TIP3   OH228551   6.505   6.461   0.126  0.0329 -0.4532  0.0278
 2379TIP3    H128552   6.444   6.413   0.070 -0.1596 -2.8474  2.1027
 2379TIP3    H228553   6.580   6.402   0.135  2.0300  1.7554 -1.1805
 2380TIP3   OH228554   5.508   1.448  13.569 -0.5445  0.2005 -0.2365
 2380TIP3    H128555   5.513   1.358  13.599  0.9052  0.4053  0.2033
 2380TIP3    H228556   5.432   1.450  13.510 -0.2541 -1.4246 -0.7003
 2381TIP3   OH228557   6.662   5.917  10.708 -0.1297 -0.2948  0.6850
 2381TIP3    H128558   6.726   5.846  10.711  3.4818  2.6876  0.9635
 2381TIP3    H228559   6.681   5.970  10.786 -4.1539 -0.0268  1.7199
 2382TIP3   OH228560   0.243   4.324   4.270  0.3127  0.1735 -0.8249
 2382TIP3    H128561   0.288   4.377   4.335 -1.3807 -0.4847  0.9803
 2382TIP3    H228562   0.307   4.258   4.244  0.4522 -0.7843  1.7220
 2383TIP3   OH228563   0.013   2.313  11.288  0.3540  0.2459 -0.2094
 2383TIP3    H128564   0.027   2.405  11.263 -0.0553  0.3139 -0.1994
 2383TIP3    H228565  -0.014   2.317  11.379  0.2989  0.1190 -0.2199
 2384TIP3   OH228566   4.777   5.295   3.656 -0.1567 -0.1708  0.6119
 2384TIP3    H128567   4.705   5.237   3.632 -1.4908  2.2045 -1.6397
 2384TIP3    H228568   4.734   5.376   3.685  1.6254  0.2715  2.2295
 2385TIP3   OH228569   1.636   4.655  14.395  0.0845 -0.4022  0.0879
 2385TIP3    H128570   1.662   4.658  14.487  0.0228 -0.4302  0.1060
 2385TIP3    H228571   1.716   4.675  14.346  0.0272  0.0148  0.1601
 2386TIP3   OH228572   6.021   3.109  16.037 -0.5376 -0.4472 -0.2278
 2386TIP3    H128573   5.952   3.148  16.090 -1.0003 -2.3880  0.6873
 2386TIP3    H228574   5.975   3.045  15.982  0.5147 -1.8635  0.4902
 2387TIP3   OH228575   0.685   6.427   0.237  0.1270  0.3419  0.1874
 2387TIP3    H128576   0.651   6.352   0.285  0.5916  0.2049  0.3058
 2387TIP3    H228577   0.682   6.400   0.145  1.5629 -0.3546  0.3186
 2388TIP3   OH228578   4.824   3.272  15.352  0.3740 -0.5961  0.3709
 2388TIP3    H128579   4.794   3.263  15.262  0.0251  2.1898  0.1140
 2388TIP3    H228580   4.913   3.236  15.351 -0.0737 -1.7299 -0.7651
 2389TIP3   OH228581   5.326   3.787   5.506 -0.3372 -0.6357  0.4257
 2389TIP3    H128582   5.285   3.871   5.527 -0.0610 -0.0539 -1.2474
 2389TIP3    H228583   5.348   3.793   5.413  1.8035 -1.6533  0.8008
 2390TIP3   OH228584   3.595   0.759   5.718  0.0103  0.0070 -0.1030
 2390TIP3    H128585   3.604   0.837   5.772 -0.0947  0.6922 -1.0422
 2390TIP3    H228586   3.555   0.790   5.637 -1.0473 -1.2055 -0.0881
 2391TIP3   OH228587   3.092   0.330   3.606 -0.1845  0.5475 -0.1250
 2391TIP3    H128588   3.104   0.239   3.578  2.7370  0.4495  1.0701
 2391TIP3    H228589   2.999   0.337   3.624 -0.2080 -3.1746  2.5275
 2392TIP3   OH228590   6.224   4.986  16.374  0.0923 -0.0901 -0.1832
 2392TIP3    H128591   6.135   4.950  16.376 -0.1260  0.4792  0.2693
 2392TIP3    H228592   6.220   5.065  16.428  0.8917 -0.1009 -0.1007
 2393TIP3   OH228593   2.228   6.528   0.104  1.0798 -0.3206 -0.2718
 2393TIP3    H128594   2.205   6.620   0.089  0.0869 -0.0062  2.5972
 2393TIP3    H228595   2.312   6.517   0.060  1.2300  1.9679 -0.6716
 2394TIP3   OH228596   4.711   6.686   2.206 -0.2358  0.2457  0.1109
 2394TIP3    H128597   4.662   6.737   2.140 -0.6417  0.0605  0.2637
 2394TIP3    H228598   4.736   6.606   2.160  0.3290  0.5374 -0.1042
 2395TIP3   OH228599   5.268   2.814   3.340  0.3418 -0.1802 -0.2548
 2395TIP3    H128600   5.237   2.775   3.422  1.3349  1.6119  1.0495
 2395TIP3    H228601   5.214   2.773   3.272 -1.6290 -0.5615  1.4340
 2396TIP3   OH228602   0.315   0.544  14.430  0.1412 -0.2716 -0.3173
 2396TIP3    H128603   0.361   0.570  14.509 -1.1110 -1.3355  0.8128
 2396TIP3    H228604   0.374   0.482  14.387  0.0553 -1.1497  0.7872
 2397TIP3   OH228605   2.952   5.137  16.407  0.2106 -0.2982  0.4212
 2397TIP3    H128606   2.878   5.078  16.422 -0.0344 -0.9331 -2.6086
 2397TIP3    H228607   2.912   5.221  16.384  0.4521 -0.2434  0.1953
 2398TIP3   OH228608   1.009   1.229  16.076  0.0815  0.6118  0.1379
 2398TIP3    H128609   0.973   1.266  16.158 -1.7045  1.4435 -0.9508
 2398TIP3    H228610   1.092   1.275  16.064 -0.0698  1.1519  1.0221
 2399TIP3   OH228611   2.214   6.498  15.031 -0.2058  0.5541 -0.2937
 2399TIP3    H128612   2.215   6.404  15.016 -0.9089  0.3808  0.6468
 2399TIP3    H228613   2.190   6.536  14.946 -1.8858 -0.2342 -0.2056
 2400TIP3   OH228614   3.544   5.552  16.586 -0.5316  0.2795 -0.0180
 2400TIP3    H128615   3.562   5.516  16.499 -1.0173 -0.8604  0.3261
 2400TIP3    H228616   3.451   5.574  16.585 -0.6374 -0.1230  0.3323
 2401TIP3   OH228617   6.394   1.740   2.654 -0.2501 -0.9523  0.3264
 2401TIP3    H128618   6.413   1.813   2.713 -2.9122 -0.0145  0.1831
 2401TIP3    H228619   6.350   1.781   2.579  0.5953 -2.4391 -1.0223
 2402TIP3   OH228620   4.357   1.762  12.633 -0.5749  0.3581  0.3327
 2402TIP3    H128621   4.348   1.702  12.559 -0.9008 -0.5529  1.0920
 2402TIP3    H228622   4.380   1.846  12.593  0.3745 -0.3713 -0.7250
 2403TIP3   OH228623   1.706   3.192   6.029 -0.2354  0.8129 -0.2304
 2403TIP3    H128624   1.752   3.274   6.010 -1.7022  1.5576 -0.8014
 2403TIP3    H228625   1.670   3.204   6.117  0.3822  0.3551  0.0937
 2404TIP3   OH228626   0.680   2.583  15.459  0.0060 -0.2093  0.5395
 2404TIP3    H128627   0.749   2.626  15.408 -0.5479 -1.0116 -0.9575
 2404TIP3    H228628   0.605   2.642  15.453 -0.1706 -0.4698  0.0820
 2405TIP3   OH228629   0.546   6.509   2.340  0.5087  0.5439 -0.0988
 2405TIP3    H128630   0.523   6.516   2.247  1.5999  1.3103 -0.3248
 2405TIP3    H228631   0.621   6.450   2.342 -0.1385 -0.2771  0.4116
 2406TIP3   OH228632   2.387   6.274   6.239  0.0982 -0.0486 -0.1266
 2406TIP3    H128633   2.437   6.351   6.268  0.7297  0.1424 -1.6352
 2406TIP3    H228634   2.304   6.281   6.286  1.4194 -0.3779  2.4667
 2407TIP3   OH228635   2.355   5.074  14.447  0.4105  0.1978  0.4478
 2407TIP3    H128636   2.301   5.124  14.508 -0.5153  0.4349 -0.5325
 2407TIP3    H228637   2.347   4.983  14.477 -3.2182 -0.2968 -1.4668
 2408TIP3   OH228638   5.426   6.449  13.563 -0.0888  0.7404  0.0256
 2408TIP3    H128639   5.335   6.477  13.550 -0.4950 -0.4564  0.1838
 2408TIP3    H228640   5.468   6.524  13.606 -0.8349  1.5450 -0.6243
 2409TIP3   OH228641   0.789   4.078  17.223 -0.1645  0.1415 -0.0212
 2409TIP3    H128642   0.820   4.160  17.185  0.0360  0.3779  0.6388
 2409TIP3    H228643   0.780   4.019  17.148 -1.4550  1.1039 -0.6548
 2410TIP3   OH228644   6.602   5.735   3.574  0.5067 -0.1371  0.2674
 2410TIP3    H128645   6.606   5.798   3.646  0.8045 -0.9469  0.9835
 2410TIP3    H228646   6.543   5.666   3.605  1.5587 -1.0807  0.2364
 2411TIP3   OH228647   6.700   2.564   1.699 -0.5385  0.3756  0.1955
 2411TIP3    H128648   6.730   2.580   1.788  4.9443 -2.0268 -0.8149
 2411TIP3    H228649   6.664   2.476   1.701 -3.0241  1.3018  0.3412
 2412TIP3   OH228650   0.116   2.087   2.013 -0.9275  0.1935 -0.4165
 2412TIP3    H128651   0.098   2.069   2.105  1.1757 -0.7141 -0.1314
 2412TIP3    H228652   0.058   2.159   1.991 -0.2395  1.6583  2.1548
 2413TIP3   OH228653   3.321   4.245  11.359  0.0994  0.5645  0.1166
 2413TIP3    H128654   3.266   4.320  11.382 -0.4598  0.1007  0.3049
 2413TIP3    H228655   3.266   4.169  11.376  0.9851  0.0670  0.8447
 2414TIP3   OH228656   3.384   0.762  13.026 -0.5254  0.3636 -0.3525
 2414TIP3    H128657   3.416   0.672  13.018  0.1658  0.4446  1.1504
 2414TIP3    H228658   3.367   0.789  12.936 -0.3222 -1.1152 -0.8702
 2415TIP3   OH228659   0.096   4.872   0.386  0.1643  0.1672  0.2822
 2415TIP3    H128660   0.174   4.907   0.343  0.1173 -0.8185 -0.6390
 2415TIP3    H228661   0.032   4.943   0.380  0.6180  0.5614  0.0149
 2416TIP3   OH228662   1.072   0.188  16.987  0.0102 -1.4968 -0.4698
 2416TIP3    H128663   1.118   0.133  17.050  0.0077 -0.3540  0.5587
 2416TIP3    H228664   1.039   0.126  16.921  1.7973 -2.4858 -0.5053
 2417TIP3   OH228665   6.046   6.059   1.410  0.4336 -0.6874  0.0029
 2417TIP3    H128666   5.995   5.992   1.366  0.3287 -0.4506 -0.2380
 2417TIP3    H228667   5.998   6.077   1.491 -2.4724  2.7702 -2.1798
 2418TIP3   OH228668   5.228   2.382   0.094  0.7948  0.0090 -0.3507
 2418TIP3    H128669   5.135   2.395   0.110  0.6216 -1.5034  0.0373
 2418TIP3    H228670   5.249   2.440   0.021 -0.4886  0.2271 -0.5668
 2419TIP3   OH228671   3.817   3.964   2.918 -0.2169  0.0709 -0.5143
 2419TIP3    H128672   3.743   3.904   2.929  0.2404 -0.5404 -0.7614
 2419TIP3    H228673   3.777   4.051   2.919 -0.7974 -0.1987  0.5842
 2420TIP3   OH228674   1.023   4.620   4.543 -0.1429  0.2345  0.3167
 2420TIP3    H128675   1.038   4.705   4.583  3.3753 -0.0564 -0.0756
 2420TIP3    H228676   1.027   4.637   4.448  2.1797 -0.4576  0.2182
 2421TIP3   OH228677   1.598   4.129  17.200 -0.5880  0.4071  0.0357
 2421TIP3    H128678   1.515   4.095  17.165 -0.0868 -0.7786 -0.0417
 2421TIP3    H228679   1.650   4.051  17.218  0.9847  1.1618 -1.0386
 2422TIP3   OH228680   1.361   6.725  12.375  0.1559 -0.2855 -0.2971
 2422TIP3    H128681   1.431   6.788  12.395  0.4659 -0.4983 -0.7100
 2422TIP3    H228682   1.401   6.663  12.314 -0.0710 -1.0474  0.3242
 2423TIP3   OH228683   2.295   2.769  13.608  0.3498  0.1461 -0.0982
 2423TIP3    H128684   2.362   2.719  13.654 -0.7875 -0.4626  0.9592
 2423TIP3    H228685   2.213   2.745  13.651 -0.9733 -1.2873 -3.1054
 2424TIP3   OH228686   0.860   5.702   4.145 -0.6579  0.0953  0.1099
 2424TIP3    H128687   0.849   5.784   4.194 -0.8145 -0.2308  0.6304
 2424TIP3    H228688   0.782   5.651   4.166 -0.1016 -0.5871  0.5769
 2425TIP3   OH228689   4.989   3.688   4.216 -0.7898 -0.4991 -0.0365
 2425TIP3    H128690   5.068   3.742   4.226 -1.2603 -0.0430  1.4166
 2425TIP3    H228691   5.009   3.630   4.142  1.2853 -1.0429  0.8858
 2426TIP3   OH228692   2.347   5.711  15.886 -0.6609 -0.4422  0.3891
 2426TIP3    H128693   2.284   5.653  15.929 -1.1511  0.6493  1.1890
 2426TIP3    H228694   2.296   5.751  15.814 -1.1715  1.0414  1.5174
 2427TIP3   OH228695   0.743   3.725  14.431 -0.1721 -0.4704  0.2876
 2427TIP3    H128696   0.669   3.683  14.474 -1.2586  0.4543 -0.6250
 2427TIP3    H228697   0.772   3.792  14.494 -1.5510  0.6613 -0.2315
 2428TIP3   OH228698   5.158   3.494  12.720  0.4911 -0.3005 -0.3557
 2428TIP3    H128699   5.099   3.560  12.684  0.4285 -0.9490 -1.4946
 2428TIP3    H228700   5.246   3.527  12.700  0.5009  0.1941  0.4794
 2429TIP3   OH228701   0.499   1.860   0.864 -0.1659  0.6680 -0.2513
 2429TIP3    H128702   0.406   1.836   0.868 -0.0138 -0.0628 -0.8334
 2429TIP3    H228703   0.545   1.781   0.892  0.3610  0.0665 -2.6209
 2430TIP3   OH228704   0.540   0.751  16.253 -0.5119  0.2332  0.6735
 2430TIP3    H128705   0.568   0.808  16.325 -0.5249  0.5556  0.4233
 2430TIP3    H228706   0.495   0.678  16.297  1.0865 -0.5463  1.1253
 2431TIP3   OH228707   4.842   4.915  16.152  0.0683  0.0160 -0.4003
 2431TIP3    H128708   4.926   4.944  16.117  0.3160 -0.2937 -0.0690
 2431TIP3    H228709   4.837   4.956  16.238  0.0284 -0.2285 -0.2864
 2432TIP3   OH228710   2.297   3.824   3.719 -0.7345 -0.4463  0.3354
 2432TIP3    H128711   2.349   3.826   3.799 -1.5658 -1.3592  0.9137
 2432TIP3    H228712   2.218   3.874   3.740  0.0465  1.3176 -0.6771
 2433TIP3   OH228713   1.761   0.614  16.478  0.3271  0.1198  0.0595
 2433TIP3    H128714   1.777   0.699  16.520 -0.2832  1.8446 -2.8999
 2433TIP3    H228715   1.666   0.609  16.471  0.4195  0.3766 -1.8659
 2434TIP3   OH228716   3.291   1.825  16.512 -0.7176  0.4173  0.5386
 2434TIP3    H128717   3.285   1.801  16.419  1.4247  1.0916  0.1505
 2434TIP3    H228718   3.301   1.742  16.558  0.2009  0.1698 -0.0763
 2435TIP3   OH228719   0.683   4.156   1.075 -0.1315 -0.1108  0.6524
 2435TIP3    H128720   0.726   4.087   1.025 -1.9197 -1.8524  1.3803
 2435TIP3    H228721   0.751   4.222   1.089  2.1257 -2.4121  1.2078
 2436TIP3   OH228722   1.102   0.641  12.509  0.2861  0.4663  0.3701
 2436TIP3    H128723   1.140   0.705  12.569  0.9228  0.5917 -0.1629
 2436TIP3    H228724   1.020   0.682  12.480 -0.5055  0.0156  1.8332
 2437TIP3   OH228725   1.718   2.455   0.561 -0.4334 -0.2034 -0.3165
 2437TIP3    H128726   1.655   2.394   0.521 -0.0971  0.3220 -1.7023
 2437TIP3    H228727   1.717   2.432   0.654 -1.0499 -1.6636 -0.6480
 2438TIP3   OH228728   5.901   6.142  14.246  0.2069 -0.4320  0.0599
 2438TIP3    H128729   5.884   6.079  14.176  0.9339 -0.0293 -0.4925
 2438TIP3    H228730   5.983   6.184  14.221  2.5455 -2.7797  2.8728
 2439TIP3   OH228731   5.354   0.813   6.793  0.3009  0.1013  0.1271
 2439TIP3    H128732   5.381   0.831   6.703  0.4231 -1.1031 -0.0967
 2439TIP3    H228733   5.423   0.757   6.829 -0.9054 -1.4590  0.1538
 2440TIP3   OH228734   0.602   2.345   6.419 -0.1911 -0.3302  0.0060
 2440TIP3    H128735   0.619   2.393   6.500 -0.8756 -0.1237  0.0368
 2440TIP3    H228736   0.511   2.318   6.426 -0.3410 -0.0750 -0.8059
 2441TIP3   OH228737   0.730   0.991  12.992 -0.2322 -0.6662 -0.3948
 2441TIP3    H128738   0.787   0.949  12.928 -0.2618 -2.7776  0.8709
 2441TIP3    H228739   0.755   0.952  13.076 -0.8099  1.3310  0.7882
 2442TIP3   OH228740   5.230   4.957  13.824  0.3744 -0.1092 -0.3580
 2442TIP3    H128741   5.234   4.866  13.795 -1.3706  0.1155 -1.4507
 2442TIP3    H228742   5.261   4.955  13.914 -0.2688 -1.8987 -0.1312
 2443TIP3   OH228743   1.882   3.581  10.763 -0.2558  0.0214 -0.2968
 2443TIP3    H128744   1.888   3.486  10.754  1.3609  0.1688 -1.1216
 2443TIP3    H228745   1.798   3.603  10.722 -0.9013 -1.0755  0.3605
 2444TIP3   OH228746   3.772   5.135   0.507 -0.0151 -0.4164  0.0570
 2444TIP3    H128747   3.720   5.153   0.585 -1.2721 -1.6147 -0.4643
 2444TIP3    H228748   3.764   5.214   0.454 -1.1977 -0.5236  0.0559
 2445TIP3   OH228749   4.231   1.173   4.839 -1.0254  1.1202  0.3393
 2445TIP3    H128750   4.140   1.193   4.817 -0.7060  1.4853 -0.7479
 2445TIP3    H228751   4.280   1.251   4.813 -0.0426 -0.1240 -1.8516
 2446TIP3   OH228752   6.528   3.707  15.881 -0.2160  0.5437  0.1632
 2446TIP3    H128753   6.466   3.725  15.951  1.2856  0.7212  1.5223
 2446TIP3    H228754   6.490   3.634  15.832 -1.0450  0.0446  1.5177
 2447TIP3   OH228755   4.297   0.251  11.419 -0.2446 -0.6671  0.0280
 2447TIP3    H128756   4.367   0.265  11.482  1.5075  0.6147 -2.0338
 2447TIP3    H228757   4.333   0.283  11.336 -3.0741 -0.5257 -1.2692
 2448TIP3   OH228758   2.514   4.546   5.639  0.3104  0.2698 -0.2303
 2448TIP3    H128759   2.482   4.472   5.587 -0.4462  0.2256  0.2792
 2448TIP3    H228760   2.440   4.569   5.695  1.5231 -0.5800  1.8445
 2449TIP3   OH228761   6.107   5.719  15.443  0.7534 -0.2072 -0.1182
 2449TIP3    H128762   6.077   5.734  15.354 -0.8762  3.0569  0.7939
 2449TIP3    H228763   6.201   5.736  15.441  0.4720  1.4031 -0.9656
 2450TIP3   OH228764   3.738   5.819   3.949  0.0899  0.1979  0.6984
 2450TIP3    H128765   3.817   5.847   3.903 -0.1575 -1.1649 -0.6625
 2450TIP3    H228766   3.666   5.852   3.896 -0.2531  0.6720  1.4443
 2451TIP3   OH228767   1.876   4.413   1.476  0.0226 -0.1770  0.2247
 2451TIP3    H128768   1.938   4.355   1.432 -0.5344 -0.5456 -0.0736
 2451TIP3    H228769   1.908   4.501   1.456  1.0200 -0.3687  0.8947
 2452TIP3   OH228770   5.869   5.807  15.981 -0.1706 -0.2690 -0.3001
 2452TIP3    H128771   5.795   5.867  15.981  0.6168  0.7435  0.6445
 2452TIP3    H228772   5.841   5.734  16.037 -0.6298 -0.1142 -0.3273
 2453TIP3   OH228773   1.329   3.528   1.481 -0.0617 -0.6552  0.2273
 2453TIP3    H128774   1.395   3.532   1.412  0.6255  3.6219  0.8054
 2453TIP3    H228775   1.298   3.618   1.489 -3.4161 -1.8241  2.4650
 2454TIP3   OH228776   1.305   0.564   4.602 -0.5923  0.6991  0.0047
 2454TIP3    H128777   1.240   0.607   4.546  0.2241 -0.8783 -2.2453
 2454TIP3    H228778   1.382   0.554   4.548 -0.2837 -2.3588  0.8207
 2455TIP3   OH228779   6.639   6.035   2.728  0.3627 -0.6627 -0.2225
 2455TIP3    H128780   6.686   6.021   2.810  1.7302 -0.2953 -0.9172
 2455TIP3    H228781   6.649   6.129   2.710  0.7206 -0.8680 -1.1695
 2456TIP3   OH228782   1.221   2.856   2.303 -0.0410 -0.1739 -0.0610
 2456TIP3    H128783   1.307   2.820   2.283  1.1470  1.6993  1.4127
 2456TIP3    H228784   1.218   2.939   2.255 -0.2002  0.7144  1.4242
 2457TIP3   OH228785   4.092   4.739   1.151 -0.4897  0.1463 -0.6392
 2457TIP3    H128786   4.033   4.676   1.110 -1.5051  1.8022 -1.8617
 2457TIP3    H228787   4.172   4.735   1.099 -0.2174 -0.7041 -0.1807
 2458TIP3   OH228788   4.952   1.022  14.944 -0.0152  0.5655  0.5056
 2458TIP3    H128789   4.858   1.018  14.957 -0.0461 -1.3073  0.0058
 2458TIP3    H228790   4.962   1.062  14.857 -0.4311 -0.3460  0.0172
 2459TIP3   OH228791   1.754   2.609  15.469  0.4371  0.0202  0.2752
 2459TIP3    H128792   1.741   2.655  15.552 -1.3630  0.5185 -0.2405
 2459TIP3    H228793   1.794   2.675  15.412  1.0886 -0.1299  0.5543
 2460TIP3   OH228794   1.545   0.600   2.507  0.2297  0.1987  0.3177
 2460TIP3    H128795   1.527   0.618   2.415 -0.1496  2.3430  0.7725
 2460TIP3    H228796   1.601   0.522   2.505 -0.8828 -0.6247 -1.6235
 2461TIP3   OH228797   5.867   6.476  12.776  0.2101 -0.1934  0.7530
 2461TIP3    H128798   5.913   6.453  12.857 -1.4257 -2.9147  1.0586
 2461TIP3    H228799   5.781   6.435  12.785  0.3259 -1.5601 -2.7686
 2462TIP3   OH228800   3.823   1.503  12.205  0.3647  0.2888 -0.0334
 2462TIP3    H128801   3.917   1.516  12.215  0.6443 -1.5821  0.1511
 2462TIP3    H228802   3.785   1.590  12.212  2.1171  1.1178 -0.4887
 2463TIP3   OH228803   2.041   3.610   5.210 -0.4477  0.3719  0.4919
 2463TIP3    H128804   1.983   3.600   5.286 -0.7405 -1.1119  0.1052
 2463TIP3    H228805   2.106   3.674   5.238 -0.3391 -0.3972  2.1391
 2464TIP3   OH228806   6.015   3.125   1.348 -0.2970  0.0874 -0.0121
 2464TIP3    H128807   5.971   3.117   1.263 -0.4183 -0.8098  0.1223
 2464TIP3    H228808   5.986   3.210   1.382 -2.9591 -0.9577  0.6299
 2465TIP3   OH228809   0.684   3.707  13.667  0.3915 -0.8666 -0.1511
 2465TIP3    H128810   0.616   3.646  13.694 -2.9551  1.9855 -1.3677
 2465TIP3    H228811   0.686   3.773  13.736  0.8601 -0.1480 -0.8283
 2466TIP3   OH228812   5.351   0.491  11.422 -0.9163  0.3412 -0.5075
 2466TIP3    H128813   5.277   0.446  11.462 -0.7611 -0.6005 -1.2258
 2466TIP3    H228814   5.385   0.428  11.358  1.6798 -0.0579  1.0972
 2467TIP3   OH228815   3.905   5.507  14.453  0.5055  0.5095  0.0679
 2467TIP3    H128816   3.940   5.572  14.514  0.2087  0.9273 -0.1999
 2467TIP3    H228817   3.830   5.551  14.412 -0.7711 -0.6015  1.1291
 2468TIP3   OH228818   5.004   0.360  14.697 -0.1606  0.4685  0.4333
 2468TIP3    H128819   5.070   0.386  14.633  1.1727 -1.0538  1.1048
 2468TIP3    H228820   5.020   0.416  14.773 -1.0868  1.5793 -0.1606
 2469TIP3   OH228821   6.297   3.152  13.493 -0.5644 -0.5415  0.1341
 2469TIP3    H128822   6.221   3.098  13.514 -0.4855 -0.1431  1.5280
 2469TIP3    H228823   6.294   3.224  13.556 -0.8615  1.3285 -1.9046
 2470TIP3   OH228824   5.735   5.472   3.645  0.0788  0.2449  0.5155
 2470TIP3    H128825   5.691   5.530   3.707 -0.5334 -0.7326  1.0433
 2470TIP3    H228826   5.747   5.390   3.694 -1.2249 -0.8646 -0.9159
 2471TIP3   OH228827   2.420   6.364  13.298 -0.8363  0.1477  0.0349
 2471TIP3    H128828   2.467   6.443  13.271 -0.0775 -0.0125  0.8600
 2471TIP3    H228829   2.357   6.395  13.362 -1.8117  0.3449 -0.9870
 2472TIP3   OH228830   6.435   3.015   2.426 -0.4184  0.0476  0.0389
 2472TIP3    H128831   6.389   3.021   2.510  0.1863 -0.6367  0.4269
 2472TIP3    H228832   6.489   2.937   2.433  0.3090  0.4662 -0.6628
 2473TIP3   OH228833   6.277   6.127   2.520  0.2005 -0.5429 -0.4851
 2473TIP3    H128834   6.286   6.139   2.614  1.5035 -1.0310 -0.5420
 2473TIP3    H228835   6.365   6.139   2.485 -0.4960  1.1499 -1.8287
 2474TIP3   OH228836   3.761   4.929   3.474  0.5063 -0.1821  0.1084
 2474TIP3    H128837   3.782   4.838   3.455  1.1698 -0.3209  1.3830
 2474TIP3    H228838   3.687   4.924   3.534 -0.4100  0.1832 -0.9552
 2475TIP3   OH228839   2.403   5.958   5.759  0.1195  0.3070  0.0869
 2475TIP3    H128840   2.313   5.932   5.743  0.2667 -0.1887  0.0426
 2475TIP3    H228841   2.397   6.026   5.826 -0.2871  0.2973  0.0609
 2476TIP3   OH228842   5.934   5.609   1.374 -0.6007 -0.3189 -0.0756
 2476TIP3    H128843   5.968   5.589   1.461 -1.0786 -1.4208 -0.1262
 2476TIP3    H228844   5.862   5.547   1.361 -0.4231 -0.2921 -1.3280
 2477TIP3   OH228845   2.823   2.551  13.433 -0.1429 -0.0301 -0.3662
 2477TIP3    H128846   2.768   2.572  13.357 -0.0911  1.0776 -0.1005
 2477TIP3    H228847   2.798   2.461  13.454 -0.6830 -0.1089 -1.2460
 2478TIP3   OH228848   0.914   6.756   4.060 -0.0626  0.0718  0.3892
 2478TIP3    H128849   0.905   6.844   4.025  0.5861 -0.1937 -0.4785
 2478TIP3    H228850   0.967   6.766   4.139  0.7156  0.3648 -0.1654
 2479TIP3   OH228851   3.187   6.434  16.207 -0.4908 -0.0633 -0.2186
 2479TIP3    H128852   3.269   6.391  16.185 -1.1253 -0.6735 -1.4888
 2479TIP3    H228853   3.119   6.375  16.174 -1.4362  0.7005  0.2950
 2480TIP3   OH228854   3.533   1.152  12.198  0.4592 -0.2059  0.1379
 2480TIP3    H128855   3.511   1.098  12.122 -0.5868  0.8809 -0.3645
 2480TIP3    H228856   3.612   1.200  12.171  0.8181 -0.7449  0.2191
 2481TIP3   OH228857   4.753   6.404   0.476  0.1605  0.0655  0.1617
 2481TIP3    H128858   4.713   6.335   0.423 -0.0168  0.7487 -0.6214
 2481TIP3    H228859   4.682   6.435   0.533  0.4757 -1.0023  1.1887
 2482TIP3   OH228860   5.816   1.472   4.567 -0.3289  0.4093 -0.4445
 2482TIP3    H128861   5.848   1.562   4.568  1.7900 -0.2512 -1.4527
 2482TIP3    H228862   5.790   1.455   4.657  0.3252  1.6920  0.0168
 2483TIP3   OH228863   6.527   6.244   4.428 -0.0344  0.5861  0.2986
 2483TIP3    H128864   6.590   6.218   4.495 -0.6972 -0.5758  0.4968
 2483TIP3    H228865   6.581   6.268   4.352  0.6466 -1.0093  0.2410
 2484TIP3   OH228866   4.662   5.465  13.842  0.2051 -0.3726 -0.5623
 2484TIP3    H128867   4.634   5.549  13.807 -2.9971 -1.2856 -0.5568
 2484TIP3    H228868   4.647   5.403  13.771  0.4987 -1.2245  0.1017
 2485TIP3   OH228869   5.668   3.307  15.117  0.1394  0.2999 -1.0308
 2485TIP3    H128870   5.738   3.275  15.060 -0.5485 -0.0583 -1.6888
 2485TIP3    H228871   5.641   3.391  15.078 -0.4939 -0.0603 -1.3802
 2486TIP3   OH228872   1.101   3.765   0.550  0.1590 -0.0943 -0.3085
 2486TIP3    H128873   1.088   3.804   0.463  1.1768  1.1874  0.0863
 2486TIP3    H228874   1.117   3.840   0.608  0.3095 -0.9863  0.8418
 2487TIP3   OH228875   5.114   4.631  13.074  0.1587 -0.0090  0.3290
 2487TIP3    H128876   5.187   4.676  13.116 -1.0856 -0.2907  3.0095
 2487TIP3    H228877   5.110   4.668  12.985  2.7129  0.9060  0.5240
 2488TIP3   OH228878   1.090   3.719  14.019  0.2237 -0.1303  0.0062
 2488TIP3    H128879   0.994   3.729  14.016  0.2589  0.1879 -0.0642
 2488TIP3    H228880   1.124   3.807  14.005  0.5720 -0.5605 -2.3777
 2489TIP3   OH228881   3.795   1.893   0.598 -0.3142 -0.3991  0.2815
 2489TIP3    H128882   3.699   1.895   0.602 -0.3555 -1.4515  0.2292
 2489TIP3    H228883   3.821   1.984   0.592 -1.4052 -0.1620 -1.6838
 2490TIP3   OH228884   6.030   0.980  12.720  0.1911  0.3211  0.4489
 2490TIP3    H128885   5.977   1.004  12.796  0.5788  0.6450  0.6266
 2490TIP3    H228886   6.002   1.040  12.651 -1.4253 -1.1337 -0.2264
 2491TIP3   OH228887   3.883   4.933   0.007 -0.0851 -0.4905 -0.5193
 2491TIP3    H128888   3.950   4.991   0.044 -1.0390 -0.7534  1.8011
 2491TIP3    H228889   3.923   4.846   0.007  0.3511 -0.2954 -1.3009
 2492TIP3   OH228890   4.273   5.835   0.519 -0.2586 -0.3091 -0.0139
 2492TIP3    H128891   4.224   5.915   0.541  0.4296 -0.1534  1.0209
 2492TIP3    H228892   4.206   5.775   0.486 -0.7620  0.7410 -0.9692
 2493TIP3   OH228893   5.373   0.520  16.222  0.5778  0.3151  0.3609
 2493TIP3    H128894   5.463   0.550  16.209  0.4047 -0.0035 -1.9660
 2493TIP3    H228895   5.371   0.432  16.183 -0.1613 -0.7507  2.6078
 2494TIP3   OH228896   4.620   3.813  15.022  0.4693  0.3004  0.4011
 2494TIP3    H128897   4.698   3.850  15.064  0.0728  1.6375 -0.0041
 2494TIP3    H228898   4.583   3.754  15.088  2.3455 -1.1595  0.2537
 2495TIP3   OH228899   2.695   3.622   4.345  0.1521 -0.4171  0.1582
 2495TIP3    H128900   2.605   3.652   4.355  0.3739  0.2876  0.0482
 2495TIP3    H228901   2.746   3.680   4.401  0.4940 -1.0717  0.5422
 2496TIP3   OH228902   0.894   1.913  12.559 -0.1331 -0.1998 -0.4850
 2496TIP3    H128903   0.839   1.862  12.617  0.7391 -0.1534  0.4138
 2496TIP3    H228904   0.871   1.884  12.471 -0.4450 -1.3234 -0.0434
 2497TIP3   OH228905   0.234   0.985  14.008 -0.3233  0.5213  0.4728
 2497TIP3    H128906   0.290   0.908  14.011  0.6180  1.2147  1.3805
 2497TIP3    H228907   0.219   1.007  14.100  1.3945  2.7993  0.2943
 2498TIP3   OH228908   3.747   2.434   2.463 -0.0991  0.2393  0.0170
 2498TIP3    H128909   3.668   2.380   2.460  0.0914  0.0214 -2.2073
 2498TIP3    H228910   3.716   2.522   2.482 -0.9310  0.2084 -1.1334
 2499TIP3   OH228911   0.985   0.681   3.726  0.5941  0.2270 -0.5138
 2499TIP3    H128912   1.042   0.728   3.787 -0.7895 -0.0938  1.1030
 2499TIP3    H228913   1.045   0.636   3.666  1.9793  1.2905  0.0285
 2500TIP3   OH228914   4.367   4.719  16.713  0.3035  0.1066 -0.3906
 2500TIP3    H128915   4.433   4.675  16.766 -1.1292 -1.7095 -0.0258
 2500TIP3    H228916   4.404   4.718  16.624  0.3767 -1.8585 -0.3938
 2501TIP3   OH228917   2.240   1.083  16.324  0.3174  0.4926 -0.3717
 2501TIP3    H128918   2.179   1.111  16.255  0.5367 -1.4156 -1.3963
 2501TIP3    H228919   2.187   1.031  16.384  0.4680  0.7868  0.0186
 2502TIP3   OH228920   1.387   0.782  13.264 -0.2053  0.5110 -0.1189
 2502TIP3    H128921   1.403   0.696  13.224 -1.5034 -0.1594  0.7026
 2502TIP3    H228922   1.291   0.791  13.261 -0.0560  2.1174 -0.5449
 2503TIP3   OH228923   5.220   5.360  11.857  0.0995 -0.5374  0.2953
 2503TIP3    H128924   5.165   5.349  11.934 -1.7513 -0.3933 -0.9392
 2503TIP3    H228925   5.161   5.346  11.783  1.6911 -0.1749 -1.1135
 2504TIP3   OH228926   3.590   0.162   5.481  0.3010  0.3370  0.3933
 2504TIP3    H128927   3.515   0.200   5.527  0.6256  1.5379 -0.0124
 2504TIP3    H228928   3.650   0.236   5.470  1.5324 -0.5980  0.6834
 2505TIP3   OH228929   6.009   5.596  12.276 -0.7432  0.6148 -0.0125
 2505TIP3    H128930   6.006   5.570  12.184  0.8952 -1.4970  0.4496
 2505TIP3    H228931   5.964   5.526  12.323 -0.0917  0.7890  0.9161
 2506TIP3   OH228932   2.886   5.402   4.688 -0.7942  0.1639  0.4777
 2506TIP3    H128933   2.891   5.489   4.728  0.0664 -0.1773  1.1321
 2506TIP3    H228934   2.965   5.393   4.636 -0.7449 -0.3312  0.6257
 2507TIP3   OH228935   5.385   5.511  14.121 -0.0647  0.1781 -0.5002
 2507TIP3    H128936   5.370   5.603  14.144  0.8118 -0.5181  3.7483
 2507TIP3    H228937   5.297   5.476  14.104 -0.6191  1.3880 -0.2399
 2508TIP3   OH228938   4.218   6.020   1.618 -0.1798  0.1703 -0.3317
 2508TIP3    H128939   4.299   6.055   1.580 -0.8941  0.2966 -1.8163
 2508TIP3    H228940   4.221   5.927   1.600 -1.3824  0.4891 -2.4716
 2509TIP3   OH228941   1.173   4.410   3.573 -0.5767  0.4279  0.5825
 2509TIP3    H128942   1.223   4.421   3.492  0.5349  0.4462  1.2543
 2509TIP3    H228943   1.121   4.490   3.580 -0.1800  0.7227  0.2263
 2510TIP3   OH228944   4.730   2.652   5.528  0.1326  0.5243 -0.1542
 2510TIP3    H128945   4.695   2.571   5.567  1.3174 -0.0428 -0.2209
 2510TIP3    H228946   4.687   2.658   5.443 -0.4028  0.2779  0.0958
 2511TIP3   OH228947   0.801   6.339   3.097  0.0366 -0.8898  0.2300
 2511TIP3    H128948   0.766   6.326   3.186 -0.9338  1.0692  0.1928
 2511TIP3    H228949   0.866   6.269   3.086  1.1291 -0.4283  2.9626
 2512TIP3   OH228950   0.107   4.751  15.237 -0.0435 -0.3726 -0.6052
 2512TIP3    H128951   0.175   4.693  15.270  0.1319 -0.0383 -0.3767
 2512TIP3    H228952   0.037   4.746  15.303  0.0768 -0.1319 -0.4573
 2513TIP3   OH228953   0.963   6.160   0.848  0.0606 -0.0866  0.5811
 2513TIP3    H128954   0.895   6.151   0.781  0.2775 -0.2936  0.3856
 2513TIP3    H228955   1.007   6.075   0.848  1.5244  0.6257 -0.6120
 2514TIP3   OH228956   4.335   4.445  12.097 -0.6008  0.0464  0.4130
 2514TIP3    H128957   4.391   4.483  12.029 -0.1288  0.5286  1.0610
 2514TIP3    H228958   4.259   4.410  12.049 -1.0899  1.8493 -0.1954
 2515TIP3   OH228959   1.808   2.108  13.064  0.0388  0.6750  0.5524
 2515TIP3    H128960   1.731   2.055  13.043  0.1206  0.5844  0.4822
 2515TIP3    H228961   1.780   2.198  13.048 -0.0030  0.6303  0.3763
 2516TIP3   OH228962   4.584   0.966   0.054 -0.0598  0.3567 -0.6268
 2516TIP3    H128963   4.569   0.948   0.146  0.8767  0.0491 -0.5218
 2516TIP3    H228964   4.661   0.913   0.031 -0.4131  0.2524 -1.6376
 2517TIP3   OH228965   1.694   2.230   1.939 -0.4954 -0.3782 -0.0124
 2517TIP3    H128966   1.736   2.238   2.025 -3.6078  0.6238  1.5567
 2517TIP3    H228967   1.629   2.161   1.949 -0.0423 -1.1895 -2.0307
 2518TIP3   OH228968   4.404   6.057   0.809 -0.3105  0.5347 -1.1214
 2518TIP3    H128969   4.395   6.152   0.823  1.1783  0.6390 -0.6686
 2518TIP3    H228970   4.481   6.048   0.753  0.3687 -0.4560 -0.0711
 2519TIP3   OH228971   0.698   4.835  13.500  0.0527 -0.1271  0.3654
 2519TIP3    H128972   0.672   4.895  13.430 -0.6576 -1.1453 -0.2655
 2519TIP3    H228973   0.725   4.755  13.455  1.1662 -0.2415  1.1868
 2520TIP3   OH228974   6.270   3.820   6.480 -0.4677  0.6248  0.3510
 2520TIP3    H128975   6.342   3.861   6.528  1.3088 -2.6273  0.7310
 2520TIP3    H228976   6.191   3.853   6.523  0.8826  2.0431  1.8783
 2521TIP3   OH228977   3.124   5.028   4.523 -0.0302 -0.7382 -0.5085
 2521TIP3    H128978   3.210   5.054   4.558  0.5142 -3.0335 -0.0027
 2521TIP3    H228979   3.074   5.003   4.601 -1.8124  2.0328 -0.5992
 2522TIP3   OH228980   4.454   6.777   6.058  0.3973  0.2388  0.2117
 2522TIP3    H128981   4.536   6.733   6.082 -0.6276 -1.8355  0.1725
 2522TIP3    H228982   4.397   6.706   6.029 -2.0985  1.3294  2.0628
 2523TIP3   OH228983   4.405   1.542  12.947  0.0412  0.1577  0.0257
 2523TIP3    H128984   4.326   1.564  12.897 -0.5584 -0.5721  0.6215
 2523TIP3    H228985   4.373   1.487  13.018  0.9464  0.7571  0.9219
 2524TIP3   OH228986   3.209   3.852  15.144  0.4247  0.2300  0.2791
 2524TIP3    H128987   3.196   3.945  15.161  1.7114  0.1554  1.8394
 2524TIP3    H228988   3.179   3.808  15.224  2.1940 -0.4959  0.5859
 2525TIP3   OH228989   3.391   6.472   6.444 -0.4956 -0.0361  0.6450
 2525TIP3    H128990   3.431   6.451   6.360  0.7022  0.7646  0.9885
 2525TIP3    H228991   3.448   6.432   6.509 -1.4776 -0.7449  1.0884
 2526TIP3   OH228992   0.753   3.256  14.037  0.3469 -0.2962  0.0707
 2526TIP3    H128993   0.727   3.181  13.984 -0.6823 -0.3700  0.6683
 2526TIP3    H228994   0.826   3.296  13.988 -0.5504 -0.3752 -1.3769
 2527TIP3   OH228995   1.408   1.568   5.765  0.1827 -1.2431  0.0235
 2527TIP3    H128996   1.471   1.608   5.825 -1.2220  0.8378  0.1926
 2527TIP3    H228997   1.335   1.630   5.760 -0.7109 -2.3274 -2.2007
 2528TIP3   OH228998   6.619   4.303  13.214 -0.4003  0.4278 -0.3624
 2528TIP3    H128999   6.644   4.375  13.157 -0.9389 -0.1249 -1.3268
 2528TIP3    H229000   6.702   4.267  13.245 -0.0210 -0.0975 -1.8810
 2529TIP3   OH229001   4.752   5.939  13.429 -0.4749 -0.1934  0.0062
 2529TIP3    H129002   4.712   5.873  13.371 -0.0738 -0.9910  0.6121
 2529TIP3    H229003   4.805   5.887  13.489 -0.8516  0.6256  1.0561
 2530TIP3   OH229004   6.260   4.466   4.788  0.2338  0.1992  0.1669
 2530TIP3    H129005   6.198   4.538   4.777  0.7061  0.4969 -0.6156
 2530TIP3    H229006   6.231   4.421   4.868 -2.0474 -0.7290 -1.0897
 2531TIP3   OH229007   3.774   5.291  12.283  0.2123  0.2706  0.3476
 2531TIP3    H129008   3.851   5.349  12.287  0.6068 -0.2872  2.8463
 2531TIP3    H229009   3.735   5.298  12.370 -2.4438  0.2922 -0.7649
 2532TIP3   OH229010   1.154   0.495   4.024  0.1867 -0.1447 -0.5570
 2532TIP3    H129011   1.247   0.472   4.033  0.4518  1.2983  0.6949
 2532TIP3    H229012   1.145   0.521   3.932  0.8897 -0.8080 -0.8235
 2533TIP3   OH229013   1.085   2.944   0.787 -0.0760  0.1454  0.3253
 2533TIP3    H129014   1.117   2.974   0.872 -1.7652  0.1494  0.9985
 2533TIP3    H229015   1.030   2.868   0.808 -0.5076  0.1424 -0.7630
 2534TIP3   OH229016   2.760   4.372  14.978 -0.2888  0.1228 -0.2585
 2534TIP3    H129017   2.839   4.425  14.967 -1.5154  1.9731 -0.5139
 2534TIP3    H229018   2.788   4.300  15.035  1.4603  0.9859  0.0533
 2535TIP3   OH229019   5.442   6.236   5.865 -0.1995  0.0343 -0.0431
 2535TIP3    H129020   5.485   6.245   5.950  0.9358 -1.0281 -0.4674
 2535TIP3    H229021   5.510   6.257   5.802 -0.9602  0.5473 -0.6990
 2536TIP3   OH229022   6.117   5.631   2.118 -0.0326 -0.0794 -0.6771
 2536TIP3    H129023   6.148   5.598   2.034 -1.0608 -1.0030 -0.7109
 2536TIP3    H229024   6.197   5.644   2.170  0.4903 -1.2374 -1.1776
 2537TIP3   OH229025   1.900   4.751   0.175 -0.4671  0.0488  0.2728
 2537TIP3    H129026   1.836   4.681   0.170 -1.1124  0.3802  2.6796
 2537TIP3    H229027   1.863   4.822   0.124 -0.4646 -0.8498 -1.0157
 2538TIP3   OH229028   3.391   5.944   1.673 -0.4718  0.0834  0.3581
 2538TIP3    H129029   3.338   5.940   1.753 -0.5682 -0.2154  0.2770
 2538TIP3    H229030   3.347   6.009   1.619 -0.6643 -0.0484  0.3572
 2539TIP3   OH229031   1.598   0.272  15.776  0.6421  0.3672  0.3833
 2539TIP3    H129032   1.576   0.186  15.741  0.8191 -0.1730  1.5536
 2539TIP3    H229033   1.538   0.332  15.731 -1.5183 -0.7382  1.6163
 2540TIP3   OH229034   5.864   0.009   3.663 -0.2467  0.2959 -0.4038
 2540TIP3    H129035   5.775   0.004   3.628  0.3691  0.0638 -1.9970
 2540TIP3    H229036   5.907   0.077   3.611  0.9813 -0.7160 -0.7651
 2541TIP3   OH229037   1.611   3.398  11.723  0.3353 -0.6986  0.2687
 2541TIP3    H129038   1.646   3.410  11.812  2.0448 -2.9156 -0.0288
 2541TIP3    H229039   1.517   3.413  11.733  0.9027  3.4524  1.5097
 2542TIP3   OH229040   1.150   1.784   3.006 -0.0977 -0.2505 -0.6169
 2542TIP3    H129041   1.205   1.773   3.084 -2.6242 -1.1111  1.1845
 2542TIP3    H229042   1.124   1.876   3.008 -1.1419 -0.5535  0.2979
 2543TIP3   OH229043   1.643   5.820   4.603 -0.0623  0.3624  0.0208
 2543TIP3    H129044   1.659   5.731   4.632  1.4120  0.3592 -0.7300
 2543TIP3    H229045   1.548   5.831   4.612 -0.3264 -1.3956 -0.2375
 2544TIP3   OH229046   3.354   4.587   6.120 -0.2159  0.0003 -0.1201
 2544TIP3    H129047   3.421   4.609   6.185 -0.3075  0.3813 -0.1467
 2544TIP3    H229048   3.306   4.514   6.158 -0.7691  0.7125  0.6105
 2545TIP3   OH229049   2.486   4.389  16.886  0.3326  0.2369 -0.1297
 2545TIP3    H129050   2.465   4.297  16.902 -0.2089 -0.0223 -2.1230
 2545TIP3    H229051   2.581   4.390  16.871 -0.1442 -0.7613 -4.2294
 2546TIP3   OH229052   4.459   6.314  11.328  0.4898 -0.1197  0.0537
 2546TIP3    H129053   4.445   6.220  11.313 -1.2535  0.1115  0.0935
 2546TIP3    H229054   4.529   6.317  11.393  0.0246 -1.4230  0.6555
 2547TIP3   OH229055   2.103   1.200   4.875 -0.2816 -0.2521  0.4031
 2547TIP3    H129056   2.077   1.292   4.869 -0.0857 -0.2830 -1.4502
 2547TIP3    H229057   2.055   1.167   4.952  0.5220  1.6372  1.7919
 2548TIP3   OH229058   6.036   6.176  12.949  0.2909  0.0111 -0.0961
 2548TIP3    H129059   6.053   6.223  12.867  0.0147 -1.3627 -0.9714
 2548TIP3    H229060   6.026   6.245  13.015  2.1247  1.1087 -0.8861
 2549TIP3   OH229061   5.817   0.226  15.670 -0.5972 -0.0315  1.2183
 2549TIP3    H129062   5.809   0.292  15.600 -2.0833 -1.1641  0.2663
 2549TIP3    H229063   5.893   0.255  15.720 -0.6458  1.9083  0.2991
 2550TIP3   OH229064   6.227   6.534  16.972  0.2569 -0.1862 -0.2443
 2550TIP3    H129065   6.167   6.511  16.902  0.8035 -1.0655 -0.4304
 2550TIP3    H229066   6.295   6.586  16.929  0.4705 -0.5302 -0.3178
 2551TIP3   OH229067   3.252   1.720  16.815  0.5500  0.5214 -0.3132
 2551TIP3    H129068   3.227   1.688  16.902  0.2933 -2.9776 -1.4910
 2551TIP3    H229069   3.173   1.709  16.762  0.8575  2.0614 -1.1484
 2552TIP3   OH229070   1.398   4.462  16.223 -0.0490 -0.1347 -0.0028
 2552TIP3    H129071   1.337   4.527  16.259 -0.9678 -0.8116 -0.2986
 2552TIP3    H229072   1.448   4.510  16.157 -0.8023  0.2528 -0.3076
 2553TIP3   OH229073   2.662   5.988   2.137 -0.1930 -0.0143  0.1658
 2553TIP3    H129074   2.627   5.899   2.141  2.3321 -1.0935  0.2065
 2553TIP3    H229075   2.594   6.043   2.176 -0.8065 -2.2508  2.4444
 2554TIP3   OH229076   4.703   0.556  11.264 -0.9200  0.7400 -0.0998
 2554TIP3    H129077   4.698   0.593  11.352 -1.0182  2.5312 -0.8261
 2554TIP3    H229078   4.704   0.632  11.205 -1.8392 -0.4263 -1.7087
 2555TIP3   OH229079   2.292   4.103   5.006 -0.4737 -0.2329 -0.1191
 2555TIP3    H129080   2.271   4.163   4.935 -0.6035 -0.6718 -0.4597
 2555TIP3    H229081   2.297   4.158   5.084  0.8955  0.4418 -0.6585
 2556TIP3   OH229082   2.099   0.493  15.020 -0.8721 -0.5106 -0.1364
 2556TIP3    H129083   2.176   0.517  15.071  0.7415 -0.3343 -2.5131
 2556TIP3    H229084   2.053   0.576  15.004 -0.1779 -0.2406 -0.7833
 2557TIP3   OH229085   5.014   5.184   1.146  0.2641 -0.0288  0.1026
 2557TIP3    H129086   5.014   5.223   1.233  0.2343 -0.2237  0.1906
 2557TIP3    H229087   4.925   5.150   1.135  0.4369 -0.5453  0.2420
 2558TIP3   OH229088   4.338   2.605  16.628 -0.0249  0.4328  0.4362
 2558TIP3    H129089   4.356   2.691  16.668 -1.1354 -0.2339  2.5138
 2558TIP3    H229090   4.344   2.543  16.700 -1.1517 -1.0017 -0.6341
 2559TIP3   OH229091   0.660   4.193   2.905  0.1011  0.6771 -0.1149
 2559TIP3    H129092   0.589   4.130   2.893  1.0040 -1.0456  2.5697
 2559TIP3    H229093   0.729   4.164   2.846  0.0647 -0.1332  0.2349
 2560TIP3   OH229094   2.918   5.479  12.551 -0.2589  0.7592  0.6777
 2560TIP3    H129095   2.913   5.508  12.460 -1.9613  2.3084  1.1944
 2560TIP3    H229096   2.926   5.560  12.602  2.5476 -0.1468  1.8776
 2561TIP3   OH229097   6.083   5.398  16.057  0.1252  0.9555  0.5339
 2561TIP3    H129098   6.146   5.363  15.994 -0.3858 -0.5499  0.8252
 2561TIP3    H229099   6.041   5.471  16.011 -0.4547 -0.3033 -0.9946
 2562TIP3   OH229100   5.867   6.048  15.598  0.3944 -0.3675  0.0798
 2562TIP3    H129101   5.957   6.036  15.627  0.0955 -2.3601  0.3492
 2562TIP3    H229102   5.829   5.960  15.603 -0.5762 -0.2807 -3.3116
 2563TIP3   OH229103   5.066   0.352   5.563 -0.4871 -0.2425  0.0616
 2563TIP3    H129104   5.049   0.273   5.616  0.2410 -1.7912 -1.8861
 2563TIP3    H229105   4.984   0.366   5.516  0.4221 -2.0869 -2.2824
 2564TIP3   OH229106   3.948   3.686   0.745  0.2428  0.5065 -0.2645
 2564TIP3    H129107   3.994   3.750   0.799 -0.5911  0.9833 -0.0879
 2564TIP3    H229108   3.878   3.653   0.802  2.0235 -2.3400  0.4818
 2565TIP3   OH229109   4.718   0.686   4.448 -0.8390  0.0335 -0.1990
 2565TIP3    H129110   4.677   0.647   4.526  1.0327 -2.5428 -0.3474
 2565TIP3    H229111   4.795   0.731   4.482  1.7046 -3.5586 -0.5266
 2566TIP3   OH229112   4.636   4.863  11.985 -0.2598  0.0229 -0.4465
 2566TIP3    H129113   4.581   4.896  11.914  0.0922 -0.4967 -0.9725
 2566TIP3    H229114   4.621   4.769  11.985  0.5151 -0.1042 -0.4988
 2567TIP3   OH229115   5.461   4.014  14.216 -0.9983 -0.5332  0.0642
 2567TIP3    H129116   5.548   4.052  14.205 -0.2978 -1.8699  0.7598
 2567TIP3    H229117   5.444   4.018  14.310 -1.4378 -0.8119  0.0019
 2568TIP3   OH229118   6.768   0.299  12.158 -0.1069  0.5851  0.1849
 2568TIP3    H129119   6.794   0.386  12.189 -0.7501  0.1320  2.1306
 2568TIP3    H229120   6.811   0.238  12.217 -0.6058 -0.3923 -0.4315
 2569TIP3   OH229121   3.221   4.120   0.125 -0.1325  1.0841  0.4107
 2569TIP3    H129122   3.248   4.190   0.065  0.4670 -0.1130 -0.7760
 2569TIP3    H229123   3.303   4.079   0.153 -0.5100  0.2429  0.3138
 2570TIP3   OH229124   1.562   0.313  13.964  0.0811 -0.1795  0.5494
 2570TIP3    H129125   1.504   0.331  13.890 -0.7751  0.6284  1.3824
 2570TIP3    H229126   1.512   0.342  14.041  0.1271 -2.8168  1.6756
 2571TIP3   OH229127   3.821   3.360  13.618  0.5711  0.0681  0.1146
 2571TIP3    H129128   3.769   3.421  13.566 -1.5269 -1.5801  0.1321
 2571TIP3    H229129   3.883   3.415  13.665 -1.3557  2.2262  0.3118
 2572TIP3   OH229130   5.194   1.740   1.531 -0.0585 -0.5967 -0.5293
 2572TIP3    H129131   5.149   1.699   1.458  1.1583 -1.1028 -1.0078
 2572TIP3    H229132   5.233   1.819   1.494 -3.0933  1.6131  0.5498
 2573TIP3   OH229133   4.825   0.981   2.879 -0.6388 -0.1483  0.3164
 2573TIP3    H129134   4.730   0.990   2.884 -0.6816 -0.0879 -0.4913
 2573TIP3    H229135   4.858   1.071   2.881 -0.6850 -0.0954 -0.8360
 2574TIP3   OH229136   6.193   1.142   5.361  0.1708  0.4341  0.6792
 2574TIP3    H129137   6.229   1.215   5.412  1.7830 -1.2274  2.0255
 2574TIP3    H229138   6.158   1.082   5.426 -0.6808 -0.2624 -0.3841
 2575TIP3   OH229139   6.055   4.474  11.017  0.2288 -0.0948 -0.2373
 2575TIP3    H129140   6.118   4.459  10.947 -2.3137  0.5104 -2.8174
 2575TIP3    H229141   6.008   4.391  11.025  0.8609 -0.3501  1.2492
 2576TIP3   OH229142   2.355   1.011   5.752  0.3173  0.6087 -0.5812
 2576TIP3    H129143   2.262   1.030   5.742  0.2460 -0.0602 -1.2670
 2576TIP3    H229144   2.398   1.064   5.686  0.3631  0.4220 -0.7016
 2577TIP3   OH229145   0.889   6.130   2.721  0.2514  0.2190  0.1571
 2577TIP3    H129146   0.815   6.070   2.706 -1.1958  2.2297 -1.3136
 2577TIP3    H229147   0.959   6.096   2.666  0.3798 -1.5582  1.3424
 2578TIP3   OH229148   6.284   2.112  13.015 -0.0510  0.0219 -0.5746
 2578TIP3    H129149   6.299   2.019  13.032 -0.1964 -0.2656 -1.9000
 2578TIP3    H229150   6.279   2.152  13.102 -0.1313 -1.2282  0.0180
 2579TIP3   OH229151   2.071   0.947  15.817  0.0197 -0.5801  0.1346
 2579TIP3    H129152   2.095   0.903  15.899  1.3512 -0.0911  0.0239
 2579TIP3    H229153   2.049   0.875  15.757  1.5633 -1.0896  0.1493
 2580TIP3   OH229154   1.221   3.749   3.027 -0.1601  0.6961 -0.5881
 2580TIP3    H129155   1.229   3.791   3.113 -1.2752 -0.9129  0.3620
 2580TIP3    H229156   1.192   3.819   2.969 -1.3482  1.4085  0.7996
 2581TIP3   OH229157   6.261   0.228   5.603  0.2913 -0.2479  0.1776
 2581TIP3    H129158   6.336   0.175   5.578 -0.6816 -1.2270 -0.7683
 2581TIP3    H229159   6.187   0.168   5.599 -0.3555  0.2830  2.6746
 2582TIP3   OH229160   2.818   1.246   0.423  0.8592  0.0056 -0.1443
 2582TIP3    H129161   2.810   1.245   0.328  0.4899 -1.9420 -0.1346
 2582TIP3    H229162   2.904   1.285   0.440  0.5492  1.2018 -1.2120
 2583TIP3   OH229163   0.139   4.108   5.332 -0.3948  0.0991  0.6678
 2583TIP3    H129164   0.115   4.063   5.252  0.1728 -0.8423  1.0126
 2583TIP3    H229165   0.085   4.069   5.400 -1.9640  1.9195  0.5500
 2584TIP3   OH229166   0.127   2.324   2.606 -0.3528 -0.8948 -0.3753
 2584TIP3    H129167   0.117   2.410   2.647  1.1738 -1.3811  1.1167
 2584TIP3    H229168   0.180   2.342   2.528 -0.5235 -0.4150 -0.3886
 2585TIP3   OH229169   0.338   4.205   0.419  0.0982 -0.4099 -0.5213
 2585TIP3    H129170   0.256   4.231   0.462  0.8581  0.4620  0.4645
 2585TIP3    H229171   0.395   4.179   0.491  1.0347 -0.0060 -1.1004
 2586TIP3   OH229172   4.257   5.443   2.923  0.2546  0.2166 -0.1562
 2586TIP3    H129173   4.282   5.362   2.878  0.0746  0.4482 -0.6796
 2586TIP3    H229174   4.176   5.421   2.969  1.3579 -0.5295  1.5166
 2587TIP3   OH229175   1.626   0.505  14.406  0.2493  0.2078  0.5237
 2587TIP3    H129176   1.554   0.449  14.432  0.2387 -0.3737 -0.6817
 2587TIP3    H229177   1.600   0.593  14.435 -1.6495  0.2804 -1.1558
 2588TIP3   OH229178   2.281   3.751   3.438 -0.3187 -0.3846 -0.0641
 2588TIP3    H129179   2.264   3.803   3.516  1.5083 -1.0284  0.8165
 2588TIP3    H229180   2.313   3.814   3.374 -0.1234 -0.1161  0.2957
 2589TIP3   OH229181   0.171   0.112   0.292 -0.1679 -0.5138 -0.2930
 2589TIP3    H129182   0.220   0.086   0.214 -0.7423  0.3860 -0.9824
 2589TIP3    H229183   0.188   0.206   0.301 -1.8731 -0.1177 -0.6843
 2590TIP3   OH229184   1.959   3.785   2.367 -0.4312  0.5277  0.0233
 2590TIP3    H129185   1.976   3.857   2.307  1.0255 -0.3555 -0.6846
 2590TIP3    H229186   1.923   3.826   2.445  2.5300  2.3590  0.5856
 2591TIP3   OH229187   0.462   2.642  14.893  0.5179  0.6277  0.1203
 2591TIP3    H129188   0.373   2.664  14.867  0.7206 -0.8917 -2.0957
 2591TIP3    H229189   0.488   2.571  14.835  2.4378 -0.4510  2.1369
 2592TIP3   OH229190   5.444   3.324  11.339 -0.0657 -0.5972  0.3101
 2592TIP3    H129191   5.400   3.409  11.350  0.6979  0.0543 -1.2258
 2592TIP3    H229192   5.463   3.295  11.428 -0.2535  0.9138  0.8801
 2593TIP3   OH229193   4.342   4.734  14.346  0.1616  0.2024 -0.2222
 2593TIP3    H129194   4.286   4.656  14.348  0.1611  0.1723 -1.1296
 2593TIP3    H229195   4.302   4.792  14.282  0.3438  0.8220  0.2141
 2594TIP3   OH229196   4.971   3.429  10.831  0.3607 -0.1200  0.3920
 2594TIP3    H129197   5.022   3.355  10.864  1.3560  1.0097  1.4873
 2594TIP3    H229198   4.888   3.424  10.879  0.6850 -0.1391  0.9588
 2595TIP3   OH229199   1.392   4.424  10.399  0.2418  0.3807  0.3263
 2595TIP3    H129200   1.325   4.357  10.405  0.6094 -0.0631 -0.3556
 2595TIP3    H229201   1.344   4.504  10.376 -0.1622  0.2867  0.8413
 2596TIP3   OH229202   1.870   5.304   4.821  0.1933  0.4077  0.2979
 2596TIP3    H129203   1.864   5.399   4.822 -1.3210  0.3489 -0.3799
 2596TIP3    H229204   1.909   5.281   4.905 -0.0610  1.5853  0.7452
 2597TIP3   OH229205   2.467   4.739  13.445 -0.2877 -0.3818  0.1228
 2597TIP3    H129206   2.442   4.691  13.524 -0.5148 -0.6994 -0.1374
 2597TIP3    H229207   2.525   4.679  13.398  0.4227  0.0846  0.3882
 2598TIP3   OH229208   0.294   2.579   0.890 -0.0335  0.0898 -0.0404
 2598TIP3    H129209   0.216   2.564   0.837  0.3162  2.1299 -1.2622
 2598TIP3    H229210   0.366   2.550   0.834  0.6192  4.8766 -2.2579
 2599TIP3   OH229211   1.401   0.648   2.935  0.1570  0.2285 -0.0965
 2599TIP3    H129212   1.313   0.625   2.966 -0.1902  2.1845  0.4792
 2599TIP3    H229213   1.390   0.668   2.842 -0.5864  2.9224  0.4790
 2600TIP3   OH229214   5.782   5.202   2.920  0.2310 -0.0588 -0.4760
 2600TIP3    H129215   5.853   5.203   2.985  0.6303 -0.1973 -0.8995
 2600TIP3    H229216   5.714   5.257   2.958  0.2745 -0.5087  0.2593
 2601TIP3   OH229217   2.781   2.677  11.234  0.2984 -0.1566  0.1144
 2601TIP3    H129218   2.712   2.667  11.300  0.5446  0.0005  0.3963
 2601TIP3    H229219   2.840   2.604  11.250 -0.2117 -0.7503 -0.6337
 2602TIP3   OH229220   0.821   2.384  14.465 -0.3664 -0.0902  0.2731
 2602TIP3    H129221   0.888   2.394  14.398  0.9243 -0.1710  1.4939
 2602TIP3    H229222   0.861   2.325  14.530 -1.8109 -0.5304  0.8056
 2603TIP3   OH229223   0.150   2.213   5.151  0.8791  0.0594  0.0569
 2603TIP3    H129224   0.088   2.152   5.190  1.1672 -0.8856 -0.9089
 2603TIP3    H229225   0.221   2.219   5.215  1.1413 -1.1156 -0.1000
 2604TIP3   OH229226   0.483   0.903   2.139 -0.1687 -0.3319  0.3066
 2604TIP3    H129227   0.447   0.952   2.213 -0.7697  0.8698 -0.7422
 2604TIP3    H229228   0.418   0.834   2.121 -0.3001 -0.2685  0.5427
 2605TIP3   OH229229   2.427   4.598  12.412  0.3981  0.2258  0.1863
 2605TIP3    H129230   2.451   4.513  12.450  0.5971 -0.0727 -0.5862
 2605TIP3    H229231   2.436   4.660  12.484  0.7997 -0.3192  0.6161
 2606TIP3   OH229232   2.385   5.784   0.167 -0.0429  0.8749  0.1567
 2606TIP3    H129233   2.342   5.852   0.219 -0.4699  1.4867 -0.9779
 2606TIP3    H229234   2.468   5.768   0.212 -0.6099  1.0383  1.2985
 2607TIP3   OH229235   6.236   2.189  16.829 -0.0749 -0.2177 -0.5142
 2607TIP3    H129236   6.243   2.281  16.803  1.6813 -0.6445 -1.7025
 2607TIP3    H229237   6.158   2.157  16.783 -0.7097  0.6547 -0.0728
 2608TIP3   OH229238   0.373   0.439   0.965  0.3839  0.4888  0.0862
 2608TIP3    H129239   0.450   0.490   0.938 -0.3074  1.6537  0.3018
 2608TIP3    H229240   0.343   0.480   1.045 -0.5807  0.1454 -0.0881
 2609TIP3   OH229241   5.555   3.304   4.383 -0.3354  0.0933 -0.5798
 2609TIP3    H129242   5.466   3.297   4.417  0.1169  0.9603  0.8615
 2609TIP3    H229243   5.544   3.330   4.292 -1.5691 -1.3624 -0.9001
 2610TIP3   OH229244   1.406   2.546  10.628 -0.1660  0.5590 -0.2582
 2610TIP3    H129245   1.466   2.545  10.553  0.9571  0.0906  0.6052
 2610TIP3    H229246   1.360   2.630  10.620 -0.5878  0.2073 -1.8421
 2611TIP3   OH229247   2.477   5.329  11.473 -0.4756  0.7210  0.4253
 2611TIP3    H129248   2.386   5.329  11.443 -0.3172 -1.8948 -0.3559
 2611TIP3    H229249   2.484   5.249  11.525  2.2039 -1.3784 -2.7244
 2612TIP3   OH229250   1.660   5.995   2.111  0.0102 -0.0686 -0.4081
 2612TIP3    H129251   1.638   6.074   2.063  0.2027  0.4799  0.3973
 2612TIP3    H229252   1.724   5.951   2.055  0.1615  0.5146 -0.7016
 2613TIP3   OH229253   5.226   5.087  15.069  0.3312 -0.0053  0.2564
 2613TIP3    H129254   5.228   5.001  15.110 -0.6374 -0.7166 -1.1073
 2613TIP3    H229255   5.207   5.069  14.977 -0.0844  1.6799 -0.0168
 2614TIP3   OH229256   3.237   5.456   1.944  0.3582  0.2519  0.1920
 2614TIP3    H129257   3.174   5.496   1.884  1.9335  2.4062 -0.1199
 2614TIP3    H229258   3.216   5.494   2.029 -1.5140 -2.3813  1.0528
 2615TIP3   OH229259   2.803   2.485  15.677  0.2396  0.7185 -0.0143
 2615TIP3    H129260   2.802   2.398  15.638  1.3589  1.6604 -2.3624
 2615TIP3    H229261   2.824   2.470  15.770 -0.5684 -1.5321 -0.1512
 2616TIP3   OH229262   3.314   4.277  15.653 -0.3853 -0.2812  0.0564
 2616TIP3    H129263   3.309   4.346  15.718 -1.7585  0.0310 -0.3284
 2616TIP3    H229264   3.222   4.256  15.634 -0.0204 -0.5589 -1.5478
 2617TIP3   OH229265   3.840   4.785   1.646  0.4237  0.5948  0.1648
 2617TIP3    H129266   3.871   4.764   1.558 -0.5715 -1.7282  0.2923
 2617TIP3    H229267   3.791   4.707   1.674 -1.4642  2.2207  1.7826
 2618TIP3   OH229268   0.310   2.863  14.658 -0.5795 -0.1635  0.5136
 2618TIP3    H129269   0.285   2.771  14.668  2.0563 -1.0266 -0.0198
 2618TIP3    H229270   0.337   2.870  14.567 -0.0672  0.9602  0.7388
 2619TIP3   OH229271   6.160   5.591  12.006 -0.5935  0.1507  0.7504
 2619TIP3    H129272   6.173   5.512  11.953 -0.1297 -1.0662  2.6037
 2619TIP3    H229273   6.243   5.603  12.053 -0.9844  1.2112  1.2081
 2620TIP3   OH229274   1.245   0.820  15.306 -0.5162  0.2959  0.6997
 2620TIP3    H129275   1.261   0.914  15.294  0.2355  0.0865 -0.0324
 2620TIP3    H229276   1.311   0.792  15.369 -0.2668  0.1160  0.3588
 2621TIP3   OH229277   1.797   0.118   2.022 -0.1103 -0.6585 -0.2429
 2621TIP3    H129278   1.888   0.094   2.041  0.3217 -0.0791 -1.4896
 2621TIP3    H229279   1.803   0.191   1.960 -1.4323 -1.1001 -0.9361
 2622TIP3   OH229280   3.609   1.174  14.131  0.7858  0.8686  0.0630
 2622TIP3    H129281   3.661   1.226  14.070  1.5609  1.0351  0.8416
 2622TIP3    H229282   3.633   1.208  14.217 -0.2757  0.6282  0.4625
 2623TIP3   OH229283   3.287   3.710  15.939  0.3586  0.0765  0.7306
 2623TIP3    H129284   3.324   3.699  15.852 -0.1557 -2.8005  0.7749
 2623TIP3    H229285   3.347   3.771  15.983  2.3436 -0.7612 -0.6683
 2624TIP3   OH229286   3.580   5.544  13.407  0.2315  0.2499  0.2123
 2624TIP3    H129287   3.565   5.477  13.341 -0.1787  0.4442  0.1066
 2624TIP3    H229288   3.663   5.585  13.382 -0.5476  1.2163 -0.9574
 2625TIP3   OH229289   4.303   0.226  12.583  0.1986  0.5956 -0.6399
 2625TIP3    H129290   4.263   0.164  12.522 -0.3448 -0.1238  0.4291
 2625TIP3    H229291   4.244   0.302  12.581 -0.9337 -0.2101  0.4462
 2626TIP3   OH229292   4.560   4.770  17.049 -0.2865  0.2346 -0.1011
 2626TIP3    H129293   4.569   4.716  16.970  0.5945  0.3606 -0.0990
 2626TIP3    H229294   4.491   4.832  17.027 -0.0041  0.3084 -0.8091
 2627TIP3   OH229295   3.645   2.486  16.348  0.1016  0.1609  0.1127
 2627TIP3    H129296   3.722   2.501  16.404  0.1734 -0.6040  0.2248
 2627TIP3    H229297   3.655   2.548  16.277  1.9483 -1.3374 -1.0158
 2628TIP3   OH229298   5.553   1.097   0.095  0.0572 -0.4135 -0.1697
 2628TIP3    H129299   5.555   1.071   0.187 -0.5840 -1.8914 -0.5403
 2628TIP3    H229300   5.521   1.187   0.096 -1.7233 -0.9901  0.9753
 2629TIP3   OH229301   3.803   2.756  15.710 -0.0344 -0.3776  0.0125
 2629TIP3    H129302   3.855   2.835  15.697  1.6109 -1.0718  1.8731
 2629TIP3    H229303   3.728   2.785  15.762 -0.3905  0.2505 -0.8351
 2630TIP3   OH229304   2.403   0.957   2.206  0.3378 -0.1556 -0.3480
 2630TIP3    H129305   2.390   1.049   2.232  1.4206  0.1373 -0.8049
 2630TIP3    H229306   2.474   0.926   2.262  0.9438 -0.2857 -1.1773
 2631TIP3   OH229307   1.211   5.791  16.929  0.8916  0.1055 -0.2080
 2631TIP3    H129308   1.183   5.868  16.978 -0.2862 -0.5186  0.1481
 2631TIP3    H229309   1.130   5.758  16.889  1.3075 -1.1379 -0.0633
 2632TIP3   OH229310   3.802   3.676   5.705 -0.0092  0.5484 -0.2237
 2632TIP3    H129311   3.850   3.746   5.662  0.9207 -0.3337 -0.6706
 2632TIP3    H229312   3.796   3.704   5.797  0.5841  1.0797 -0.3400
 2633TIP3   OH229313   3.302   2.724  12.358  0.2963  0.8803  0.1763
 2633TIP3    H129314   3.355   2.650  12.331 -0.8331  0.4131 -0.8755
 2633TIP3    H229315   3.352   2.766  12.428  2.7897  1.3906 -1.7683
 2634TIP3   OH229316   2.792   0.618  12.089 -0.1542 -0.0809 -0.2453
 2634TIP3    H129317   2.837   0.694  12.128  2.4060 -1.6835  0.1991
 2634TIP3    H229318   2.702   0.647  12.077  0.1156  2.2008  2.2331
 2635TIP3   OH229319   1.288   3.958  14.020  0.3566  0.1456 -0.1012
 2635TIP3    H129320   1.367   4.011  14.038  0.9989 -0.0592 -2.0472
 2635TIP3    H229321   1.216   4.019  14.031  0.8501  0.6087  0.7137
 2636TIP3   OH229322   5.416   4.705  14.649  0.1255 -0.0092 -0.3469
 2636TIP3    H129323   5.465   4.781  14.618 -0.5457  0.9085  0.7825
 2636TIP3    H229324   5.397   4.724  14.740 -0.3482 -1.3926 -0.1372
 2637TIP3   OH229325   3.644   2.688   3.672 -0.0703  0.1355  0.1161
 2637TIP3    H129326   3.731   2.693   3.632  0.6363 -0.5275  1.4979
 2637TIP3    H229327   3.600   2.768   3.645  0.5094 -0.0792 -1.6097
 2638TIP3   OH229328   1.282   5.563   0.909 -0.6103 -0.1058 -0.2342
 2638TIP3    H129329   1.311   5.647   0.944 -2.1381  1.4370 -2.3550
 2638TIP3    H229330   1.353   5.535   0.851 -0.7751  0.6005 -0.7950
 2639TIP3   OH229331   6.023   3.946   0.295 -0.9020 -0.2865  0.0498
 2639TIP3    H129332   5.966   4.004   0.346  2.1114  1.3220  1.8598
 2639TIP3    H229333   6.050   3.999   0.221  1.0198  0.3416  1.1410
 2640TIP3   OH229334   1.728   0.227   6.646  0.1692 -0.3996  0.0365
 2640TIP3    H129335   1.675   0.158   6.607 -1.6591  1.4758 -0.9893
 2640TIP3    H229336   1.692   0.308   6.610  0.1397  1.3157  3.5526
 2641TIP3   OH229337   0.076   4.501   4.706  0.2611 -0.5235  0.5725
 2641TIP3    H129338   0.034   4.453   4.634 -2.4335  2.2570  0.0841
 2641TIP3    H229339   0.074   4.440   4.779 -1.6330 -1.7360 -0.3926
 2642TIP3   OH229340   2.933   2.481  14.100  0.9653 -0.0232  0.4941
 2642TIP3    H129341   2.874   2.450  14.169  0.7057 -1.6017 -0.4002
 2642TIP3    H229342   3.015   2.435  14.116  1.3959  0.7556  0.6166
 2643TIP3   OH229343   4.048   4.208   3.863 -0.3290  0.1579  0.0917
 2643TIP3    H129344   4.063   4.190   3.770  0.9782  4.7148 -0.8509
 2643TIP3    H229345   3.968   4.262   3.864  1.2110  2.5828  1.0996
 2644TIP3   OH229346   0.924   3.807   5.763  0.6410 -0.1165 -0.4806
 2644TIP3    H129347   0.991   3.780   5.701  1.5839 -0.1558  0.5350
 2644TIP3    H229348   0.877   3.727   5.785  1.1124 -0.3177 -0.2004
 2645TIP3   OH229349   4.967   5.104  15.745  0.1156  0.2883  0.2209
 2645TIP3    H129350   5.013   5.044  15.687 -1.7170 -0.8796 -0.1024
 2645TIP3    H229351   4.923   5.166  15.686  1.9342  1.9852  0.5473
 2646TIP3   OH229352   6.246   0.656   3.869 -0.1801  0.4842  0.1127
 2646TIP3    H129353   6.281   0.680   3.783 -0.9508 -2.1404 -1.0272
 2646TIP3    H229354   6.207   0.569   3.856  2.0149 -1.2727  3.7008
 2647TIP3   OH229355   0.521   4.404  11.957  0.5380 -0.7019  0.3566
 2647TIP3    H129356   0.558   4.317  11.944 -2.0055 -1.6674 -1.2514
 2647TIP3    H229357   0.426   4.391  11.954  0.0557  2.0957  0.3255
 2648TIP3   OH229358   4.744   5.084  11.595  0.2352 -0.0846  0.3294
 2648TIP3    H129359   4.709   5.085  11.506 -0.3093  0.4484  0.5452
 2648TIP3    H229360   4.776   4.994  11.607 -0.2852 -0.3438 -0.1751
 2649TIP3   OH229361   3.917   5.536  12.770  0.2292 -0.8879 -0.3284
 2649TIP3    H129362   3.939   5.554  12.679 -1.5536 -1.0816 -0.8442
 2649TIP3    H229363   3.882   5.447  12.769 -2.0145 -0.0787  0.0794
 2650TIP3   OH229364   6.271   5.496   0.811  0.4019  0.3907  0.3151
 2650TIP3    H129365   6.353   5.456   0.783  1.2945  0.9367  2.0690
 2650TIP3    H229366   6.206   5.462   0.748  1.8173 -0.5760 -0.6935
 2651TIP3   OH229367   3.773   1.212   5.977 -0.6760 -0.0712 -0.0623
 2651TIP3    H129368   3.859   1.254   5.983 -1.3992  1.2758  1.9924
 2651TIP3    H229369   3.717   1.277   5.934 -1.5007  0.6519  1.9956
 2652TIP3   OH229370   6.233   3.505   6.487 -0.0610 -0.1855  0.8682
 2652TIP3    H129371   6.246   3.596   6.514  2.8169 -0.4805  0.8005
 2652TIP3    H229372   6.217   3.458   6.569 -3.4967  0.5267  0.7550
 2653TIP3   OH229373   6.581   6.677   6.156 -0.5373 -0.1048 -0.2224
 2653TIP3    H129374   6.584   6.690   6.061 -0.6573 -0.1481 -0.2327
 2653TIP3    H229375   6.640   6.604   6.172 -0.1749  0.1872 -0.2121
 2654TIP3   OH229376   1.751   0.314   4.238 -0.0960 -0.0830  0.1383
 2654TIP3    H129377   1.787   0.399   4.210  0.8330 -0.8134 -0.9554
 2654TIP3    H229378   1.746   0.321   4.333 -0.3018  1.2992  0.0613
 2655TIP3   OH229379   4.717   2.097  17.233  0.4240 -0.5435 -0.1745
 2655TIP3    H129380   4.797   2.055  17.265  1.9272  1.7441 -0.7652
 2655TIP3    H229381   4.652   2.078  17.302  1.1608 -3.1329 -0.0740
 2656TIP3   OH229382   1.611   2.488  15.183 -0.1322  0.2910  0.0502
 2656TIP3    H129383   1.609   2.469  15.276  0.3606  1.7827  0.3968
 2656TIP3    H229384   1.701   2.467  15.156 -1.0527 -3.1308 -0.8384
 2657TIP3   OH229385   3.801   0.491  14.607 -0.1418 -0.1850 -0.3420
 2657TIP3    H129386   3.835   0.577  14.581 -0.5831  0.3228  0.6897
 2657TIP3    H229387   3.799   0.440  14.526  0.9529  0.4945 -0.8109
 2658TIP3   OH229388   2.239   1.871  14.130 -1.1517 -0.1571 -0.1171
 2658TIP3    H129389   2.146   1.869  14.152 -1.3181 -3.4790 -0.5133
 2658TIP3    H229390   2.240   1.860  14.035 -0.4900 -3.6087  0.1515
 2659TIP3   OH229391   4.218   4.030  15.449  0.7124  0.4501  0.6223
 2659TIP3    H129392   4.246   3.998  15.363  0.4077  0.0659  0.6649
 2659TIP3    H229393   4.131   3.992  15.462  1.3725 -0.7109  1.7466
 2660TIP3   OH229394   5.780   4.031   2.089 -0.2892  0.2595 -0.2340
 2660TIP3    H129395   5.868   4.067   2.098  0.4810 -1.8926  1.8682
 2660TIP3    H229396   5.723   4.098   2.128  0.7771  0.4062  1.1212
 2661TIP3   OH229397   1.117   6.189   4.279 -0.7239 -0.6704 -0.0320
 2661TIP3    H129398   1.153   6.197   4.191  0.6023  1.4612  0.6127
 2661TIP3    H229399   1.100   6.280   4.305  0.4831 -1.1056  2.5044
 2662TIP3   OH229400   2.249   5.991   2.833  0.4583  0.1603  0.1368
 2662TIP3    H129401   2.234   5.917   2.776 -0.9780  1.7053 -1.6226
 2662TIP3    H229402   2.296   5.955   2.908 -0.0391 -2.4513 -0.7210
 2663TIP3   OH229403   1.329   4.948   1.602 -0.3695 -0.3076  0.0369
 2663TIP3    H129404   1.414   4.981   1.630  1.1284 -2.9310 -1.0730
 2663TIP3    H229405   1.280   4.935   1.683  1.1994 -0.9996  0.9028
 2664TIP3   OH229406   4.768   2.325  14.791  0.5696  0.1121  0.7050
 2664TIP3    H129407   4.738   2.345  14.702 -0.7740 -1.0100  0.8839
 2664TIP3    H229408   4.807   2.238  14.784 -0.2847 -0.3381  1.3623
 2665TIP3   OH229409   0.422   1.159   6.154  0.2504  0.4778  0.5475
 2665TIP3    H129410   0.364   1.083   6.150  0.5784  0.1905  1.0547
 2665TIP3    H229411   0.457   1.158   6.244  0.4949  1.0484  0.4645
 2666TIP3   OH229412   3.638   2.912   6.156  1.0301 -0.1937  0.4419
 2666TIP3    H129413   3.649   2.842   6.221  0.1524  0.7077  1.6194
 2666TIP3    H229414   3.655   2.993   6.205  0.5834  0.4996 -0.5124
 2667TIP3   OH229415   5.625   2.698  14.101  0.1017 -0.1083  0.3001
 2667TIP3    H129416   5.625   2.771  14.163  0.3553  1.0926 -1.0569
 2667TIP3    H229417   5.533   2.689  14.074  0.2428  0.5123 -0.4172
 2668TIP3   OH229418   3.277   1.539   1.031 -0.0477  0.5244  0.0256
 2668TIP3    H129419   3.255   1.632   1.044 -0.3882  0.4867 -0.2662
 2668TIP3    H229420   3.235   1.516   0.948 -0.8868 -0.1779  0.6247
 2669TIP3   OH229421   5.668   0.775   1.188  0.9108 -0.3316 -0.0639
 2669TIP3    H129422   5.747   0.756   1.239  1.6104  0.4122 -0.8473
 2669TIP3    H229423   5.676   0.720   1.110 -0.0811 -1.3487  0.5127
 2670TIP3   OH229424   0.084   3.916   3.558  0.1346 -0.5150  0.0561
 2670TIP3    H129425   0.171   3.875   3.551 -0.5732 -1.8192 -2.0175
 2670TIP3    H229426   0.069   3.955   3.473 -1.5275 -0.7666  0.1979
 2671TIP3   OH229427   0.119   3.148  11.623  0.2760 -0.2836 -0.5702
 2671TIP3    H129428   0.148   3.223  11.571  1.0537 -0.3886 -0.3083
 2671TIP3    H229429   0.140   3.173  11.713 -0.4414 -0.3811 -0.3721
 2672TIP3   OH229430   5.966   2.642  15.410 -0.2231  0.5936  0.3668
 2672TIP3    H129431   5.879   2.647  15.449  0.4392  0.8830  1.8957
 2672TIP3    H229432   5.992   2.551  15.421 -0.5046  0.3924 -0.5321
 2673TIP3   OH229433   1.666   0.897  16.272 -0.3676 -0.6891  0.4763
 2673TIP3    H129434   1.591   0.918  16.327 -0.8792  1.2237 -0.8536
 2673TIP3    H229435   1.730   0.965  16.291  0.8982 -2.0405  1.2588
 2674TIP3   OH229436   6.232   5.927   2.025  0.4405  0.1284 -0.1702
 2674TIP3    H129437   6.283   5.898   1.950  0.5500  0.6739 -0.3146
 2674TIP3    H229438   6.296   5.943   2.094  0.4256  0.4154 -0.2211
 2675TIP3   OH229439   6.092   3.911  11.625 -0.0863 -0.4390  0.3081
 2675TIP3    H129440   6.030   3.940  11.691 -0.7760  0.0262 -0.5167
 2675TIP3    H229441   6.123   3.826  11.656  1.1466  0.6368  2.2468
 2676TIP3   OH229442   1.628   5.327  15.476 -0.1851  0.3583 -0.6731
 2676TIP3    H129443   1.626   5.239  15.439 -1.4887  1.0938 -2.4871
 2676TIP3    H229444   1.555   5.373  15.433 -0.8847  1.7260  1.7790
 2677TIP3   OH229445   2.372   0.944  12.340  0.4649 -0.4799 -0.2487
 2677TIP3    H129446   2.298   0.883  12.336  0.4791 -0.4627 -0.8549
 2677TIP3    H229447   2.390   0.954  12.434  0.3799 -1.3110 -0.1372
 2678TIP3   OH229448   3.645   5.608  12.003  0.1330  0.5639 -0.3002
 2678TIP3    H129449   3.562   5.561  12.004  0.5765 -0.3042 -1.5234
 2678TIP3    H229450   3.711   5.542  12.025  0.5537  1.1624  0.3089
 2679TIP3   OH229451   2.228   5.649   4.555  0.2706 -0.1778 -0.1975
 2679TIP3    H129452   2.319   5.679   4.561  0.4752 -1.1292  2.6535
 2679TIP3    H229453   2.236   5.555   4.539 -0.1947 -0.3489  0.5485
 2680TIP3   OH229454   5.035   1.851  12.579 -0.2835  0.2645 -0.4466
 2680TIP3    H129455   5.028   1.769  12.529 -1.3930 -1.5957  2.5062
 2680TIP3    H229456   5.121   1.847  12.621 -0.7286  0.1298  0.4654
 2681TIP3   OH229457   0.683   6.454  15.099 -0.2585 -0.2782 -0.2984
 2681TIP3    H129458   0.721   6.407  15.025  0.5803 -0.2067  0.0707
 2681TIP3    H229459   0.606   6.404  15.123  0.3416 -1.1980 -0.2320
 2682TIP3   OH229460   2.214   5.025  13.570  0.8499 -0.1101  0.1864
 2682TIP3    H129461   2.309   5.019  13.567  0.9043  0.0598  1.1560
 2682TIP3    H229462   2.196   5.092  13.637  0.0676  0.7712 -0.8571
 2683TIP3   OH229463   1.079   0.984   0.088  0.2582  0.1151  0.4267
 2683TIP3    H129464   1.073   0.959   0.180  0.2219  0.0487  0.4064
 2683TIP3    H229465   1.170   0.968   0.064  0.2713  0.1463  0.4545
 2684TIP3   OH229466   3.745   1.251  14.824 -0.2378 -0.0064 -0.4890
 2684TIP3    H129467   3.756   1.161  14.853 -0.1725 -0.2495 -1.2596
 2684TIP3    H229468   3.720   1.298  14.904  0.6901 -0.5076  0.1176
 2685TIP3   OH229469   1.402   2.670  12.292 -0.5105  0.4234 -0.3308
 2685TIP3    H129470   1.373   2.595  12.239 -1.7863  0.6075  0.0712
 2685TIP3    H229471   1.323   2.723  12.304 -0.6619 -0.3396  2.9739
 2686TIP3   OH229472   3.017   4.204   6.231 -0.2042 -0.2779  0.3580
 2686TIP3    H129473   2.946   4.266   6.248 -0.7713 -0.0207 -2.4547
 2686TIP3    H229474   2.991   4.125   6.278 -1.6390  0.2721  0.5564
 2687TIP3   OH229475   1.940   4.548  11.749 -0.0164  0.0262 -0.0928
 2687TIP3    H129476   1.964   4.634  11.783 -0.0377  0.2156 -0.5492
 2687TIP3    H229477   1.917   4.564  11.658 -0.4430 -0.3950 -0.0622
 2688TIP3   OH229478   5.937   1.899  11.585 -0.6498  0.0523 -0.0426
 2688TIP3    H129479   5.918   1.843  11.510  1.5718  0.2184 -0.8047
 2688TIP3    H229480   5.959   1.984  11.548  2.9430 -0.4818  0.4260
 2689TIP3   OH229481   6.331   2.932   2.015  0.4636  0.4169  0.4505
 2689TIP3    H129482   6.353   3.013   2.060 -0.2585  0.0605  1.4935
 2689TIP3    H229483   6.317   2.869   2.086  0.6370 -0.5207 -0.3271
 2690TIP3   OH229484   0.719   3.876   1.013  0.4870 -0.3031  0.1709
 2690TIP3    H129485   0.624   3.876   1.029  0.5011  0.7366  0.3342
 2690TIP3    H229486   0.748   3.790   1.041 -0.8418 -1.7771 -2.5564
 2691TIP3   OH229487   2.491   2.021   0.658  0.0300 -0.4107 -0.0376
 2691TIP3    H129488   2.479   1.946   0.599 -0.1132 -0.2363 -0.2284
 2691TIP3    H229489   2.517   2.093   0.601  1.9320 -0.7472  0.3470
 2692TIP3   OH229490   3.280   4.971  12.566  0.9276  0.4220 -0.1156
 2692TIP3    H129491   3.245   4.922  12.640 -1.0432  0.3978 -1.0089
 2692TIP3    H229492   3.292   5.060  12.599 -0.0464  0.4357  0.2228
 2693TIP3   OH229493   3.437   5.035  13.779 -0.5387 -0.4636 -0.1481
 2693TIP3    H129494   3.464   4.989  13.859 -0.7434 -1.2842 -0.5391
 2693TIP3    H229495   3.519   5.067  13.741 -0.4416 -0.0710  0.3932
 2694TIP3   OH229496   3.732   0.586   2.184 -0.1218 -0.4208 -0.4430
 2694TIP3    H129497   3.800   0.633   2.136  2.7819 -3.1034  0.6767
 2694TIP3    H229498   3.715   0.508   2.132 -1.4948 -0.3875 -0.0833
 2695TIP3   OH229499   1.961   4.344  17.079  0.1060  0.4829 -0.3482
 2695TIP3    H129500   2.048   4.304  17.084 -1.1204 -2.4230 -0.3927
 2695TIP3    H229501   1.933   4.349  17.171 -0.9907 -1.9298 -0.4746
 2696TIP3   OH229502   0.617   4.615   0.946  0.0699 -0.1439 -0.2224
 2696TIP3    H129503   0.547   4.624   1.010 -0.1349 -1.1032 -0.3099
 2696TIP3    H229504   0.629   4.704   0.911 -0.4549  0.2012  0.4614
 2697TIP3   OH229505   4.493   4.512   1.483  0.3979  0.3173  0.1167
 2697TIP3    H129506   4.430   4.445   1.458  0.0674  0.8651 -0.5283
 2697TIP3    H229507   4.521   4.486   1.571 -2.4167  1.2875  1.4138
 2698TIP3   OH229508   0.887   0.311   3.107  0.6695 -0.0351  0.1761
 2698TIP3    H129509   0.836   0.232   3.120  0.8604 -0.0166  1.0871
 2698TIP3    H229510   0.974   0.280   3.083  0.9744 -0.1239  1.3737
 2699TIP3   OH229511   2.555   1.329   0.802  0.3300 -0.1143 -0.1839
 2699TIP3    H129512   2.562   1.316   0.708 -0.5830 -3.4025  0.0965
 2699TIP3    H229513   2.633   1.287   0.838 -0.7447 -1.5188  0.6241
 2700TIP3   OH229514   0.435   0.024   1.714  0.0119 -0.0273 -0.1957
 2700TIP3    H129515   0.514  -0.020   1.743  1.1717 -0.1303 -3.0936
 2700TIP3    H229516   0.367  -0.043   1.716  0.7995 -0.8579 -0.7491
 2701TIP3   OH229517   1.716   6.488   3.830  0.3239  0.6618  0.3868
 2701TIP3    H129518   1.647   6.435   3.870  1.0495  0.7400  1.8316
 2701TIP3    H229519   1.777   6.505   3.902  1.2128  1.6341 -0.5627
 2702TIP3   OH229520   6.751   6.231   0.609 -0.5218  0.0033  0.0264
 2702TIP3    H129521   6.728   6.149   0.653  0.9702 -0.6093 -0.2747
 2702TIP3    H229522   6.719   6.220   0.520 -2.0871  0.5836  0.4840
 2703TIP3   OH229523   4.417   0.995  16.981  0.1257  0.0330  0.3210
 2703TIP3    H129524   4.443   0.960  16.896  0.1097  0.3592  0.1784
 2703TIP3    H229525   4.499   1.001  17.031  0.1366 -0.1454  0.3239
 2704TIP3   OH229526   5.902   6.444   2.764 -0.0621 -0.0004 -0.1173
 2704TIP3    H129527   5.871   6.496   2.838 -0.7320  0.3098 -0.6086
 2704TIP3    H229528   5.925   6.359   2.803  0.5678  0.4904  0.6076
 2705TIP3   OH229529   4.637   0.794   3.064  0.1213 -0.5060  0.5501
 2705TIP3    H129530   4.714   0.846   3.038  1.0396 -2.1767 -0.2250
 2705TIP3    H229531   4.566   0.829   3.010  0.4248  0.7407  0.9213
 2706TIP3   OH229532   3.966   3.710  16.402  0.0578 -0.0955  0.3552
 2706TIP3    H129533   3.922   3.628  16.423  0.2569 -0.3383 -0.1542
 2706TIP3    H229534   3.895   3.771  16.382 -0.0659 -0.7565 -1.4597
 2707TIP3   OH229535   2.349   3.328  14.326  0.0197  0.5115 -0.4129
 2707TIP3    H129536   2.360   3.241  14.288  0.0146  0.3340 -0.0153
 2707TIP3    H229537   2.254   3.340  14.330 -0.1104 -0.6683  2.1695
 2708TIP3   OH229538   1.817   5.339   5.539 -0.7555 -0.3631  0.1071
 2708TIP3    H129539   1.725   5.359   5.519 -1.3197  1.3675  3.6252
 2708TIP3    H229540   1.850   5.418   5.583  1.8833 -1.6087  0.5826
 2709TIP3   OH229541   1.087   4.838   0.004  0.0183 -0.1497  0.0854
 2709TIP3    H129542   1.069   4.783  -0.073 -0.0137  1.0351 -0.7740
 2709TIP3    H229543   1.182   4.832   0.015  0.1571  0.4914 -0.6875
 2710TIP3   OH229544   5.030   4.859  12.419 -0.7641 -0.4692  1.3156
 2710TIP3    H129545   4.960   4.813  12.374  0.3610 -1.0874  0.1130
 2710TIP3    H229546   5.000   4.949  12.427 -0.8422 -0.1993 -1.1553
 2711TIP3   OH229547   1.479   6.548   4.065  0.4865  0.3376  0.2049
 2711TIP3    H129548   1.529   6.586   4.137  1.4064 -0.8079  0.1892
 2711TIP3    H229549   1.453   6.461   4.096  0.4117  0.0487 -0.6293
 2712TIP3   OH229550   6.383   2.725  15.064 -0.1585  0.1990  0.0626
 2712TIP3    H129551   6.306   2.693  15.111 -0.3818 -1.5538 -1.4027
 2712TIP3    H229552   6.456   2.678  15.103 -0.3597 -1.3655 -1.3313
 2713TIP3   OH229553   5.963   4.394   4.444 -0.6255 -0.2897 -0.4402
 2713TIP3    H129554   6.038   4.433   4.489 -1.3208 -1.5001  1.9118
 2713TIP3    H229555   5.997   4.369   4.359  0.7014  2.3012 -0.7902
 2714TIP3   OH229556   4.232   0.797  16.833 -0.4780  0.4506  0.7672
 2714TIP3    H129557   4.145   0.792  16.872 -0.5846  0.0418  0.4965
 2714TIP3    H229558   4.221   0.856  16.758 -0.9370 -0.8865 -0.2661
 2715TIP3   OH229559   0.570   0.061  13.593 -0.3731  0.1795 -0.5631
 2715TIP3    H129560   0.525  -0.003  13.537 -0.2832  1.3234 -1.9908
 2715TIP3    H229561   0.508   0.134  13.600 -0.1745  0.2658  0.4401
 2716TIP3   OH229562   2.533   5.733  11.755  0.0198 -0.1023 -0.1081
 2716TIP3    H129563   2.559   5.711  11.665 -0.0763  1.8604 -0.6671
 2716TIP3    H229564   2.614   5.725  11.806 -0.0727 -1.9331 -0.1835
 2717TIP3   OH229565   5.594   1.311  13.270  0.2017  0.3709  0.0292
 2717TIP3    H129566   5.618   1.369  13.198  0.0282  0.6952  0.2318
 2717TIP3    H229567   5.661   1.242  13.269 -0.3021 -0.1315 -1.0060
 2718TIP3   OH229568   6.120   2.410  11.910  0.1737  0.3196 -0.7041
 2718TIP3    H129569   6.200   2.370  11.875  0.1108 -0.1531 -0.3178
 2718TIP3    H229570   6.063   2.336  11.930  0.1837  0.5859  0.3432
 2719TIP3   OH229571   4.282   3.180  16.239  0.6107  0.1165  0.0866
 2719TIP3    H129572   4.195   3.147  16.261  0.3007 -0.1821 -1.4250
 2719TIP3    H229573   4.343   3.114  16.274  0.3772  1.1109  2.5652
 2720TIP3   OH229574   4.730   0.814  12.391  0.5193 -0.4038 -0.6475
 2720TIP3    H129575   4.790   0.806  12.465 -0.5089 -1.0394  0.1490
 2720TIP3    H229576   4.714   0.724  12.364 -2.0895 -0.4864  0.8636
 2721TIP3   OH229577   0.991   0.232   1.915  0.3904  0.5692 -0.1462
 2721TIP3    H129578   1.058   0.207   1.850  0.1064  1.1650 -0.6857
 2721TIP3    H229579   1.015   0.184   1.994  1.1956  0.4190 -0.4699
 2722TIP3   OH229580   4.659   2.307  11.572  0.5638 -0.1975  0.1574
 2722TIP3    H129581   4.724   2.297  11.503  0.4365 -0.9955  0.1476
 2722TIP3    H229582   4.700   2.367  11.635  1.7227 -1.4341  0.6328
 2723TIP3   OH229583   0.365   2.989   1.358 -0.3791  0.4912  0.7804
 2723TIP3    H129584   0.452   2.976   1.319 -1.6901  2.1393 -3.2835
 2723TIP3    H229585   0.312   2.919   1.320 -1.2006  0.5193  1.8566
 2724TIP3   OH229586   1.917   3.921   2.864 -0.1502  0.5561  0.0314
 2724TIP3    H129587   1.840   3.886   2.908 -0.1595 -0.7166 -0.9512
 2724TIP3    H229588   1.988   3.861   2.888  0.0580  0.4452 -0.8122
 2725TIP3   OH229589   5.338   3.633  16.040  0.3212  0.0922 -0.1054
 2725TIP3    H129590   5.411   3.624  15.979  0.1066  0.5929 -0.4417
 2725TIP3    H229591   5.333   3.727  16.058  0.2673 -0.0308  0.5445
 2726TIP3   OH229592   4.682   5.459   5.920 -0.0361  0.0177 -0.1107
 2726TIP3    H129593   4.764   5.439   5.965 -0.3853 -1.7081 -0.1570
 2726TIP3    H229594   4.615   5.458   5.989  0.0444  2.2502  0.0650
 2727TIP3   OH229595   6.272   4.248   1.517  0.0338  0.2498 -0.1787
 2727TIP3    H129596   6.235   4.208   1.438 -0.1094  1.1712 -0.5912
 2727TIP3    H229597   6.365   4.225   1.515  0.1371  0.7012 -0.8941
 2728TIP3   OH229598   3.102   3.011  14.257 -0.9249  0.3940  0.1055
 2728TIP3    H129599   3.045   2.936  14.239 -0.8713  0.1065  1.0687
 2728TIP3    H229600   3.103   3.018  14.353  0.4935  0.5121  0.1077
 2729TIP3   OH229601   0.709   4.480   2.936  0.4900 -0.4241 -0.4066
 2729TIP3    H129602   0.680   4.389   2.943 -1.2973  0.0931 -0.6276
 2729TIP3    H229603   0.694   4.517   3.022 -1.5242  0.3834 -1.0556
 2730TIP3   OH229604   0.128   2.441   4.081 -0.0404  0.2998 -0.5727
 2730TIP3    H129605   0.158   2.450   4.172  0.7785 -1.3009 -0.6352
 2730TIP3    H229606   0.093   2.527   4.058  1.9157  1.4534  0.4752
 2731TIP3   OH229607   0.141   5.299  15.425  0.0961 -0.0400 -0.3064
 2731TIP3    H129608   0.206   5.229  15.435 -1.2414 -1.2329  0.3448
 2731TIP3    H229609   0.193   5.376  15.401  1.5622 -1.3749 -1.6900
 2732TIP3   OH229610   3.921   3.866  12.630 -0.0165  0.4390  0.7373
 2732TIP3    H129611   3.899   3.936  12.692 -1.4469  0.2770  0.4444
 2732TIP3    H229612   3.839   3.848  12.584  1.3135  1.6920 -2.3847
 2733TIP3   OH229613   4.489   0.288   4.591  0.3469  0.0972  0.3753
 2733TIP3    H129614   4.502   0.378   4.620 -0.0244  0.1741  0.3008
 2733TIP3    H229615   4.542   0.280   4.511 -3.0936  1.6118 -2.2954
 2734TIP3   OH229616   0.146   1.815   3.091  0.0263 -0.4650 -0.3334
 2734TIP3    H129617   0.186   1.745   3.143  0.8353  0.4451  0.2972
 2734TIP3    H229618   0.097   1.867   3.155  1.1287  0.7373 -0.4095
 2735TIP3   OH229619   4.761   3.280   1.446  0.0726 -0.6192  0.6764
 2735TIP3    H129620   4.790   3.285   1.355 -2.1803 -2.3500 -0.2170
 2735TIP3    H229621   4.828   3.329   1.494  2.0081 -0.6892 -1.7140
 2736TIP3   OH229622   5.712   2.065   0.554  0.3994 -0.0200  0.0541
 2736TIP3    H129623   5.755   2.016   0.624  0.4890 -1.4333 -0.9651
 2736TIP3    H229624   5.744   2.025   0.473 -1.9361 -0.3623 -0.7655
 2737TIP3   OH229625   3.720   0.810  11.986 -0.0070  0.7870 -0.2791
 2737TIP3    H129626   3.635   0.831  11.949  0.3874  0.5493 -1.3690
 2737TIP3    H229627   3.708   0.724  12.028  0.1558 -0.1904 -2.1434
 2738TIP3   OH229628   6.620   5.065   0.675  0.6592  0.3211 -0.1838
 2738TIP3    H129629   6.603   5.057   0.581  1.7886 -1.8825 -0.2587
 2738TIP3    H229630   6.617   4.975   0.708 -4.5333  1.1892  2.8772
 2739TIP3   OH229631   2.370   1.516   4.086 -0.6191 -0.1394 -0.1937
 2739TIP3    H129632   2.324   1.589   4.045  0.2463  0.7758  0.4032
 2739TIP3    H229633   2.434   1.558   4.144  0.4905 -1.3675 -0.4887
 2740TIP3   OH229634   1.533   1.484  16.360  0.0879  0.6778  0.0918
 2740TIP3    H129635   1.490   1.548  16.304  1.0290  1.5970  0.3860
 2740TIP3    H229636   1.519   1.515  16.449  1.9668  1.4585  0.1709
 2741TIP3   OH229637   6.574   5.176  16.775  0.3938  0.4860 -0.6700
 2741TIP3    H129638   6.539   5.087  16.784  0.2642  0.5522 -0.5036
 2741TIP3    H229639   6.556   5.217  16.860 -0.0018  0.8302 -0.9134
 2742TIP3   OH229640   0.871   6.073  14.131 -0.3954  0.0418  0.2905
 2742TIP3    H129641   0.813   6.025  14.072 -1.9657  1.4430  0.6342
 2742TIP3    H229642   0.922   6.130  14.074  0.1636 -0.6788  0.0518
 2743TIP3   OH229643   0.882   1.170   3.800 -0.5230 -0.6982 -0.3556
 2743TIP3    H129644   0.787   1.185   3.802 -0.5049 -0.6966  0.7179
 2743TIP3    H229645   0.900   1.119   3.878  0.3169 -1.0354 -0.7602
 2744TIP3   OH229646   3.447   2.106  12.616  0.4456 -0.8760  0.5847
 2744TIP3    H129647   3.469   2.198  12.601 -0.5308 -0.7569 -0.2455
 2744TIP3    H229648   3.409   2.077  12.534  1.9440 -2.4172  0.3820
 2745TIP3   OH229649   0.585   1.028   3.202 -0.2264 -0.1686  0.0581
 2745TIP3    H129650   0.656   1.049   3.142  0.8590 -1.9660  0.6469
 2745TIP3    H229651   0.519   0.985   3.147 -0.4652  0.6591 -0.3173
 2746TIP3   OH229652   5.169   2.107   0.127  0.2526 -0.2976  0.6077
 2746TIP3    H129653   5.177   2.202   0.115  0.8433 -0.3858  0.2139
 2746TIP3    H229654   5.079   2.086   0.101  0.4405  0.0173 -0.3193
 2747TIP3   OH229655   5.027   0.793   2.665  0.4597 -0.2176 -0.5123
 2747TIP3    H129656   4.952   0.845   2.636  1.1768  0.8454 -0.5305
 2747TIP3    H229657   4.990   0.709   2.690 -0.7141  0.2314 -0.6880
 2748TIP3   OH229658   0.722   2.985  13.934  0.2165  0.0931  0.3635
 2748TIP3    H129659   0.687   2.972  13.846  0.7001 -0.5919  0.2599
 2748TIP3    H229660   0.800   2.929  13.937 -0.3969 -0.7400  1.5824
 2749TIP3   OH229661   0.887   4.142   4.610 -0.1711 -0.1448 -0.0735
 2749TIP3    H129662   0.926   4.066   4.566  0.7550 -0.5403  1.3527
 2749TIP3    H229663   0.961   4.185   4.654 -1.1777 -0.5105  2.1421
 2750TIP3   OH229664   0.692   1.661   5.856 -0.3048  0.2565  0.1863
 2750TIP3    H129665   0.736   1.586   5.897  0.3268  0.1367 -0.7114
 2750TIP3    H229666   0.734   1.738   5.895  1.2724  0.1537 -1.2353
 2751TIP3   OH229667   6.426   6.002   2.230 -0.2247 -0.1849  0.0437
 2751TIP3    H129668   6.441   6.084   2.277  0.6116  1.1782 -2.4281
 2751TIP3    H229669   6.512   5.960   2.228 -0.5175 -0.8620  0.7309
 2752TIP3   OH229670   1.407   0.767  13.969  0.0680  0.0146 -0.1776
 2752TIP3    H129671   1.461   0.747  14.045  0.0959  0.4936 -0.0659
 2752TIP3    H229672   1.328   0.714  13.981  1.8624 -3.3540 -2.0690
 2753TIP3   OH229673   6.067   1.231   4.201  0.2644  0.1649 -0.2195
 2753TIP3    H129674   6.143   1.197   4.249  0.1814  0.3774  0.0628
 2753TIP3    H229675   5.995   1.226   4.263  0.6968  2.9437  0.6293
 2754TIP3   OH229676   3.250   6.683  16.861 -0.3920  0.3975 -0.0453
 2754TIP3    H129677   3.186   6.755  16.860  1.1551  1.8442 -0.4533
 2754TIP3    H229678   3.276   6.674  16.769  0.4274  0.2717  0.1903
 2755TIP3   OH229679   3.471   5.116   0.318 -0.4521 -0.0323 -0.3987
 2755TIP3    H129680   3.469   5.210   0.301 -0.5196 -0.0138 -0.2913
 2755TIP3    H229681   3.409   5.103   0.390 -1.7564 -0.3871 -1.5199
 2756TIP3   OH229682   3.667   2.826   5.393 -0.1158 -0.0516  0.3616
 2756TIP3    H129683   3.611   2.761   5.435 -1.8039  0.9555 -0.2371
 2756TIP3    H229684   3.723   2.775   5.334 -2.3703 -0.8852 -1.1840
 2757TIP3   OH229685   5.739   4.567   0.111 -0.1341 -0.8473  0.2794
 2757TIP3    H129686   5.708   4.573   0.201 -2.6988 -3.1708 -0.3013
 2757TIP3    H229687   5.785   4.483   0.107  0.6348 -0.4087 -0.4072
 2758TIP3   OH229688   0.353   4.241  13.431 -0.5066 -0.4153 -0.1508
 2758TIP3    H129689   0.353   4.255  13.525 -0.9169  2.5174 -0.4900
 2758TIP3    H229690   0.421   4.299  13.397 -1.6936  0.1419 -1.7712
 2759TIP3   OH229691   0.226   3.136  16.062  0.0302  0.6426  0.1015
 2759TIP3    H129692   0.134   3.163  16.056 -0.7229 -0.7660  3.3091
 2759TIP3    H229693   0.222   3.043  16.083  2.2596  0.3463 -0.5208
 2760TIP3   OH229694   0.486   0.621  14.014 -0.3607 -0.5866 -0.0203
 2760TIP3    H129695   0.491   0.650  13.923 -3.1127 -2.4709 -0.8864
 2760TIP3    H229696   0.563   0.660  14.055  1.0888  0.2163 -3.1635
 2761TIP3   OH229697   5.244   0.717  16.103  0.3614  0.3165  0.3006
 2761TIP3    H129698   5.162   0.751  16.140 -0.6475  0.1257 -1.6472
 2761TIP3    H229699   5.265   0.641  16.158 -0.3068  0.8339  1.3135
 2762TIP3   OH229700   6.343   0.400  10.383 -0.4142 -0.0705  0.0640
 2762TIP3    H129701   6.356   0.354  10.300  0.0957  1.1168 -0.5353
 2762TIP3    H229702   6.250   0.391  10.401 -0.3204 -1.3997  0.0181
 2763TIP3   OH229703   3.657   3.994   3.245 -0.2716  0.6207  0.0064
 2763TIP3    H129704   3.741   3.951   3.255 -0.3174 -0.5756 -3.3873
 2763TIP3    H229705   3.595   3.938   3.292  0.6241  0.8999  1.5661
 2764TIP3   OH229706   2.635   3.433   0.961  0.2315 -0.4269 -0.3095
 2764TIP3    H129707   2.686   3.352   0.971  0.1156 -0.4541  0.0922
 2764TIP3    H229708   2.696   3.502   0.985  1.0018 -0.1922 -2.6831
 2765TIP3   OH229709   0.022   5.581  14.983 -0.1370 -0.5678  0.4719
 2765TIP3    H129710   0.073   5.512  15.025  2.7838  0.3300 -1.3488
 2765TIP3    H229711   0.064   5.663  15.009 -1.0991  0.2914 -0.5362
 2766TIP3   OH229712   4.238   2.420   3.556  0.5111  0.7902 -0.3311
 2766TIP3    H129713   4.281   2.437   3.640  2.3203  0.7187 -1.2015
 2766TIP3    H229714   4.255   2.327   3.540 -0.6426  0.5722 -0.3541
 2767TIP3   OH229715   3.698   3.127  14.418 -0.3106  0.1796 -0.1002
 2767TIP3    H129716   3.771   3.072  14.388  0.8514  1.6248 -0.0265
 2767TIP3    H229717   3.738   3.188  14.480 -1.8482  0.1660  0.9559
 2768TIP3   OH229718   5.673   5.938  11.473  0.1322  0.3018  0.6298
 2768TIP3    H129719   5.615   5.862  11.482  1.4117 -0.5456  2.1871
 2768TIP3    H229720   5.733   5.914  11.402  0.9262 -0.4685  1.5202
 2769TIP3   OH229721   6.557   1.029  14.113  0.2318  0.3438  0.0971
 2769TIP3    H129722   6.552   1.015  14.018 -0.6695  0.0981  0.1776
 2769TIP3    H229723   6.616   1.104  14.122  1.3104 -0.3936 -0.5838
 2770TIP3   OH229724   6.479   1.370  11.943 -0.4081  0.3570  0.1441
 2770TIP3    H129725   6.524   1.367  11.859 -0.5513  0.1363  0.0730
 2770TIP3    H229726   6.441   1.458  11.947 -1.9404 -0.2085 -0.8501
 2771TIP3   OH229727   1.965   3.684   2.652  0.2816 -0.2047 -0.1870
 2771TIP3    H129728   2.014   3.621   2.705  1.6558  1.1128  0.2127
 2771TIP3    H229729   2.024   3.707   2.581 -1.0026 -0.8878 -1.5139
 2772TIP3   OH229730   4.673   3.340  14.419  0.2179  0.2301 -0.0860
 2772TIP3    H129731   4.694   3.260  14.373  1.3270  0.1964  0.4412
 2772TIP3    H229732   4.643   3.311  14.505  0.2443  0.3646 -0.0307
 2773TIP3   OH229733   0.697   4.604   3.199  0.0286  0.3839 -0.0843
 2773TIP3    H129734   0.723   4.542   3.268 -1.7698  0.0530  0.3587
 2773TIP3    H229735   0.774   4.659   3.186  0.7749 -0.2260  1.4400
 2774TIP3   OH229736   2.415   3.032  14.293 -0.9621 -0.0850  0.3204
 2774TIP3    H129737   2.346   2.978  14.332 -0.6991 -0.0974  0.7828
 2774TIP3    H229738   2.483   2.971  14.267 -2.2643 -0.3910 -2.7178
 2775TIP3   OH229739   0.906   0.576  13.796  0.0088 -0.0744 -0.3923
 2775TIP3    H129740   0.824   0.554  13.751 -0.9866  0.5358  1.0438
 2775TIP3    H229741   0.962   0.499  13.783 -0.1297  0.1815 -2.8331
 2776TIP3   OH229742   4.008   4.012  16.956  0.3023  0.1461  0.4187
 2776TIP3    H129743   4.054   4.032  17.037  1.2205 -0.7042  0.1332
 2776TIP3    H229744   4.020   3.918  16.944  1.2129  0.4162 -1.2837
 2777TIP3   OH229745   6.055   4.974   4.759 -0.0990  0.0207  0.1958
 2777TIP3    H129746   5.977   4.960   4.813  0.8405 -0.3680  1.5008
 2777TIP3    H229747   6.123   5.000   4.822  1.0295 -0.4558 -0.7932
 2778TIP3   OH229748   4.731   1.205  17.297  0.2562  0.7131 -0.4929
 2778TIP3    H129749   4.673   1.168  17.364  0.5665  1.0611 -0.0224
 2778TIP3    H229750   4.681   1.277  17.259 -0.1142  0.1971 -0.9863
 2779TIP3   OH229751   1.995   1.873   2.622 -0.0262 -0.2420 -0.0025
 2779TIP3    H129752   1.980   1.859   2.716 -2.2947  1.5488 -0.0096
 2779TIP3    H229753   2.078   1.920   2.618 -0.3266  0.4435  1.1904
 2780TIP3   OH229754   5.444   1.889   0.410  0.0752  0.5466 -0.0074
 2780TIP3    H129755   5.535   1.903   0.383  0.4281  1.6597  1.5812
 2780TIP3    H229756   5.392   1.920   0.336  0.9916  1.2869 -0.3671
 2781TIP3   OH229757   2.930   2.409   5.360  0.7798 -0.0675 -0.7987
 2781TIP3    H129758   2.837   2.414   5.338  0.6065 -1.9923 -0.7008
 2781TIP3    H229759   2.932   2.369   5.447  1.7003  0.6971 -0.4406
 2782TIP3   OH229760   6.489   3.758   4.598 -0.2133  0.0687  0.0546
 2782TIP3    H129761   6.436   3.729   4.523 -0.6488 -0.6791  0.6469
 2782TIP3    H229762   6.488   3.854   4.591 -0.6947  0.0281 -0.5906
 2783TIP3   OH229763   3.258   0.587  15.787 -0.3493 -0.2202 -0.2148
 2783TIP3    H129764   3.335   0.574  15.842 -0.5183 -2.8287 -0.4752
 2783TIP3    H229765   3.189   0.537  15.831 -0.9224 -0.9670 -1.8913
 2784TIP3   OH229766   1.895   1.996   1.640 -0.3562  0.1578 -0.3408
 2784TIP3    H129767   1.808   2.023   1.669 -0.3970 -0.9614  0.6812
 2784TIP3    H229768   1.955   2.034   1.704 -0.3833 -1.6392  0.8522
 2785TIP3   OH229769   5.757   6.606   5.623  0.3259  0.1408 -0.2116
 2785TIP3    H129770   5.813   6.534   5.597  0.7335  0.2926  0.2359
 2785TIP3    H229771   5.722   6.580   5.708 -0.8661 -0.2783 -0.8015
 2786TIP3   OH229772   3.548   3.777   2.134  0.4872 -0.8380  0.1824
 2786TIP3    H129773   3.546   3.742   2.045 -0.1462 -0.6058  0.1014
 2786TIP3    H229774   3.606   3.853   2.128  0.1688 -0.6125 -0.1145
 2787TIP3   OH229775   5.400   6.645   3.301  0.5680  0.0422  0.0544
 2787TIP3    H129776   5.486   6.611   3.322 -0.2782 -2.3131  0.0219
 2787TIP3    H229777   5.388   6.626   3.208  0.6845  2.0166 -0.4120
 2788TIP3   OH229778   2.444   5.016  14.722 -0.3900  0.5871 -0.2960
 2788TIP3    H129779   2.468   5.018  14.815 -0.1214 -1.4016 -0.2699
 2788TIP3    H229780   2.524   4.988  14.678 -0.7124  0.8432 -1.0566
 2789TIP3   OH229781   0.279   1.700  16.633 -0.0428  0.3763  0.3984
 2789TIP3    H129782   0.242   1.751  16.704 -2.3875 -1.0198  0.2879
 2789TIP3    H229783   0.267   1.754  16.555 -0.0082  0.7586  0.6550
 2790TIP3   OH229784   3.382   1.578  17.241 -0.4367  0.3309  0.7869
 2790TIP3    H129785   3.429   1.569  17.324 -0.1439  2.3698  0.8840
 2790TIP3    H229786   3.292   1.555  17.261 -0.3610  0.7755  1.6708
 2791TIP3   OH229787   1.961   1.693  14.776 -0.2224 -0.1433 -0.3707
 2791TIP3    H129788   1.959   1.634  14.852 -1.7754 -0.5087 -0.6573
 2791TIP3    H229789   1.909   1.769  14.804 -1.4135 -0.5928 -1.2792
 2792TIP3   OH229790   4.632   0.391   0.142  0.5047 -0.4688  0.3664
 2792TIP3    H129791   4.648   0.485   0.131  0.5506 -0.3585  1.2614
 2792TIP3    H229792   4.555   0.386   0.199  0.3151 -0.9765  0.0711
 2793TIP3   OH229793   5.725   0.348  14.191 -0.2451 -0.2049 -1.0404
 2793TIP3    H129794   5.763   0.397  14.118  1.4822 -4.4078 -3.3160
 2793TIP3    H229795   5.796   0.291  14.221 -1.5525 -0.1827  2.6423
 2794TIP3   OH229796   6.299   3.413   4.243  0.4442  0.0982 -0.4838
 2794TIP3    H129797   6.394   3.401   4.235  0.4470 -0.5988  0.3753
 2794TIP3    H229798   6.264   3.379   4.160  1.0646  2.5249 -1.8216
 2795TIP3   OH229799   4.259   0.321   2.073 -0.2044 -0.4266 -0.4934
 2795TIP3    H129800   4.218   0.398   2.033  1.3095  0.7209  0.0448
 2795TIP3    H229801   4.275   0.262   2.000  0.4156  0.6417 -1.2557
 2796TIP3   OH229802   1.680   1.087   3.903 -0.2694  0.3011 -0.0696
 2796TIP3    H129803   1.704   1.092   3.810 -0.8914  1.4054 -0.1961
 2796TIP3    H229804   1.761   1.110   3.949 -0.4308  1.6783 -0.4192
 2797TIP3   OH229805   0.624   4.227   6.817 -0.4542  0.3040 -0.2682
 2797TIP3    H129806   0.611   4.321   6.806  1.7918  0.6002 -0.8834
 2797TIP3    H229807   0.613   4.190   6.730 -2.9518 -0.3178  0.2161
 2798TIP3   OH229808   0.125   4.767   3.367 -0.2855  0.2614  0.4887
 2798TIP3    H129809   0.196   4.753   3.304 -1.1692  1.3038 -0.7895
 2798TIP3    H229810   0.162   4.828   3.430  0.1975  0.2018  0.2750
 2799TIP3   OH229811   3.672   6.499   5.480  0.0731 -0.0706 -0.0997
 2799TIP3    H129812   3.722   6.477   5.558 -0.9482  0.2506  0.6680
 2799TIP3    H229813   3.596   6.546   5.513 -1.1078 -1.1491 -1.1631
 2800TIP3   OH229814   2.241   1.464  11.147 -0.6761 -0.4024  0.0556
 2800TIP3    H129815   2.182   1.406  11.195  1.0720 -0.3875  2.3745
 2800TIP3    H229816   2.327   1.421  11.152 -0.0419  0.6233 -1.3303
 2801TIP3   OH229817   0.064   5.308  12.788  0.6516 -0.3602 -0.2619
 2801TIP3    H129818  -0.020   5.351  12.801  2.9992  4.1013  2.7383
 2801TIP3    H229819   0.093   5.338  12.702  0.1573 -0.0730 -0.3310
 2802TIP3   OH229820   3.101   5.600   4.151  0.9444 -0.0269 -0.2285
 2802TIP3    H129821   3.156   5.677   4.162 -3.1586  3.1627  0.7571
 2802TIP3    H229822   3.047   5.598   4.231 -1.2023 -2.0136 -1.5911
 2803TIP3   OH229823   1.950   4.162  16.425 -0.0473 -0.3982 -0.4356
 2803TIP3    H129824   1.949   4.151  16.330 -1.2814  1.7166 -0.7245
 2803TIP3    H229825   1.989   4.081  16.458 -0.1131 -1.4217 -2.6953
 2804TIP3   OH229826   5.408   5.855   4.117  0.2058 -0.8501  0.2007
 2804TIP3    H129827   5.397   5.896   4.031  1.4018 -2.4052 -0.7574
 2804TIP3    H229828   5.323   5.864   4.159  0.4811  2.8933  0.2657
 2805TIP3   OH229829   0.479   1.432  16.856  0.0649 -0.5125 -0.2230
 2805TIP3    H129830   0.566   1.418  16.819  0.9116 -1.5096  1.9320
 2805TIP3    H229831   0.484   1.517  16.899 -0.7842  0.4606 -1.9617
 2806TIP3   OH229832   5.372   5.789  10.527  0.2559  0.2572  0.3600
 2806TIP3    H129833   5.449   5.753  10.484 -0.2770 -0.4415 -0.0401
 2806TIP3    H229834   5.312   5.714  10.536 -0.8285  0.9980 -0.3727
 2807TIP3   OH229835   3.531   1.299   3.641  0.7158  0.0051  0.1535
 2807TIP3    H129836   3.522   1.211   3.603  1.2206  0.0567 -0.1069
 2807TIP3    H229837   3.625   1.306   3.661  0.5120  0.1186  1.0900
 2808TIP3   OH229838   6.320   5.978  12.723 -0.6774  0.3704  0.1402
 2808TIP3    H129839   6.411   5.950  12.728  0.0547  2.6845  1.2185
 2808TIP3    H229840   6.269   5.902  12.751  1.1545  0.0445  3.0219
 2809TIP3   OH229841   5.320   1.509   5.527  0.1011 -0.7170  0.4686
 2809TIP3    H129842   5.234   1.481   5.497 -0.0956  1.0818 -0.7934
 2809TIP3    H229843   5.380   1.446   5.486 -0.1658  1.4526 -3.9230
 2810TIP3   OH229844   5.333   2.506   5.286  0.3169 -0.1958  0.1587
 2810TIP3    H129845   5.396   2.527   5.217  0.9238 -2.6084 -0.0909
 2810TIP3    H229846   5.337   2.411   5.294 -2.3741 -0.3046  1.0453
 2811TIP3   OH229847   1.798   4.863   0.637 -0.6643 -0.2121 -0.4698
 2811TIP3    H129848   1.776   4.814   0.558 -0.4338 -0.2618 -0.5046
 2811TIP3    H229849   1.732   4.837   0.701 -0.5696 -0.5320 -0.5005
 2812TIP3   OH229850   5.789   2.285   1.248  0.4291  0.2700  0.4197
 2812TIP3    H129851   5.869   2.322   1.288  1.0002 -0.1858 -0.2769
 2812TIP3    H229852   5.822   2.225   1.181 -0.5168  0.8392 -0.5699
 2813TIP3   OH229853   0.345   3.809   3.503  0.2132 -0.2393 -0.1066
 2813TIP3    H129854   0.391   3.856   3.434 -0.1265 -1.0935 -0.9453
 2813TIP3    H229855   0.399   3.731   3.519  0.4794  0.1280  0.8649
 2814TIP3   OH229856   0.751   5.489   1.183 -0.1506  0.2999 -0.2948
 2814TIP3    H129857   0.768   5.397   1.202  2.8954  0.4269 -1.8544
 2814TIP3    H229858   0.773   5.535   1.264  1.2490 -0.1317 -0.4012
 2815TIP3   OH229859   3.667   0.077  14.449 -0.7607  0.5280 -0.4172
 2815TIP3    H129860   3.603   0.057  14.518 -0.5490 -1.4534 -0.7567
 2815TIP3    H229861   3.677  -0.004  14.400  0.4271  1.4030 -1.7206
 2816TIP3   OH229862   3.673   2.708   3.169 -0.2477 -0.4032 -0.4361
 2816TIP3    H129863   3.649   2.772   3.103  0.2882  0.0035 -0.2504
 2816TIP3    H229864   3.764   2.731   3.192 -0.4780 -0.4383  0.5398
 2817TIP3   OH229865   2.626   5.517  12.302  0.4410  0.1007 -0.6553
 2817TIP3    H129866   2.716   5.502  12.273  0.2015 -1.0983 -0.8120
 2817TIP3    H229867   2.582   5.552  12.225  0.8854  1.1862 -0.4332
 2818TIP3   OH229868   5.884   5.653   2.882  0.0187  0.1401  0.1008
 2818TIP3    H129869   5.803   5.705   2.878  0.3843  0.7221  0.0899
 2818TIP3    H229870   5.936   5.696   2.951 -0.0896 -0.8318  0.8096
 2819TIP3   OH229871   4.844   2.037  12.959  0.0309  0.2100 -0.3332
 2819TIP3    H129872   4.864   1.971  12.893 -1.4524  1.2645 -1.9341
 2819TIP3    H229873   4.800   1.988  13.029  1.5191 -0.9121 -0.1321
 2820TIP3   OH229874   0.403   6.073  15.542 -0.4034  0.1718 -0.5777
 2820TIP3    H129875   0.402   6.058  15.636 -0.0940  1.9597 -0.2520
 2820TIP3    H229876   0.328   6.024  15.509 -0.5262 -0.4634  0.6035
 2821TIP3   OH229877   5.436   5.046  11.636 -0.3464  0.1773 -0.3866
 2821TIP3    H129878   5.361   5.086  11.592  0.2198  0.7093 -0.8711
 2821TIP3    H229879   5.436   4.955  11.604 -0.8741  0.1257 -0.2556
 2822TIP3   OH229880   4.708   4.694   1.491 -0.1082  0.5146 -0.2971
 2822TIP3    H129881   4.635   4.636   1.472  0.9176 -0.8961 -0.0883
 2822TIP3    H229882   4.669   4.781   1.494 -1.5954 -0.0730 -1.2074
 2823TIP3   OH229883   5.789   3.607  10.807 -0.4353 -0.6865 -0.8019
 2823TIP3    H129884   5.773   3.593  10.714 -0.6647  0.0625 -0.8845
 2823TIP3    H229885   5.884   3.622  10.813 -0.5435  0.1462 -1.0434
 2824TIP3   OH229886   5.999   0.215  12.664 -0.3288  0.1170  0.3076
 2824TIP3    H129887   5.978   0.231  12.572  0.0782  1.0160  0.3603
 2824TIP3    H229888   6.033   0.125  12.666  0.3593  0.3420 -0.5526
 2825TIP3   OH229889   4.874   3.886   5.729 -0.1250  0.4875  0.6378
 2825TIP3    H129890   4.811   3.947   5.691  1.5232  1.6780 -0.3185
 2825TIP3    H229891   4.937   3.942   5.775  0.2806 -0.6484  1.5232
 2826TIP3   OH229892   2.009   0.065  14.609  0.6066 -0.2390 -0.5777
 2826TIP3    H129893   1.974  -0.024  14.608 -1.4405  0.5089 -0.5467
 2826TIP3    H229894   2.072   0.068  14.537 -0.1136 -1.3959 -1.2693
 2827TIP3   OH229895   1.573   6.025  14.070  0.2992  0.0437 -0.0539
 2827TIP3    H129896   1.619   6.074  14.002 -1.0975 -0.3661 -1.3610
 2827TIP3    H229897   1.480   6.042  14.053 -0.1103 -0.7880  1.2084
 2828TIP3   OH229898   3.651   1.411   3.340 -0.0574  0.2884  0.0090
 2828TIP3    H129899   3.680   1.330   3.382 -1.0297 -0.6636 -1.0898
 2828TIP3    H229900   3.665   1.478   3.407  0.1236 -0.8838  1.2066
 2829TIP3   OH229901   0.497   2.844  14.446  0.1057  0.6780 -0.4527
 2829TIP3    H129902   0.530   2.790  14.374 -0.3036  0.1079 -0.2153
 2829TIP3    H229903   0.551   2.819  14.521 -0.1313  0.5465 -0.3259
 2830TIP3   OH229904   1.922   0.083   5.740 -0.3226 -0.0354  0.4461
 2830TIP3    H129905   1.951   0.125   5.659 -1.6256  2.8468  1.3175
 2830TIP3    H229906   1.839   0.041   5.717  0.0437 -0.5110 -0.0267
 2831TIP3   OH229907   2.065   6.364   1.352  0.3596  0.2537 -0.0695
 2831TIP3    H129908   2.150   6.398   1.327  0.8731 -0.0679  1.1752
 2831TIP3    H229909   2.084   6.292   1.412 -0.7644 -0.6809 -0.7904
 2832TIP3   OH229910   5.218   3.423  15.912  0.6250  0.0070 -0.1946
 2832TIP3    H129911   5.283   3.481  15.952 -0.6940  0.9362  0.6442
 2832TIP3    H229912   5.257   3.399  15.827  2.0131  0.6140  0.2414
 2833TIP3   OH229913   0.811   1.629   2.865  0.3847 -0.6778  0.4559
 2833TIP3    H129914   0.770   1.572   2.800 -2.4321 -0.0264  1.5288
 2833TIP3    H229915   0.886   1.579   2.897  0.2356 -2.1428 -1.3329
 2834TIP3   OH229916   0.713   2.539   3.646  0.4477 -1.6646  0.4308
 2834TIP3    H129917   0.801   2.548   3.684  0.0679  1.1048  0.8533
 2834TIP3    H229918   0.655   2.530   3.722  0.2766 -2.8255  0.1789
 2835TIP3   OH229919   6.169   2.755   5.355 -0.7999 -0.6875 -0.2051
 2835TIP3    H129920   6.154   2.841   5.316  1.5404 -0.1216  0.0029
 2835TIP3    H229921   6.264   2.749   5.364 -0.9985 -2.7088  1.1545
 2836TIP3   OH229922   2.999   1.529  15.806 -0.4215  0.3905  0.2698
 2836TIP3    H129923   3.019   1.583  15.729  1.5735  0.4237  0.7508
 2836TIP3    H229924   3.030   1.442  15.782  0.6844  0.5066  1.1816
 2837TIP3   OH229925   5.177   1.558   0.682  0.6493 -0.5194 -0.1933
 2837TIP3    H129926   5.150   1.648   0.666  1.6354 -0.1728  0.0328
 2837TIP3    H229927   5.272   1.559   0.672  0.5872 -1.7672 -1.3208
 2838TIP3   OH229928   2.793   3.876   4.137 -0.0423 -0.1574 -0.2321
 2838TIP3    H129929   2.834   3.877   4.223 -1.0366 -1.9762  0.3112
 2838TIP3    H229930   2.718   3.934   4.145 -0.1272 -0.3159  0.1152
 2839TIP3   OH229931   6.625   0.737  12.404  0.3853  0.0905 -0.8532
 2839TIP3    H129932   6.709   0.697  12.381  0.0575  0.1897 -2.3397
 2839TIP3    H229933   6.641   0.781  12.488  1.7736 -0.0031 -1.0525
 2840TIP3   OH229934   2.112   2.808  16.421  0.0030  0.2281 -0.5227
 2840TIP3    H129935   2.021   2.780  16.424  0.3638 -1.0689 -0.7820
 2840TIP3    H229936   2.133   2.834  16.510 -0.7859  1.1443 -0.5882
 2841TIP3   OH229937   1.941   1.062   5.555  0.4006 -0.0663 -0.1029
 2841TIP3    H129938   1.913   1.126   5.489 -0.0871 -0.2623 -0.0910
 2841TIP3    H229939   1.874   1.069   5.623  0.2792 -0.6742 -0.1594
 2842TIP3   OH229940   2.020   2.097  13.427  0.3818 -0.2124 -0.1863
 2842TIP3    H129941   1.939   2.146  13.435  1.0472  1.2902 -1.8836
 2842TIP3    H229942   2.026   2.075  13.334  1.8082 -0.4696 -0.0600
 2843TIP3   OH229943   1.545   1.317   5.069 -0.5150  0.6170 -0.5080
 2843TIP3    H129944   1.507   1.309   4.981 -2.7391  1.2423  0.3178
 2843TIP3    H229945   1.498   1.391   5.108 -0.8748 -0.7480  1.8254
 2844TIP3   OH229946   6.415   0.815  11.276  0.1815  0.7548 -0.1639
 2844TIP3    H129947   6.443   0.759  11.204 -1.1475 -0.7428  0.4251
 2844TIP3    H229948   6.492   0.822  11.333  0.0602 -1.5993  0.4056
 2845TIP3   OH229949   4.727   1.099   4.604 -0.0197 -0.5325 -0.1435
 2845TIP3    H129950   4.785   1.171   4.629  1.2363 -1.2092 -1.0483
 2845TIP3    H229951   4.639   1.139   4.604  0.6299  0.9620 -0.4821
 2846TIP3   OH229952   3.690   1.074   4.217 -0.6007 -0.0730  0.5243
 2846TIP3    H129953   3.730   1.124   4.288  0.3513  0.0058 -0.0471
 2846TIP3    H229954   3.734   0.989   4.218 -0.9944 -0.2858  0.3981
 2847TIP3   OH229955   5.760   1.643   4.801  0.0725  0.6381 -0.0141
 2847TIP3    H129956   5.800   1.724   4.830 -0.9835  1.4646 -0.7711
 2847TIP3    H229957   5.696   1.670   4.735 -0.8386 -0.7396  0.2622
 2848TIP3   OH229958   0.482   4.019   5.717  0.0700 -0.2662 -0.3254
 2848TIP3    H129959   0.468   3.962   5.641 -1.5058  0.9868 -1.0124
 2848TIP3    H229960   0.537   4.090   5.683  0.2349 -0.2400 -0.0068
 2849TIP3   OH229961   0.637   0.350  14.733  0.3183  0.5191 -0.4144
 2849TIP3    H129962   0.698   0.279  14.753  0.6353  0.5180 -1.3485
 2849TIP3    H229963   0.692   0.424  14.710 -0.0258  0.5576 -1.1321
 2850TIP3   OH229964   1.881   3.867   0.699 -0.0425  0.1719  0.8211
 2850TIP3    H129965   1.793   3.830   0.687 -0.2195  0.6244  0.6653
 2850TIP3    H229966   1.898   3.857   0.793  0.8823 -2.3678  0.4514
 2851TIP3   OH229967   1.874   6.036   0.014  0.2238  0.0900  0.5983
 2851TIP3    H129968   1.907   6.039   0.104 -0.5266 -1.1849  0.9486
 2851TIP3    H229969   1.859   5.943  -0.003 -0.5535  0.3934 -0.5068
 2852TIP3   OH229970   1.767   4.363  12.348 -0.3366  0.8724  0.2765
 2852TIP3    H129971   1.736   4.449  12.318  0.6641  1.3485  0.5817
 2852TIP3    H229972   1.858   4.359  12.320 -0.5940 -0.4375 -0.4409
 2853TIP3   OH229973   5.437   1.314   4.277 -0.6305  0.9075 -0.1814
 2853TIP3    H129974   5.368   1.379   4.265 -1.7219 -0.4480 -1.8054
 2853TIP3    H229975   5.515   1.365   4.300 -1.3328  2.8309 -1.7951
 2854TIP3   OH229976   6.565   5.592  13.662  0.1518  1.0458 -0.5001
 2854TIP3    H129977   6.580   5.536  13.586 -0.4453  1.4906 -0.9562
 2854TIP3    H229978   6.586   5.680  13.631  1.4577  1.0485  0.3202
 2855TIP3   OH229979   3.017   0.500  14.142 -0.2060  0.0984 -0.0238
 2855TIP3    H129980   2.952   0.453  14.090  1.5054 -1.1002 -1.2011
 2855TIP3    H229981   3.007   0.464  14.230 -1.3203  0.1601 -0.1084
 2856TIP3   OH229982   1.639   0.832   0.015 -0.1290  0.1634  0.2427
 2856TIP3    H129983   1.649   0.740  -0.012  1.8618 -0.5447  2.8958
 2856TIP3    H229984   1.722   0.873  -0.011 -0.9809  1.2548 -0.8685
 2857TIP3   OH229985   5.610   4.726   4.455 -0.2414  0.2107  0.4215
 2857TIP3    H129986   5.639   4.731   4.546  1.1133 -2.3616  0.2337
 2857TIP3    H229987   5.691   4.717   4.405 -1.0371  0.0669 -0.8700
 2858TIP3   OH229988   5.669   3.277  16.378 -0.2779  0.3008 -0.4904
 2858TIP3    H129989   5.667   3.198  16.431  0.2311 -0.9834 -2.2711
 2858TIP3    H229990   5.584   3.318  16.392 -0.4908 -0.4811  0.5847
 2859TIP3   OH229991   6.199   4.294  16.635  0.2258  0.2565  0.2950
 2859TIP3    H129992   6.244   4.215  16.604  1.8783  0.3577  2.2332
 2859TIP3    H229993   6.170   4.338  16.555  2.3556 -0.5535 -1.0109
 2860TIP3   OH229994   2.381   3.760  16.995 -0.6130 -0.0332 -0.7313
 2860TIP3    H129995   2.451   3.758  17.060  1.0276 -0.1567 -2.4235
 2860TIP3    H229996   2.303   3.735  17.044  0.5256 -0.0416  1.1991
 2861TIP3   OH229997   0.730   3.902   6.671 -0.0156 -0.6025 -0.1489
 2861TIP3    H129998   0.823   3.897   6.649 -0.2663 -0.5584 -1.2273
 2861TIP3    H229999   0.730   3.923   6.765  1.0565 -1.1454 -0.0011
 2862TIP3   OH230000   0.647   0.907  10.997  0.1125 -0.1180  0.4584
 2862TIP3    H130001   0.667   0.815  10.979  0.0033  0.0978 -0.8475
 2862TIP3    H230002   0.722   0.955  10.964 -0.8835  0.4290 -1.1222
 2863TIP3   OH230003   6.406   0.066  11.043 -0.1830  0.2934  0.4207
 2863TIP3    H130004   6.362   0.014  10.976 -2.0155  2.5604 -0.2816
 2863TIP3    H230005   6.499   0.056  11.024 -0.5956 -0.4657 -1.4232
 2864TIP3   OH230006   3.906   2.989   3.444 -0.1365 -0.2183  0.2297
 2864TIP3    H130007   3.818   2.981   3.408  0.4356  0.3164 -1.3878
 2864TIP3    H230008   3.949   3.055   3.389  1.5302 -1.0510  0.4646
 2865TIP3   OH230009   5.030   1.201   1.860 -0.2319  0.0937 -0.0300
 2865TIP3    H130010   5.102   1.158   1.815 -0.9469 -0.1300 -0.9945
 2865TIP3    H230011   4.952   1.174   1.812 -0.9742  0.2728  1.0319
 2866TIP3   OH230012   0.114   2.929  14.333  0.7501  0.3012 -0.1376
 2866TIP3    H130013   0.139   2.842  14.303 -1.6719 -0.3484 -0.4723
 2866TIP3    H230014   0.160   2.989  14.274  1.7520 -0.7558 -0.4655
 2867TIP3   OH230015   1.074   5.809  13.971 -0.1177  0.2027  0.2038
 2867TIP3    H130016   1.157   5.771  13.998  0.0779  0.1048 -0.4977
 2867TIP3    H230017   1.016   5.796  14.045  0.7842  1.2520  1.1215
 2868TIP3   OH230018   2.143   5.686   0.370  0.1429 -0.2307  1.0295
 2868TIP3    H130019   2.115   5.602   0.407 -0.5726 -0.1370  0.7317
 2868TIP3    H230020   2.122   5.750   0.438 -1.6250  0.0029  0.3136
 2869TIP3   OH230021   3.962   4.661  11.322 -0.1565  0.2871 -0.2347
 2869TIP3    H130022   3.961   4.709  11.239 -0.8852  0.0991 -0.3395
 2869TIP3    H230023   3.921   4.721  11.385 -0.7823 -0.0672 -0.2975
 2870TIP3   OH230024   6.662   6.713   3.164  0.5712  1.0716 -0.2878
 2870TIP3    H130025   6.643   6.627   3.201  0.7966  1.0552 -0.2081
 2870TIP3    H230026   6.749   6.704   3.125  1.2742  1.6753  1.0538
 2871TIP3   OH230027   0.916   4.711  16.547  0.2004  0.1725 -0.5069
 2871TIP3    H130028   0.963   4.729  16.465 -0.3320  0.5079 -0.7412
 2871TIP3    H230029   0.985   4.701  16.613  0.5553  2.6676 -0.4250
 2872TIP3   OH230030   0.658   5.151   5.584  0.0791  0.7229  0.0508
 2872TIP3    H130031   0.701   5.168   5.668  0.7441  1.0669 -0.3504
 2872TIP3    H230032   0.584   5.095   5.606  1.4418 -0.9372  0.6316
 2873TIP3   OH230033   3.778   2.539   1.291 -0.7379 -0.6799 -0.3916
 2873TIP3    H130034   3.735   2.556   1.207  1.1793  0.0621 -1.2716
 2873TIP3    H230035   3.803   2.447   1.286 -0.1676 -0.5084 -0.8823
 2874TIP3   OH230036   6.537   4.809  14.806  0.3647  0.7525 -0.5633
 2874TIP3    H130037   6.633   4.813  14.800  0.5587 -0.2891  1.1209
 2874TIP3    H230038   6.519   4.829  14.898 -1.0834  1.4249 -0.9727
 2875TIP3   OH230039   5.821   2.188   3.509  0.2922 -0.3475  0.6157
 2875TIP3    H130040   5.857   2.133   3.578 -2.1010  0.3659  2.6017
 2875TIP3    H230041   5.822   2.277   3.546  0.0275  0.2431 -0.7330
 2876TIP3   OH230042   2.671   5.022   5.003  0.0654 -0.3832  0.1821
 2876TIP3    H130043   2.753   5.063   4.976  0.3607 -1.9201 -1.4412
 2876TIP3    H230044   2.682   5.008   5.097  0.6776  1.5127  0.4431
 2877TIP3   OH230045   5.510   2.026  11.370 -0.6517 -0.1017  0.0226
 2877TIP3    H130046   5.593   2.033  11.323 -0.8047  0.0738 -0.2242
 2877TIP3    H230047   5.480   2.116  11.379 -1.2552 -0.2157 -0.6937
 2878TIP3   OH230048   6.702   0.017  14.559 -0.0788 -0.2037  0.6171
 2878TIP3    H130049   6.776  -0.023  14.513  0.3248  1.1857  0.0138
 2878TIP3    H230050   6.625  -0.015  14.513  0.1372 -1.4912  1.1144
 2879TIP3   OH230051   2.794   0.504  11.112  0.0497  0.4342  0.7406
 2879TIP3    H130052   2.850   0.426  11.111  0.0073  0.3989  1.0258
 2879TIP3    H230053   2.803   0.539  11.200  0.0717  0.7571  0.6111
 2880TIP3   OH230054   6.049   5.439  11.341  0.2791  0.0028 -0.4420
 2880TIP3    H130055   6.043   5.360  11.394  0.6842  0.0570 -0.3150
 2880TIP3    H230056   6.082   5.408  11.256  0.3492  0.0240 -0.4219
 2881TIP3   OH230057   2.804   5.614   4.059  0.1200  0.1345  0.4018
 2881TIP3    H130058   2.834   5.701   4.034 -0.0895  0.5744  1.6090
 2881TIP3    H230059   2.870   5.555   4.023  0.5003  0.8182 -0.0523
 2882TIP3   OH230060   3.102   6.211  13.159 -0.6409 -0.3938  0.0809
 2882TIP3    H130061   3.098   6.299  13.120  1.6947 -1.3991 -2.8092
 2882TIP3    H230062   3.013   6.194  13.188 -1.3011  2.6951  0.2578
 2883TIP3   OH230063   2.388   4.533  11.936 -0.4912  0.1330  0.3186
 2883TIP3    H130064   2.439   4.587  11.996 -0.2579 -0.4360  0.6428
 2883TIP3    H230065   2.397   4.575  11.851 -1.9349  1.7313  0.9088
 2884TIP3   OH230066   0.744   4.450  12.853 -0.2218  0.1349 -0.9790
 2884TIP3    H130067   0.727   4.488  12.767 -0.4845  2.1075 -0.0833
 2884TIP3    H230068   0.670   4.391  12.869 -1.4442  1.6025 -1.0855
 2885TIP3   OH230069   2.789   3.523   1.611 -0.2038  0.2735 -0.2566
 2885TIP3    H130070   2.822   3.452   1.556  0.6431  1.2061 -0.9927
 2885TIP3    H230071   2.833   3.601   1.577 -0.7802  1.0813  0.8212
 2886TIP3   OH230072   5.954   3.734   0.932  0.5611 -0.2644  0.3918
 2886TIP3    H130073   5.887   3.676   0.968  0.9612 -0.6685  0.4912
 2886TIP3    H230074   6.007   3.679   0.875 -0.2220  0.4298 -1.0693
 2887TIP3   OH230075   1.829   2.983  14.117 -0.0882  0.1724 -0.1697
 2887TIP3    H130076   1.835   3.070  14.078 -1.1151  0.2606 -0.1551
 2887TIP3    H230077   1.916   2.966  14.153 -0.3347  1.9532  1.4275
 2888TIP3   OH230078   5.618   4.371   5.572  0.2110 -0.3338 -0.2456
 2888TIP3    H130079   5.648   4.461   5.560 -1.1960 -0.0886 -2.5967
 2888TIP3    H230080   5.668   4.320   5.509  2.1653 -1.6072  2.1483
 2889TIP3   OH230081   6.271   1.583   2.882 -0.5219  0.3457 -0.3223
 2889TIP3    H130082   6.319   1.513   2.837  0.2882 -0.4502  1.6531
 2889TIP3    H230083   6.339   1.645   2.909 -0.6737 -0.2455  1.5623
 2890TIP3   OH230084   5.785   3.201  16.150  0.2459 -0.0194 -0.3846
 2890TIP3    H130085   5.741   3.250  16.220  0.0277 -2.1588  1.0543
 2890TIP3    H230086   5.718   3.192  16.082 -1.2242 -2.0539  1.2063
 2891TIP3   OH230087   2.436   4.166  12.261  0.8275  0.1235  0.4038
 2891TIP3    H130088   2.464   4.209  12.180  0.2838  1.7517  1.0421
 2891TIP3    H230089   2.415   4.077  12.234  4.4879 -0.6516 -0.4981
 2892TIP3   OH230090   6.154   0.030   1.327  0.1684  0.1276  0.0101
 2892TIP3    H130091   6.218  -0.041   1.320  1.0779  0.9047  0.2727
 2892TIP3    H230092   6.085   0.005   1.266  1.0841 -0.3620 -0.8708
 2893TIP3   OH230093   5.811   6.042  12.642  0.0773  0.1662 -0.3219
 2893TIP3    H130094   5.827   5.953  12.613 -0.6208  0.0832 -0.4787
 2893TIP3    H230095   5.896   6.086  12.635  1.0574 -1.1312  2.1923
 2894TIP3   OH230096   3.425   3.962   0.227  0.0018  0.2321 -0.0286
 2894TIP3    H130097   3.410   3.867   0.232 -0.9318  0.3810  0.2566
 2894TIP3    H230098   3.400   3.995   0.313 -0.1036  0.7932 -0.2704
 2895TIP3   OH230099   4.171   3.501   0.665 -0.9149 -0.1029 -0.1140
 2895TIP3    H130100   4.236   3.557   0.707  0.3111 -0.0849 -1.9117
 2895TIP3    H230101   4.090   3.552   0.668 -0.2865  0.9143  0.0331
 2896TIP3   OH230102   5.149   2.656   0.229  0.0810  0.5152 -0.6557
 2896TIP3    H130103   5.232   2.634   0.187  0.2403  0.6467 -0.4078
 2896TIP3    H230104   5.146   2.751   0.229  0.0306  0.5151 -0.4693
 2897TIP3   OH230105   1.916   0.542  15.383 -0.4801  0.4159  0.2886
 2897TIP3    H130106   1.903   0.631  15.352 -1.8718 -0.1970 -1.0227
 2897TIP3    H230107   2.000   0.515  15.344  0.0297  1.1909  0.8292
 2898TIP3   OH230108   3.298   2.058  11.673 -0.4560 -0.4623 -0.4556
 2898TIP3    H130109   3.387   2.075  11.639 -0.8680 -3.6278 -3.7861
 2898TIP3    H230110   3.245   2.128  11.634  0.3730  1.1196  1.0931
 2899TIP3   OH230111   0.162   0.178  13.172  0.0309  0.5376  0.0794
 2899TIP3    H130112   0.162   0.083  13.169 -0.5203  0.5231  0.2990
 2899TIP3    H230113   0.069   0.202  13.164  0.1677  1.0531 -0.0044
 2900TIP3   OH230114   0.473   5.504   1.610 -0.6809 -0.1298  0.3195
 2900TIP3    H130115   0.521   5.574   1.654 -0.8413  0.5877 -0.6142
 2900TIP3    H230116   0.474   5.529   1.518 -2.6177 -0.2233  0.2391
 2901TIP3   OH230117   4.256   0.271   1.128 -0.4227 -0.2798 -0.1275
 2901TIP3    H130118   4.340   0.304   1.159 -0.6842  2.2060 -1.8193
 2901TIP3    H230119   4.279   0.207   1.061  0.0951 -0.6826  0.4213
 2902TIP3   OH230120   3.505   6.384  17.326  0.1856 -0.2091  0.5869
 2902TIP3    H130121   3.510   6.477  17.348  0.5405  0.1915 -1.0257
 2902TIP3    H230122   3.453   6.382  17.246  0.6140 -1.3507  0.3245
 2903TIP3   OH230123   3.435   1.441  13.270  0.3517 -0.0354  0.3365
 2903TIP3    H130124   3.380   1.438  13.348 -0.8056  0.8747 -0.4236
 2903TIP3    H230125   3.389   1.387  13.206 -0.4212  1.8351 -0.7525
 2904TIP3   OH230126   3.226   4.950   5.704 -0.4510  0.0760 -0.3659
 2904TIP3    H130127   3.237   4.866   5.658 -1.5071  0.0997 -0.6952
 2904TIP3    H230128   3.179   4.927   5.784 -1.4488  0.4448 -0.8321
 2905TIP3   OH230129   3.180   4.201  14.898 -0.0824  0.2134 -0.1666
 2905TIP3    H130130   3.172   4.257  14.821  1.2819  0.7567  0.0660
 2905TIP3    H230131   3.271   4.170  14.896 -0.4597 -0.9958  0.3971
 2906TIP3   OH230132   1.453   1.402   0.690 -0.3460 -0.1648 -0.4770
 2906TIP3    H130133   1.546   1.378   0.692 -0.2852  0.0545 -0.7467
 2906TIP3    H230134   1.426   1.397   0.782 -0.6707 -2.5918 -0.6256
 2907TIP3   OH230135   2.647   3.113   1.302 -0.6538 -0.3186 -0.1159
 2907TIP3    H130136   2.559   3.151   1.295  0.0101  1.9792  2.4608
 2907TIP3    H230137   2.688   3.135   1.218 -1.3874  1.8301  0.0314
 2908TIP3   OH230138   4.151   2.546   4.450 -0.4192  0.1467 -0.3973
 2908TIP3    H130139   4.107   2.462   4.460 -0.4897  0.2742  0.4647
 2908TIP3    H230140   4.206   2.554   4.528  0.1474  0.5685 -0.8280
 2909TIP3   OH230141   0.704   4.627  14.181  0.4488  0.2336  0.3299
 2909TIP3    H130142   0.629   4.661  14.228 -0.1969 -0.7158  0.0166
 2909TIP3    H230143   0.760   4.703  14.167 -1.1740  1.2956 -0.7949
 2910TIP3   OH230144   1.841   1.725  17.167  0.3342 -0.4409 -0.0060
 2910TIP3    H130145   1.890   1.736  17.248 -1.2012  0.9186  0.7681
 2910TIP3    H230146   1.853   1.632  17.145  3.2117 -0.1992  0.1087
 2911TIP3   OH230147   3.571   0.789  16.532  0.1079  0.3704  0.2799
 2911TIP3    H130148   3.599   0.881  16.526  0.1883  0.3228 -0.0875
 2911TIP3    H230149   3.653   0.740  16.538  0.1914  0.1253 -2.1392
 2912TIP3   OH230150   3.168   6.694  12.847 -0.1973 -0.3123  0.1517
 2912TIP3    H130151   3.256   6.730  12.858  0.4004 -1.1943 -1.3952
 2912TIP3    H230152   3.109   6.764  12.875  0.9714  0.8517 -0.2182
 2913TIP3   OH230153   3.972   4.624  15.210  0.1457 -0.0042 -0.0533
 2913TIP3    H130154   4.048   4.682  15.213  0.6853 -0.5478 -1.8772
 2913TIP3    H230155   4.008   4.537  15.221 -0.0209 -0.3618 -1.9306
 2914TIP3   OH230156   1.236   1.362  16.893 -0.1941 -0.2825 -0.2251
 2914TIP3    H130157   1.259   1.274  16.924  2.1819  0.9886  1.9886
 2914TIP3    H230158   1.168   1.392  16.954  0.7118  0.2473  0.5608
 2915TIP3   OH230159   2.772   0.239   3.623 -0.4763 -0.2768  0.2561
 2915TIP3    H130160   2.707   0.304   3.650 -0.4605 -0.4158  0.6271
 2915TIP3    H230161   2.768   0.239   3.527 -1.0809 -0.3520  0.2815
 2916TIP3   OH230162   2.508   5.962  15.447  0.0217 -0.2727  0.1015
 2916TIP3    H130163   2.505   5.995  15.536 -2.2986  1.1918 -0.4311
 2916TIP3    H230164   2.589   5.999  15.410  0.7194 -0.4535  1.4105
 2917TIP3   OH230165   6.044   6.308   0.825  0.0637 -0.3301  0.2210
 2917TIP3    H130166   6.030   6.402   0.827  1.6215 -0.0676  2.0999
 2917TIP3    H230167   5.956   6.270   0.832 -0.7084  0.9058 -1.9709
 2918TIP3   OH230168   6.260   1.990   6.496  0.3108 -0.2308 -0.2153
 2918TIP3    H130169   6.318   1.927   6.539 -0.4827 -0.6820  0.2275
 2918TIP3    H230170   6.173   1.952   6.507 -0.3629  1.6221  1.2767
 2919TIP3   OH230171   3.234   4.323   4.095  0.1665 -0.1237  0.4211
 2919TIP3    H130172   3.256   4.236   4.063  0.3411 -0.6034  1.7776
 2919TIP3    H230173   3.303   4.380   4.062 -0.7659 -0.1760 -1.7681
 2920TIP3   OH230174   1.362   1.079  16.800 -0.6507 -0.7125 -0.0525
 2920TIP3    H130175   1.430   1.012  16.802 -1.0986 -1.1562  1.5862
 2920TIP3    H230176   1.285   1.037  16.838 -1.2657  0.3846 -0.0427
 2921TIP3   OH230177   5.503   5.403   5.069 -0.1981  0.0999  0.4554
 2921TIP3    H130178   5.579   5.461   5.063  0.4433 -0.0141  4.5108
 2921TIP3    H230179   5.436   5.454   5.113 -1.1441 -0.9763  0.3239
 2922TIP3   OH230180   1.231   2.787  13.826 -0.4211 -0.2398  0.6511
 2922TIP3    H130181   1.139   2.778  13.847 -0.4158 -2.9427 -0.1525
 2922TIP3    H230182   1.262   2.698  13.813  1.7699  0.6854 -1.3154
 2923TIP3   OH230183   6.027   0.800   4.474  0.6044  0.1728  0.5234
 2923TIP3    H130184   6.117   0.797   4.443  1.1796 -1.7254  2.1289
 2923TIP3    H230185   6.024   0.877   4.531  0.4282  1.7574 -1.5248
 2924TIP3   OH230186   6.069   3.490  12.671  0.0722  0.6731 -0.7993
 2924TIP3    H130187   6.124   3.422  12.711 -0.8941  1.5586  2.3123
 2924TIP3    H230188   6.011   3.443  12.612  0.6327 -0.9682 -0.0957
 2925TIP3   OH230189   2.587   2.072  13.797  0.2446 -0.2315  0.7837
 2925TIP3    H130190   2.494   2.082  13.780  0.2877 -1.5684 -0.4684
 2925TIP3    H230191   2.600   2.109  13.884 -1.2323  0.9915  0.5226
 2926TIP3   OH230192   2.843   0.152  17.121  1.1722 -0.0578  0.7902
 2926TIP3    H130193   2.845   0.223  17.185  0.0223 -0.9251  1.8367
 2926TIP3    H230194   2.884   0.078  17.165 -0.0840 -0.8153  0.7398
 2927TIP3   OH230195   4.080   2.494   3.337  0.2594  0.2875 -0.0517
 2927TIP3    H130196   4.149   2.466   3.397  1.8233  3.2759 -0.2938
 2927TIP3    H230197   4.097   2.445   3.256  0.3517 -1.0370  0.7389
 2928TIP3   OH230198   3.906   2.602   0.924  0.1429 -0.0034  0.0009
 2928TIP3    H130199   3.944   2.651   0.850  2.9446  0.6261  1.7132
 2928TIP3    H230200   3.956   2.520   0.927 -1.4647 -1.0288 -0.0971
 2929TIP3   OH230201   1.543   6.002   5.679 -0.3344  0.5563 -0.0241
 2929TIP3    H130202   1.510   6.088   5.703  0.1206  0.2515  1.8525
 2929TIP3    H230203   1.553   5.956   5.762 -0.7407 -1.3831 -0.9840
 2930TIP3   OH230204   4.122   1.491  12.484  0.4597 -0.2052  0.3213
 2930TIP3    H130205   4.167   1.491  12.568 -1.0573  1.9661  1.2230
 2930TIP3    H230206   4.057   1.421  12.492 -0.2472  0.5417  1.3259
 2931TIP3   OH230207   6.226   1.075  16.757  0.3667  1.0071 -0.3495
 2931TIP3    H130208   6.241   1.004  16.820 -1.8016 -1.4177 -2.2990
 2931TIP3    H230209   6.293   1.140  16.778  2.2197 -1.3644  1.9072
 2932TIP3   OH230210   6.588   5.335   3.896  0.8139  0.0632 -0.3190
 2932TIP3    H130211   6.524   5.400   3.923  2.0162  0.8761  0.6948
 2932TIP3    H230212   6.607   5.285   3.975  1.3212 -0.2601 -0.6335
 2933TIP3   OH230213   0.346   6.109   0.100 -0.0685  0.1344 -0.0705
 2933TIP3    H130214   0.310   6.151   0.023 -0.9781 -0.4301  0.0372
 2933TIP3    H230215   0.365   6.181   0.160 -1.7767  0.3965  0.1851
 2934TIP3   OH230216   0.377   0.426  16.585 -0.2138 -0.2044 -0.6066
 2934TIP3    H130217   0.354   0.518  16.573 -0.0354 -0.3086 -1.8715
 2934TIP3    H230218   0.446   0.410  16.520  0.5824 -0.9307  0.3836
 2935TIP3   OH230219   5.713   1.533  13.074  0.0583 -0.3402  0.2011
 2935TIP3    H130220   5.806   1.512  13.082  0.0950 -0.1261  0.3590
 2935TIP3    H230221   5.682   1.480  13.000  0.5013  0.2245 -0.3993
 2936TIP3   OH230222   2.309   2.470   3.284 -0.0898 -0.5465  0.1153
 2936TIP3    H130223   2.226   2.515   3.298 -0.2697 -0.0709 -2.1298
 2936TIP3    H230224   2.375   2.539   3.288  0.3142 -0.9823  2.3169
 2937TIP3   OH230225   4.247   1.746  14.605 -0.2599  0.5949  0.5099
 2937TIP3    H130226   4.299   1.824  14.627  1.2140 -0.4058  0.7002
 2937TIP3    H230227   4.280   1.679  14.665  1.6057 -1.3740 -2.5089
 2938TIP3   OH230228   2.654   5.729  15.250 -0.3524 -0.2219  0.5140
 2938TIP3    H130229   2.593   5.789  15.206  1.7634  1.6489 -0.0086
 2938TIP3    H230230   2.660   5.655  15.190 -2.6187 -0.8319  0.9285
 2939TIP3   OH230231   5.330   4.177  13.190  0.1070  0.5279 -0.5659
 2939TIP3    H130232   5.283   4.095  13.176  2.1103 -0.5640 -1.2725
 2939TIP3    H230233   5.301   4.233  13.118 -0.3698  0.0033 -0.7889
 2940TIP3   OH230234   1.641   2.146   1.545 -0.2794 -0.4174  0.4885
 2940TIP3    H130235   1.678   2.184   1.465  1.9326  0.2242  1.7258
 2940TIP3    H230236   1.551   2.177   1.546  0.0685  0.8179 -1.0063
 2941TIP3   OH230237   1.147   0.114   1.716 -0.0502 -0.2405 -0.2704
 2941TIP3    H130238   1.190   0.137   1.634 -4.1406 -0.2810 -2.6841
 2941TIP3    H230239   1.118   0.023   1.703 -0.0092 -0.5627  1.6201
 2942TIP3   OH230240   2.043   4.944  11.571  0.0912 -0.4693  0.0216
 2942TIP3    H130241   2.006   5.006  11.509 -1.5081 -1.2211  0.1538
 2942TIP3    H230242   2.003   4.967  11.655  3.0543  1.2524  1.1263
 2943TIP3   OH230243   6.396   3.464  12.697 -0.3512  0.6201 -0.2105
 2943TIP3    H130244   6.404   3.547  12.649 -1.7460  0.1897 -1.2781
 2943TIP3    H230245   6.482   3.423  12.690 -0.1539  1.1726 -1.2254
 2944TIP3   OH230246   3.561   0.847  11.430  0.0107 -0.0003  0.0808
 2944TIP3    H130247   3.502   0.830  11.356  0.6943  0.0571 -0.4877
 2944TIP3    H230248   3.597   0.762  11.453 -1.5750 -0.3165  1.5567
 2945TIP3   OH230249   2.809   1.857  12.364  0.1668  0.4168  0.6682
 2945TIP3    H130250   2.788   1.764  12.379  0.9468  0.0437 -0.4257
 2945TIP3    H230251   2.809   1.896  12.452  0.8737 -0.8413  1.2581
 2946TIP3   OH230252   1.501   0.324   0.769 -0.0743  0.2548  0.2807
 2946TIP3    H130253   1.546   0.283   0.696  0.6323  0.1916  0.7384
 2946TIP3    H230254   1.436   0.260   0.797  0.2459 -0.0841  0.2613
 2947TIP3   OH230255   0.882   3.988  11.836 -0.5680 -0.7058  0.4919
 2947TIP3    H130256   0.853   4.074  11.806 -2.7298 -1.8104 -0.8322
 2947TIP3    H230257   0.816   3.961  11.900  1.1407 -0.6206  2.3836
 2948TIP3   OH230258   1.475   5.511   0.152  0.0713  0.1777  0.0410
 2948TIP3    H130259   1.461   5.540   0.062 -0.4957  0.9581  0.3607
 2948TIP3    H230260   1.519   5.427   0.144 -1.1772 -0.4162 -0.9925
 2949TIP3   OH230261   6.261   4.103   2.089 -0.3458  0.3200 -0.0591
 2949TIP3    H130262   6.309   4.021   2.076 -0.2075  0.5953 -1.4561
 2949TIP3    H230263   6.239   4.103   2.182  1.1709 -0.4594  0.3318
 2950TIP3   OH230264   6.599   0.120  13.702 -0.4204  0.0889 -0.2063
 2950TIP3    H130265   6.634   0.184  13.640 -0.6126  0.5160  0.1282
 2950TIP3    H230266   6.592   0.167  13.785  0.6981 -0.7166  0.3775
 2951TIP3   OH230267   5.689   2.263   2.793  0.3719 -0.2186 -0.2695
 2951TIP3    H130268   5.669   2.354   2.812  2.1117 -0.1234  1.5255
 2951TIP3    H230269   5.697   2.222   2.880  0.3397 -1.9100 -1.0181
 2952TIP3   OH230270   3.768   4.296  13.825  0.8400  0.0998 -0.7120
 2952TIP3    H130271   3.782   4.202  13.839  5.3823  0.8993  2.3072
 2952TIP3    H230272   3.811   4.314  13.742  2.2130 -0.2307 -0.1078
 2953TIP3   OH230273   3.196   0.740  13.210  0.2153 -0.1406 -0.0050
 2953TIP3    H130274   3.253   0.762  13.136  0.2912 -2.4080 -0.6735
 2953TIP3    H230275   3.256   0.701  13.274  0.3297  2.6258  1.7640
 2954TIP3   OH230276   4.567   1.730   1.002  0.1955 -0.5093  0.0894
 2954TIP3    H130277   4.513   1.713   0.925 -0.7418 -2.0474  1.0432
 2954TIP3    H230278   4.584   1.824   0.999 -4.0618  0.5032  0.6436
 2955TIP3   OH230279   1.125   5.897   4.406 -0.0262 -0.5983 -0.2940
 2955TIP3    H130280   1.039   5.911   4.445 -0.0101 -2.0092  0.3257
 2955TIP3    H230281   1.128   5.956   4.331 -1.5503 -0.5731 -0.3548
 2956TIP3   OH230282   2.124   6.530   6.286 -0.4775  0.3216 -0.1239
 2956TIP3    H130283   2.186   6.530   6.359  0.9076 -1.2842 -1.2160
 2956TIP3    H230284   2.045   6.490   6.321 -0.5245  1.3210  0.9790
 2957TIP3   OH230285   5.009   6.290   6.315 -0.6885 -0.0972  0.2824
 2957TIP3    H130286   4.980   6.249   6.397  0.3846 -0.2368  0.6124
 2957TIP3    H230287   5.056   6.368   6.343 -0.7377  0.1208 -0.2359
 2958TIP3   OH230288   2.892   4.128   3.387  0.0867  0.3431  0.8864
 2958TIP3    H130289   2.831   4.055   3.403 -2.0673  1.4063 -1.6058
 2958TIP3    H230290   2.979   4.089   3.395 -0.9651 -2.1862  0.9534
 2959TIP3   OH230291   2.900   4.794   1.400 -1.2953 -0.2875 -0.0134
 2959TIP3    H130292   2.879   4.779   1.308 -3.3646  0.2907  0.3031
 2959TIP3    H230293   2.885   4.888   1.412 -4.4748 -0.8694  1.6196
 2960TIP3   OH230294   5.144   2.976   5.052 -0.0991  0.4965  0.3840
 2960TIP3    H130295   5.114   3.058   5.092  1.0193  0.6904  0.8480
 2960TIP3    H230296   5.154   2.996   4.960  1.4905  1.2939  0.7045
 2961TIP3   OH230297   0.851   5.715  13.354  0.6742 -0.2057 -0.3128
 2961TIP3    H130298   0.854   5.649  13.423  0.5293 -0.8821 -0.9426
 2961TIP3    H230299   0.843   5.799  13.401  1.1486 -0.6049  0.4982
 2962TIP3   OH230300   3.531   0.350  11.973 -0.6817  0.0869  0.1416
 2962TIP3    H130301   3.439   0.328  11.954  0.1728 -2.6709 -1.3066
 2962TIP3    H230302   3.573   0.353  11.887  0.8506 -0.0683  0.8544
 2963TIP3   OH230303   1.548   3.937  11.180 -0.3683  0.3231 -0.1890
 2963TIP3    H130304   1.544   3.947  11.085 -0.7641 -0.8821 -0.3162
 2963TIP3    H230305   1.541   4.027  11.214 -1.0319  0.7007 -1.2753
 2964TIP3   OH230306   0.099   3.746  15.009  0.2435  0.2075 -0.1874
 2964TIP3    H130307   0.066   3.778  15.093 -1.0856  0.9120 -0.9500
 2964TIP3    H230308   0.029   3.766  14.946  0.6090 -1.5580 -1.2234
 2965TIP3   OH230309   4.215   5.067   2.360 -0.1204  0.4013  0.2539
 2965TIP3    H130310   4.194   5.132   2.426  0.3226  1.7564 -0.8905
 2965TIP3    H230311   4.239   5.118   2.282 -1.6058 -1.1033 -1.2825
 2966TIP3   OH230312   0.845   1.602  16.261 -0.2623  0.0116 -0.3975
 2966TIP3    H130313   0.814   1.691  16.245 -0.2366  0.7628  2.9626
 2966TIP3    H230314   0.787   1.568  16.329  2.8698 -0.4490  2.3516
 2967TIP3   OH230315   1.672   3.167   3.162  0.7634 -0.0401  0.1961
 2967TIP3    H130316   1.747   3.125   3.205  1.0591  1.0599  0.7930
 2967TIP3    H230317   1.699   3.258   3.151  0.1271  0.0132 -1.0693
 2968TIP3   OH230318   2.292   6.278   6.753 -0.2274 -0.4186 -0.8970
 2968TIP3    H130319   2.299   6.185   6.774 -1.0027  0.1327  2.2698
 2968TIP3    H230320   2.212   6.307   6.797  0.6996  2.0134 -0.6693
 2969TIP3   OH230321   6.575   5.426  12.292 -0.3594 -0.1806  0.0910
 2969TIP3    H130322   6.544   5.335  12.286  2.1138 -1.0244 -1.6206
 2969TIP3    H230323   6.667   5.421  12.266  0.0325  2.7495  0.6464
 2970TIP3   OH230324   6.365   3.383   3.057  0.6782  0.1829 -0.4214
 2970TIP3    H130325   6.324   3.312   3.008  0.7044 -0.2207  0.1327
 2970TIP3    H230326   6.339   3.367   3.148  1.8273  0.0862 -0.0944
 2971TIP3   OH230327   3.732   3.257   3.330 -0.4358 -0.1722 -0.4582
 2971TIP3    H130328   3.671   3.307   3.384  0.5785  0.2713  0.3008
 2971TIP3    H230329   3.689   3.172   3.318 -0.8239 -0.1739  0.7883
 2972TIP3   OH230330   1.599   4.632   4.658  0.4456  0.3474  0.0207
 2972TIP3    H130331   1.537   4.653   4.727 -0.2396  1.0289 -0.7826
 2972TIP3    H230332   1.553   4.569   4.602  0.7715  0.2499 -0.1403
 2973TIP3   OH230333   6.655   4.850  12.624  0.7115 -0.6957  0.5621
 2973TIP3    H130334   6.673   4.925  12.567 -0.0630 -2.0381 -1.5502
 2973TIP3    H230335   6.741   4.819  12.651  1.0648  0.3884  0.7305
 2974TIP3   OH230336   6.514   1.622  16.125  0.0120  0.5801  0.0368
 2974TIP3    H130337   6.423   1.651  16.127 -0.4000 -0.5880 -0.6462
 2974TIP3    H230338   6.517   1.548  16.186  0.3199  0.1426 -0.5004
 2975TIP3   OH230339   5.426   0.125  15.527  0.2007 -0.3511 -0.4316
 2975TIP3    H130340   5.335   0.150  15.511  0.3590 -0.7507 -2.1761
 2975TIP3    H230341   5.424   0.030  15.536  0.1202 -0.1639  2.2979
 2976TIP3   OH230342   4.542   0.855   0.315  0.3564 -0.0539  0.0697
 2976TIP3    H130343   4.536   0.870   0.410 -2.0884  1.1700 -0.2034
 2976TIP3    H230344   4.451   0.844   0.287  0.8498  1.4417 -2.4252
 2977TIP3   OH230345   3.190   1.799  11.608  0.5145  0.9040  0.0951
 2977TIP3    H130346   3.267   1.788  11.552 -0.5153 -2.6154 -0.8940
 2977TIP3    H230347   3.201   1.886  11.647  4.2318  1.1556 -1.0848
 2978TIP3   OH230348   3.398   1.089  11.082 -0.3123  0.2713  0.1864
 2978TIP3    H130349   3.398   1.017  11.144 -1.3916  1.1369  1.2319
 2978TIP3    H230350   3.311   1.088  11.043  0.3414 -0.2494 -1.3415
 2979TIP3   OH230351   5.479   5.779  15.375  0.2093  0.3936 -0.8052
 2979TIP3    H130352   5.422   5.705  15.396  0.0647  0.7800  0.2354
 2979TIP3    H230353   5.566   5.739  15.363  0.3765  0.1623  0.9466
 2980TIP3   OH230354   4.579   1.681   4.089  0.2349  0.0533  0.4697
 2980TIP3    H130355   4.644   1.694   4.158 -0.0208  1.3810  0.4808
 2980TIP3    H230356   4.544   1.593   4.105  0.7581  0.0271  1.5265
 2981TIP3   OH230357   4.109   5.761   3.637 -0.1454  0.1156 -0.5613
 2981TIP3    H130358   4.168   5.834   3.656 -0.1238 -0.0936  0.1829
 2981TIP3    H230359   4.104   5.760   3.541  3.2510 -1.5820 -0.8861
 2982TIP3   OH230360   6.394   0.448   5.015  0.0392 -0.0827 -0.5898
 2982TIP3    H130361   6.460   0.515   4.995 -1.5422  0.8683 -3.1621
 2982TIP3    H230362   6.392   0.392   4.936  1.7315 -3.6977  1.6623
 2983TIP3   OH230363   0.973   6.702   6.360 -0.4579 -0.9251 -0.5032
 2983TIP3    H130364   0.934   6.776   6.406  1.1704  1.5896 -2.8134
 2983TIP3    H230365   1.062   6.694   6.396  0.3109  0.1007 -2.0551
 2984TIP3   OH230366   3.385   2.679   0.627  0.1858 -0.2866  0.1890
 2984TIP3    H130367   3.398   2.766   0.663 -2.7006  0.8578 -1.2298
 2984TIP3    H230368   3.347   2.694   0.541 -0.8076 -2.9511  0.0678
 2985TIP3   OH230369   5.753   4.493  16.026 -0.2536 -0.1616  0.4950
 2985TIP3    H130370   5.805   4.417  16.052  1.3202 -0.1873 -2.2880
 2985TIP3    H230371   5.680   4.455  15.976 -0.6964  0.0700  0.9605
 2986TIP3   OH230372   6.496   4.584  13.776  0.1287  0.2236  0.7216
 2986TIP3    H130373   6.460   4.495  13.770  0.7873 -0.0351  0.4565
 2986TIP3    H230374   6.448   4.634  13.711  1.3786 -0.5283 -0.8729
 2987TIP3   OH230375   5.230   6.411   2.544  0.3813 -0.4763 -0.5131
 2987TIP3    H130376   5.239   6.317   2.527 -0.3431 -0.4278 -1.2267
 2987TIP3    H230377   5.136   6.425   2.553  0.6208 -0.2766  2.5051
 2988TIP3   OH230378   0.535   0.912   3.482  0.1926 -0.2657 -0.0064
 2988TIP3    H130379   0.599   0.912   3.553  0.2509 -1.7423 -0.0371
 2988TIP3    H230380   0.575   0.965   3.413  0.6190  0.2438  0.6168
 2989TIP3   OH230381   2.761   5.035   5.566 -0.1585 -0.0398  0.5526
 2989TIP3    H130382   2.681   4.992   5.596 -0.0272  0.5800  1.8389
 2989TIP3    H230383   2.809   4.966   5.519  0.0443 -1.3192  2.5441
 2990TIP3   OH230384   1.508   1.742  15.014  0.5637  0.0234  0.4442
 2990TIP3    H130385   1.417   1.763  15.033  0.1922 -0.4247 -0.7486
 2990TIP3    H230386   1.557   1.821  15.040 -0.5406  1.6089 -1.8713
 2991TIP3   OH230387   6.146   5.936  15.576 -0.1551  0.8938 -0.3401
 2991TIP3    H130388   6.121   5.862  15.520  0.5187  1.1951 -1.0655
 2991TIP3    H230389   6.226   5.907  15.620  0.0239  1.1303 -0.5070
 2992TIP3   OH230390   2.862   1.099  11.816 -0.4496 -0.1384  0.0931
 2992TIP3    H130391   2.953   1.084  11.791  0.0835  2.8002 -0.0457
 2992TIP3    H230392   2.812   1.075  11.737  0.5288  1.3297 -1.0300
 2993TIP3   OH230393   6.464   2.362  13.249 -0.0224  0.2216 -0.3027
 2993TIP3    H130394   6.394   2.426  13.261 -0.1559  0.0035  0.1039
 2993TIP3    H230395   6.508   2.389  13.169  0.4351  1.3028  0.3050
 2994TIP3   OH230396   1.733   3.629   2.766 -0.0621 -0.4987 -0.1740
 2994TIP3    H130397   1.791   3.663   2.698 -0.0932  1.0444  0.5192
 2994TIP3    H230398   1.791   3.582   2.826  0.3022  0.0149 -0.1164
 2995TIP3   OH230399   1.437   0.600  12.998 -0.4031 -0.3716 -0.0799
 2995TIP3    H130400   1.516   0.590  12.945  0.1204 -0.2683  0.6634
 2995TIP3    H230401   1.423   0.514  13.038 -1.7738 -0.9404 -1.6848
 2996TIP3   OH230402   6.751   2.945   5.152 -0.0579  0.0552  0.6787
 2996TIP3    H130403   6.797   2.861   5.153  2.1025  1.1045 -1.0474
 2996TIP3    H230404   6.679   2.934   5.213  0.3187 -2.9493  0.7290
 2997TIP3   OH230405   6.658   6.528   2.517  0.1970  0.2463 -0.3605
 2997TIP3    H130406   6.737   6.542   2.464  0.9232  1.4296  0.9632
 2997TIP3    H230407   6.621   6.615   2.529  0.5288  0.1587  1.7305
 2998TIP3   OH230408   3.931   3.768  16.802 -0.4670  0.8123 -0.0957
 2998TIP3    H130409   3.893   3.680  16.792 -1.8897  1.5103 -1.2988
 2998TIP3    H230410   4.012   3.754  16.851 -1.0247 -1.0765  0.3782
 2999TIP3   OH230411   1.431   3.897  13.152 -0.1812 -0.0166  0.2245
 2999TIP3    H130412   1.355   3.858  13.195  0.4141 -1.1156  0.3251
 2999TIP3    H230413   1.440   3.984  13.191 -0.3996 -0.5191  1.4141
 3000TIP3   OH230414   5.801   1.803  12.642 -0.2530 -0.4207  0.5931
 3000TIP3    H130415   5.798   1.875  12.705 -2.4146  0.5181 -0.4623
 3000TIP3    H230416   5.894   1.780  12.636  0.6049  2.5862  0.6674
 3001TIP3   OH230417   4.771   2.285   3.207 -0.1630  0.3296 -0.2363
 3001TIP3    H130418   4.827   2.356   3.177  0.5357 -0.4762 -0.9077
 3001TIP3    H230419   4.790   2.213   3.147 -0.4810 -0.5785  0.7238
 3002TIP3   OH230420   0.545   3.187  11.493  0.4536 -0.2029  0.3908
 3002TIP3    H130421   0.594   3.233  11.561  0.3751 -0.6844  0.7814
 3002TIP3    H230422   0.506   3.257  11.440  0.4244  0.1803  0.9104
 3003TIP3   OH230423   5.978   4.616  15.448 -0.2716 -0.4092  0.2102
 3003TIP3    H130424   5.935   4.583  15.527 -0.6206 -1.3300 -0.3450
 3003TIP3    H230425   5.985   4.710  15.462  0.1604 -0.6201  1.5707
 3004TIP3   OH230426   4.079   3.125   4.346 -0.4461 -0.3142  0.4323
 3004TIP3    H130427   4.160   3.109   4.395 -1.0434 -0.6109  1.3446
 3004TIP3    H230428   4.062   3.219   4.356  0.8232  0.1773 -1.4334
 3005TIP3   OH230429   3.953   2.593  15.418 -0.0677 -0.2098 -0.6688
 3005TIP3    H130430   3.983   2.598  15.327 -0.8375  2.9730 -0.8668
 3005TIP3    H230431   4.009   2.654  15.465 -0.8280 -0.4958  0.6391
 3006TIP3   OH230432   1.904   3.117   2.490  0.1200 -0.1294 -0.0500
 3006TIP3    H130433   1.923   3.209   2.503 -2.5369  0.3796  0.8644
 3006TIP3    H230434   1.895   3.107   2.395  1.2786  0.3286 -0.2161
 3007TIP3   OH230435   3.142   6.304  11.879 -0.2319 -0.6467  0.3444
 3007TIP3    H130436   3.159   6.356  11.801 -1.4436 -0.1794  0.3708
 3007TIP3    H230437   3.206   6.233  11.875 -0.3506 -0.6986 -1.1342
 3008TIP3   OH230438   2.514   3.845  16.339  0.6175 -0.6635 -0.4652
 3008TIP3    H130439   2.585   3.905  16.362 -0.5288  0.3293  0.7114
 3008TIP3    H230440   2.508   3.850  16.243 -2.0646  4.5396 -0.3949
 3009TIP3   OH230441   6.717   1.816  11.637 -0.5073  0.8101  0.2789
 3009TIP3    H130442   6.749   1.898  11.674 -0.2582  0.7621  0.1757
 3009TIP3    H230443   6.622   1.822  11.644 -0.5649  1.6710 -0.9103
 3010TIP3   OH230444   0.530   3.510  12.612 -0.1004  0.1170 -0.1614
 3010TIP3    H130445   0.611   3.553  12.584 -1.8499  3.0794 -1.0497
 3010TIP3    H230446   0.486   3.574  12.668 -0.6509 -2.4933  2.6623
 3011TIP3   OH230447   2.645   0.920  11.370 -0.0481 -0.1742  0.4594
 3011TIP3    H130448   2.584   0.850  11.393  0.0086 -1.0593 -1.8745
 3011TIP3    H230449   2.632   0.934  11.277  1.2329  1.7031  0.5167
 3012TIP3   OH230450   2.386   1.329  16.440  0.0385 -0.1630  0.4795
 3012TIP3    H130451   2.303   1.347  16.397  0.1142 -0.0221  0.3907
 3012TIP3    H230452   2.438   1.408  16.427  0.2358 -0.2996  0.4173
 3013TIP3   OH230453   3.816   4.145   1.269  0.1399  0.3868  0.5116
 3013TIP3    H130454   3.782   4.079   1.209  0.4031  1.1897 -0.5418
 3013TIP3    H230455   3.877   4.097   1.325 -0.5067 -0.4785  0.4897
 3014TIP3   OH230456   0.604   4.510   0.198 -0.5400 -0.2373 -0.0030
 3014TIP3    H130457   0.581   4.478   0.286  2.6166 -0.8852  0.7032
 3014TIP3    H230458   0.613   4.431   0.145  2.2207 -0.2911  0.4116
 3015TIP3   OH230459   5.088   1.443  13.973  0.1367  0.0243  0.0713
 3015TIP3    H130460   5.116   1.529  13.942  0.1255 -0.3116 -0.9003
 3015TIP3    H230461   5.102   1.384  13.899 -1.6764 -0.4414  0.0433
 3016TIP3   OH230462   5.081   2.661   3.927 -0.0877  0.1778 -0.0754
 3016TIP3    H130463   4.996   2.681   3.966  0.2099  1.4472 -0.0158
 3016TIP3    H230464   5.065   2.585   3.871 -1.5602  1.1538 -1.0488
 3017TIP3   OH230465   5.723   4.961  12.008 -0.1528  0.7929  0.7792
 3017TIP3    H130466   5.632   4.971  12.035 -0.3555  0.3951  0.2588
 3017TIP3    H230467   5.757   4.889  12.061  0.4652  2.2072  2.4317
 3018TIP3   OH230468   3.204   1.126  13.541  0.9885 -0.3171 -0.2168
 3018TIP3    H130469   3.152   1.173  13.606 -0.9455  0.0460 -1.9291
 3018TIP3    H230470   3.284   1.178  13.532  0.1686  1.0260  0.0313
 3019TIP3   OH230471   6.476   2.694  12.063  0.4142 -0.5586  0.2845
 3019TIP3    H130472   6.552   2.640  12.041 -0.3280 -1.1836 -0.8547
 3019TIP3    H230473   6.512   2.781  12.080  1.5926 -1.2958  1.7842
 3020TIP3   OH230474   5.276   1.143  13.124 -0.0692 -0.1580  0.1318
 3020TIP3    H130475   5.319   1.061  13.101 -0.2780 -0.0671 -0.6233
 3020TIP3    H230476   5.248   1.179  13.040 -0.7053  0.2838  0.5276
 3021TIP3   OH230477   1.132   2.361   6.602 -0.3353 -0.5461  0.0681
 3021TIP3    H130478   1.058   2.413   6.570 -0.5550  0.2290  1.7399
 3021TIP3    H230479   1.206   2.422   6.603 -0.4893 -0.3430  1.6165
 3022TIP3   OH230480   2.141   1.585   1.341  0.4690 -0.1287 -0.1998
 3022TIP3    H130481   2.150   1.613   1.433 -2.9513 -0.9703  0.5092
 3022TIP3    H230482   2.112   1.494   1.346 -0.9610  0.1726 -2.0531
 3023TIP3   OH230483   4.213   3.369  13.954 -0.4250 -0.1817 -0.7160
 3023TIP3    H130484   4.307   3.352  13.945 -0.2798 -0.6786  1.2002
 3023TIP3    H230485   4.171   3.308  13.894  0.4782  0.5090 -2.0908
 3024TIP3   OH230486   5.572   1.297   2.859  0.2005 -0.1826 -0.2551
 3024TIP3    H130487   5.549   1.291   2.766  0.4490  0.0392 -0.3301
 3024TIP3    H230488   5.488   1.290   2.905 -0.2835  2.6127 -0.5818
 3025TIP3   OH230489   6.230   4.432   5.048 -0.5105 -0.2679 -0.6415
 3025TIP3    H130490   6.285   4.474   5.114 -0.0678 -0.5058 -0.8569
 3025TIP3    H230491   6.147   4.480   5.052 -0.5401 -0.3753  0.1939
 3026TIP3   OH230492   4.978   2.450   2.773 -0.3324  0.1927  0.6216
 3026TIP3    H130493   4.958   2.447   2.679  0.7432  1.0384  0.3408
 3026TIP3    H230494   5.070   2.421   2.778  0.0590  1.4752  1.2505
 3027TIP3   OH230495   4.039   0.807   1.764  0.3672  0.4302  0.1611
 3027TIP3    H130496   4.037   0.893   1.806 -2.6538  0.9520 -0.8153
 3027TIP3    H230497   4.003   0.822   1.677  1.6097 -1.5368 -0.7715
 3028TIP3   OH230498   0.504   1.801   1.906  0.2969  0.0149  0.3773
 3028TIP3    H130499   0.503   1.863   1.834  0.8485  0.0380  0.3853
 3028TIP3    H230500   0.419   1.757   1.902 -0.2695  1.0557  0.6204
 3029TIP3   OH230501   1.776   6.329   6.330  0.7943  0.2540  0.2411
 3029TIP3    H130502   1.755   6.283   6.248  0.4555 -0.7578  0.8682
 3029TIP3    H230503   1.692   6.366   6.359  1.0738  1.3258 -0.2802
 3030TIP3   OH230504   0.457   5.295   1.151 -0.1164  0.0476  0.1836
 3030TIP3    H130505   0.520   5.239   1.196 -0.5860  0.5178  1.4502
 3030TIP3    H230506   0.373   5.252   1.162 -0.4990  1.0253  1.2510
 3031TIP3   OH230507   0.240   0.901  11.318 -0.0158  0.3942 -0.2576
 3031TIP3    H130508   0.279   0.988  11.309  0.3082  0.4029  0.9984
 3031TIP3    H230509   0.293   0.858  11.385  0.3733 -1.1027 -1.4692
 3032TIP3   OH230510   1.651   5.342   3.879 -0.6124 -0.2280  0.2824
 3032TIP3    H130511   1.697   5.266   3.915  1.2718  0.2996 -0.8815
 3032TIP3    H230512   1.633   5.397   3.955 -0.7965 -1.2049  0.9646
 3033TIP3   OH230513   4.330   1.606   5.252  0.2160 -0.3964  0.1041
 3033TIP3    H130514   4.242   1.621   5.217 -0.9041 -3.3544  1.3461
 3033TIP3    H230515   4.365   1.534   5.199  1.6045  0.2229  0.1380
 3034TIP3   OH230516   4.357   4.481  14.817  0.1054 -0.1469  0.0464
 3034TIP3    H130517   4.265   4.503  14.807  0.5449  2.0989  0.4514
 3034TIP3    H230518   4.401   4.523  14.743  0.7328 -2.1927 -0.8399
 3035TIP3   OH230519   3.871   3.589   1.020  0.3655 -0.0907  0.3718
 3035TIP3    H130520   3.811   3.549   1.082 -0.8839 -0.5047 -1.0406
 3035TIP3    H230521   3.950   3.606   1.070 -0.2272 -1.3690  1.8041
 3036TIP3   OH230522   4.670   6.559   4.945  0.7298 -0.7206  0.1374
 3036TIP3    H130523   4.703   6.649   4.952 -0.6369 -0.0469 -1.4236
 3036TIP3    H230524   4.743   6.508   4.911  1.8089 -0.4274  1.8853
 3037TIP3   OH230525   6.483   6.577  16.852  0.3609 -0.5383  0.2534
 3037TIP3    H130526   6.579   6.569  16.860  0.4897 -1.0208 -1.3394
 3037TIP3    H230527   6.470   6.612  16.764 -0.9177  0.6177  0.8763
 3038TIP3   OH230528   0.859   4.426   3.411 -0.2707 -0.0900 -0.4213
 3038TIP3    H130529   0.878   4.415   3.318  2.6428 -0.8078  0.1705
 3038TIP3    H230530   0.920   4.368   3.456 -1.0167  0.8454  1.9900
 3039TIP3   OH230531   0.947   5.569   0.451 -0.1596 -0.0909 -0.0316
 3039TIP3    H130532   1.042   5.564   0.456 -0.1913 -2.1478 -0.5457
 3039TIP3    H230533   0.918   5.582   0.541  0.6176  1.8176 -0.0149
 3040TIP3   OH230534   2.008   3.599  11.790 -0.0800 -0.0660 -0.3520
 3040TIP3    H130535   1.978   3.560  11.872 -0.1515 -2.2709 -1.3552
 3040TIP3    H230536   1.930   3.642  11.754 -0.6519 -1.0308 -0.3098
 3041TIP3   OH230537   0.070   4.142   4.718 -0.0247  0.0749 -0.9088
 3041TIP3    H130538   0.166   4.140   4.709 -0.0628 -1.7398 -1.3575
 3041TIP3    H230539   0.040   4.186   4.639  0.3857 -1.0383 -1.7177
 3042TIP3   OH230540   3.613   5.517   3.087 -0.1973  0.0222 -0.4776
 3042TIP3    H130541   3.581   5.537   2.999  2.6161 -0.0091 -1.5933
 3042TIP3    H230542   3.653   5.598   3.118  0.9202 -0.6037 -0.2284
 3043TIP3   OH230543   6.564   6.370   2.006  0.8557 -0.6556  0.2675
 3043TIP3    H130544   6.475   6.365   2.043  0.0974  0.0102 -1.3805
 3043TIP3    H230545   6.588   6.279   1.989  0.6985 -0.8753  1.1579
 3044TIP3   OH230546   2.420   0.069   3.450  0.4243  0.1698 -0.2794
 3044TIP3    H130547   2.507   0.078   3.411  1.5479  0.7138  2.1547
 3044TIP3    H230548   2.435   0.077   3.545 -2.0402 -1.5883  0.3539
 3045TIP3   OH230549   2.518   1.318  16.692  0.3376 -0.0710  0.2572
 3045TIP3    H130550   2.458   1.302  16.765 -0.2068  1.5351  0.1935
 3045TIP3    H230551   2.469   1.290  16.615 -0.1881  0.8370  0.2475
 3046TIP3   OH230552   4.296   2.968  11.770  0.6176  0.2918  0.6058
 3046TIP3    H130553   4.205   2.997  11.777 -0.2457 -2.1529  0.6647
 3046TIP3    H230554   4.306   2.905  11.842  2.1188 -0.0241  0.1483
 3047TIP3   OH230555   5.002   4.364   2.414 -0.0802  0.4440 -0.5811
 3047TIP3    H130556   4.988   4.301   2.485  1.4598 -0.7669 -1.2955
 3047TIP3    H230557   4.915   4.378   2.377 -0.7632  0.3662  0.9135
 3048TIP3   OH230558   3.422   5.141   5.687  0.0534 -0.4345 -0.8807
 3048TIP3    H130559   3.357   5.073   5.707 -1.5401  0.6180 -2.1819
 3048TIP3    H230560   3.444   5.179   5.772 -0.1995 -1.5539 -0.3047
 3049TIP3   OH230561   6.565   1.948  12.481 -0.1438  0.5371 -1.0537
 3049TIP3    H130562   6.596   1.861  12.505 -0.1405  0.2358 -2.1275
 3049TIP3    H230563   6.500   1.969  12.548  0.7654  0.2615 -0.0416
 3050TIP3   OH230564   2.104   0.092   0.318 -0.3564  0.2957 -0.1937
 3050TIP3    H130565   2.177   0.154   0.316 -1.3450  1.4676 -0.9106
 3050TIP3    H230566   2.144   0.010   0.348  1.4947  0.5706 -1.7317
 3051TIP3   OH230567   0.514   0.719  13.763  0.4287  0.5145 -0.7230
 3051TIP3    H130568   0.604   0.741  13.740  0.2890 -1.2743 -3.3989
 3051TIP3    H230569   0.468   0.713  13.680 -2.7573  3.1970  0.5728
 3052TIP3   OH230570   4.483   5.860   5.259 -0.4647 -0.0192  0.3603
 3052TIP3    H130571   4.463   5.778   5.213 -0.8183  0.5841 -0.5974
 3052TIP3    H230572   4.398   5.890   5.293 -0.3075 -0.1347  0.8609
 3053TIP3   OH230573   1.890   3.009  13.464  0.0259 -0.0277 -0.4303
 3053TIP3    H130574   1.971   3.056  13.444  0.0252 -0.1169 -0.6412
 3053TIP3    H230575   1.879   3.022  13.558  0.3910 -0.1811 -0.3631
 3054TIP3   OH230576   3.817   3.087   1.579  0.2021 -0.3328  0.9583
 3054TIP3    H130577   3.906   3.064   1.604  0.9466  1.0778 -0.3085
 3054TIP3    H230578   3.801   3.037   1.499  1.1850  2.0329 -0.8062
 3055TIP3   OH230579   1.407   1.932   1.603 -0.1433 -0.0740 -0.9083
 3055TIP3    H130580   1.378   1.983   1.527  3.1498  3.3490 -0.1625
 3055TIP3    H230581   1.499   1.912   1.584  0.9430  1.3160  2.2220
 3056TIP3   OH230582   4.314   4.122   5.098 -0.4677  0.3656 -0.2781
 3056TIP3    H130583   4.323   4.033   5.064  1.0485  0.1444  0.6004
 3056TIP3    H230584   4.232   4.120   5.148 -0.5701 -0.4726 -0.4555
 3057TIP3   OH230585   1.931   5.096  13.459  0.7632 -0.5848  0.0028
 3057TIP3    H130586   1.942   5.001  13.464  0.0200 -0.6412  1.0845
 3057TIP3    H230587   2.020   5.130  13.454  1.0094 -1.3689 -1.4131
 3058TIP3   OH230588   5.874   0.307  15.026  0.3423  0.5872  0.3728
 3058TIP3    H130589   5.791   0.295  15.072  0.8628 -3.6548  0.6308
 3058TIP3    H230590   5.854   0.289  14.935  0.8279  0.2553  0.3269
 3059TIP3   OH230591   2.552   5.595   5.072  0.7255 -0.5704  0.0694
 3059TIP3    H130592   2.595   5.564   4.992 -0.2571 -1.1369 -0.2550
 3059TIP3    H230593   2.586   5.684   5.084  0.5265 -0.2842 -1.2509
 3060TIP3   OH230594   4.990   6.743   5.228  0.5537  0.1741 -0.8784
 3060TIP3    H130595   4.961   6.656   5.202 -0.0833  0.0151  0.3037
 3060TIP3    H230596   5.019   6.733   5.318 -0.8499  1.4593 -0.2422
 3061TIP3   OH230597   0.633   1.684  16.714  0.6331 -0.0102  0.2213
 3061TIP3    H130598   0.700   1.659  16.778  0.0761  2.0848  1.7265
 3061TIP3    H230599   0.572   1.611  16.713  0.9348 -0.3133  1.7196
 3062TIP3   OH230600   2.490   5.011  15.764 -0.0753 -0.0986 -0.4817
 3062TIP3    H130601   2.558   5.055  15.714 -1.9685  1.3474 -1.9327
 3062TIP3    H230602   2.421   4.991  15.700  0.0730 -4.0710  0.3645
 3063TIP3   OH230603   6.112   5.253  11.570 -0.1950 -0.1903  0.8173
 3063TIP3    H130604   6.134   5.189  11.503  0.1172 -0.5485  1.2585
 3063TIP3    H230605   6.024   5.228  11.599 -0.7956  0.6417 -0.2422
 3064TIP3   OH230606   0.346   3.122   1.816  0.3558  0.1233  0.3560
 3064TIP3    H130607   0.293   3.072   1.878 -0.9384  0.4112 -0.4855
 3064TIP3    H230608   0.314   3.212   1.824  0.8792  0.3492 -0.0042
 3065TIP3   OH230609   1.066   1.843  16.926 -0.5193  0.3748 -0.1214
 3065TIP3    H130610   1.028   1.761  16.896 -0.8956  0.4399  0.1733
 3065TIP3    H230611   1.147   1.817  16.969 -0.6036  0.1652 -0.0900
 3066TIP3   OH230612   5.933   6.059   2.462 -0.9204  0.1317 -0.1634
 3066TIP3    H130613   5.976   6.144   2.461 -0.2936 -0.1767 -0.3891
 3066TIP3    H230614   5.976   6.011   2.533 -0.9467 -0.1525 -0.3375
 3067TIP3   OH230615   4.438   1.905   1.280  0.0910  0.1442 -0.3346
 3067TIP3    H130616   4.513   1.849   1.295  0.4649  0.6428 -0.3034
 3067TIP3    H230617   4.476   1.991   1.259 -0.4609  0.8887  1.4818
 3068TIP3   OH230618   0.817   0.666  15.444  0.0441 -0.2984 -0.0935
 3068TIP3    H130619   0.741   0.637  15.394  0.2235 -0.2751 -0.3826
 3068TIP3    H230620   0.829   0.757  15.419 -0.0551 -0.1932  0.2337
 3069TIP3   OH230621   4.193   1.422  16.123  0.4181  0.0517 -0.1051
 3069TIP3    H130622   4.267   1.443  16.180  0.9111  0.1457 -0.7652
 3069TIP3    H230623   4.132   1.375  16.179  1.0129 -0.0908  0.4303
 3070TIP3   OH230624   0.110   0.616  12.592 -0.2671  0.5185  0.1464
 3070TIP3    H130625   0.177   0.566  12.637 -0.7080  0.3413  0.6201
 3070TIP3    H230626   0.054   0.550  12.552  0.3789  0.6813 -1.0594
 3071TIP3   OH230627   1.531   4.380  16.747 -0.3166  0.6506 -0.3283
 3071TIP3    H130628   1.577   4.371  16.831 -0.1943 -0.0371 -0.4651
 3071TIP3    H230629   1.598   4.362  16.681 -0.0286  2.6251 -0.6592
 3072TIP3   OH230630   5.160   1.058  15.937 -0.5697  0.1759  0.2072
 3072TIP3    H130631   5.162   0.995  16.008  0.3192 -1.5695 -1.2996
 3072TIP3    H230632   5.218   1.129  15.965  0.3330 -0.8297  0.9030
 3073TIP3   OH230633   0.514   1.369  16.348  0.0845 -0.2441 -0.9112
 3073TIP3    H130634   0.578   1.431  16.384 -0.8278 -0.3960  1.0650
 3073TIP3    H230635   0.432   1.390  16.393 -0.2137 -3.0408  0.0175
 3074TIP3   OH230636   6.230   3.728   3.061  0.2730  0.0835 -0.5140
 3074TIP3    H130637   6.150   3.753   3.015 -0.0592 -0.8780 -0.4759
 3074TIP3    H230638   6.227   3.776   3.144 -0.2145  0.1093 -0.5484
 3075TIP3   OH230639   1.333   1.150   2.884 -0.5789 -0.0664 -0.2922
 3075TIP3    H130640   1.405   1.087   2.879 -0.1593  0.2346  1.3742
 3075TIP3    H230641   1.340   1.200   2.802  0.1839 -1.0026 -0.8249
 3076TIP3   OH230642   3.118   3.851  13.047  0.6008 -0.1286  0.2924
 3076TIP3    H130643   3.153   3.777  13.097  0.2109 -0.3265  0.2732
 3076TIP3    H230644   3.138   3.830  12.956  1.0193  0.0756  0.3345
 3077TIP3   OH230645   6.183   5.597   5.306 -0.5876  0.1337  0.2564
 3077TIP3    H130646   6.194   5.673   5.248  0.9981  0.2199  0.6157
 3077TIP3    H230647   6.095   5.606   5.342 -0.7146  1.3711 -0.3171
 3078TIP3   OH230648   1.339   6.391  10.827 -0.4418 -0.0709  0.3234
 3078TIP3    H130649   1.383   6.321  10.875 -0.4404  0.2023  0.7247
 3078TIP3    H230650   1.249   6.390  10.859 -0.3362  0.3850  0.6419
 3079TIP3   OH230651   6.275   1.555  14.875 -0.2968  0.0403 -0.1599
 3079TIP3    H130652   6.185   1.566  14.907  0.1186  0.1628  0.9949
 3079TIP3    H230653   6.293   1.461  14.887 -0.0553  0.1316  0.1976
 3080TIP3   OH230654   4.386   6.606   1.144  0.1564 -0.4194 -0.1532
 3080TIP3    H130655   4.471   6.583   1.107 -0.0355 -0.7835 -0.3776
 3080TIP3    H230656   4.329   6.617   1.068  0.2603  0.8954 -0.0532
 3081TIP3   OH230657   0.810   0.846  13.206 -0.2520 -0.1490 -0.0709
 3081TIP3    H130658   0.904   0.835  13.190 -0.3555  1.7397 -2.4755
 3081TIP3    H230659   0.805   0.907  13.279  0.3566 -0.4937  0.2681
 3082TIP3   OH230660   1.666   0.907   0.739  0.0606  0.1307 -0.0669
 3082TIP3    H130661   1.697   0.826   0.778 -1.7315  0.0447  1.3060
 3082TIP3    H230662   1.604   0.943   0.802 -0.4638  1.7117 -1.3847
 3083TIP3   OH230663   1.551   1.793  15.892  0.5945  0.0649 -0.0428
 3083TIP3    H130664   1.497   1.848  15.949  0.0552 -0.0651 -0.4123
 3083TIP3    H230665   1.623   1.763  15.947 -1.2571 -2.1584  1.3214
 3084TIP3   OH230666   6.324   1.048   2.533 -0.4385  0.2953  0.0876
 3084TIP3    H130667   6.411   1.020   2.561  0.2770  2.4536  0.2435
 3084TIP3    H230668   6.340   1.130   2.486 -2.6356  2.6760  3.1135
 3085TIP3   OH230669   0.090   2.504   4.782  0.2329  1.1668 -0.4307
 3085TIP3    H130670   0.061   2.533   4.696  0.5481  2.3379 -0.1593
 3085TIP3    H230671   0.017   2.522   4.841 -0.0215  0.2759 -0.4564
 3086TIP3   OH230672   1.880   4.909   2.684  0.8538 -0.3558  0.5057
 3086TIP3    H130673   1.911   4.956   2.607 -0.9086  0.5785  0.2958
 3086TIP3    H230674   1.798   4.954   2.708 -1.0329 -3.3546  0.2428
 3087TIP3   OH230675   4.211   5.065  16.188 -0.5936  0.3457 -0.1814
 3087TIP3    H130676   4.179   5.151  16.216 -2.0045 -0.3111  0.3095
 3087TIP3    H230677   4.218   5.015  16.269  1.1860  0.2553 -0.3371
 3088TIP3   OH230678   0.721   2.866   4.661 -0.1775 -0.6716 -0.3387
 3088TIP3    H130679   0.771   2.859   4.742  0.5612  1.4610 -0.5585
 3088TIP3    H230680   0.651   2.928   4.680  1.0190  1.2345 -1.7250
 3089TIP3   OH230681   6.637   4.831   0.139  0.1930  0.1496 -0.0875
 3089TIP3    H130682   6.559   4.845   0.192  0.0252  0.7628 -0.4804
 3089TIP3    H230683   6.700   4.896   0.169 -0.2395  1.1480 -1.2636
 3090TIP3   OH230684   0.183   3.559   1.137 -0.1410 -0.5720  0.0904
 3090TIP3    H130685   0.225   3.478   1.166 -1.0322 -1.0951 -0.0615
 3090TIP3    H230686   0.207   3.623   1.203 -0.3952 -1.2472  0.8505
 3091TIP3   OH230687   4.630   0.445   4.297  0.2605  0.0850  0.3908
 3091TIP3    H130688   4.562   0.458   4.232 -0.4448  0.4332  1.1754
 3091TIP3    H230689   4.691   0.518   4.283  0.4025 -0.1440 -0.2128
 3092TIP3   OH230690   3.612   6.407  16.923  0.5051 -0.2413 -0.5007
 3092TIP3    H130691   3.659   6.478  16.879  1.5672  0.5746  1.7765
 3092TIP3    H230692   3.676   6.336  16.929  0.0392 -0.7307 -1.1196
 3093TIP3   OH230693   4.008   0.298   1.232 -0.2008 -0.3965 -0.3081
 3093TIP3    H130694   4.100   0.285   1.209  0.3966  2.4750 -0.0123
 3093TIP3    H230695   3.983   0.219   1.278  2.8982 -0.3176  1.8352
 3094TIP3   OH230696   2.721   3.949  15.902 -0.7459 -0.2196  0.3374
 3094TIP3    H130697   2.630   3.953  15.931 -1.4024 -1.6026 -1.3941
 3094TIP3    H230698   2.772   3.949  15.983 -2.1609  2.1495  1.3261
 3095TIP3   OH230699   2.048   4.928   0.614  0.3082  0.4488  0.0732
 3095TIP3    H130700   2.046   5.021   0.637 -2.5431  0.6123 -0.3917
 3095TIP3    H230701   1.956   4.905   0.599  0.9063 -2.4724  0.1848
 3096TIP3   OH230702   1.031   2.090   1.250 -0.2502 -0.0385 -0.5491
 3096TIP3    H130703   1.063   2.000   1.248  1.0358  0.3986 -0.5939
 3096TIP3    H230704   0.987   2.102   1.166 -0.0791 -0.4999 -0.7058
 3097TIP3   OH230705   0.479   1.044  12.407  0.1105 -0.1895 -0.0380
 3097TIP3    H130706   0.485   1.130  12.366 -0.6327 -0.4059 -0.6167
 3097TIP3    H230707   0.558   0.998  12.377  0.8802  0.5227  0.8562
 3098TIP3   OH230708   3.424   3.643   2.868  0.2736  0.2420 -0.3353
 3098TIP3    H130709   3.496   3.695   2.905  0.8068  0.5371 -1.7444
 3098TIP3    H230710   3.361   3.708   2.837  1.1076  0.1158 -2.4338
 3099TIP3   OH230711   3.774   4.661  14.327  0.2408 -0.1143 -0.7241
 3099TIP3    H130712   3.807   4.747  14.302  0.7443  0.2099  0.9084
 3099TIP3    H230713   3.851   4.604  14.325  0.7353  0.3433  1.7722
 3100TIP3   OH230714   1.002   1.405   2.505 -0.7298  0.0315 -0.0792
 3100TIP3    H130715   0.938   1.381   2.572 -1.1404 -3.1236 -1.3890
 3100TIP3    H230716   0.949   1.448   2.437 -0.2389  3.6650  1.6437
 3101TIP3   OH230717   0.752   2.063  16.769  0.0412 -0.0217  0.2566
 3101TIP3    H130718   0.697   2.089  16.842 -0.4294 -0.0918 -0.0641
 3101TIP3    H230719   0.794   2.144  16.739  0.5234 -0.0549  0.8312
 3102TIP3   OH230720   2.446   6.125  13.876  0.3645 -0.2668 -0.3128
 3102TIP3    H130721   2.518   6.091  13.822  1.1954 -0.2958  0.7930
 3102TIP3    H230722   2.481   6.126  13.965 -1.5336 -1.7935  0.5154
 3103TIP3   OH230723   3.833   1.520   0.681  0.4346 -0.1094 -0.3294
 3103TIP3    H130724   3.790   1.551   0.601  1.8876 -0.7756 -1.3895
 3103TIP3    H230725   3.874   1.438   0.657  0.0868 -0.8361  1.3852
 3104TIP3   OH230726   5.769   3.216  12.129 -0.2089  0.2676  0.3152
 3104TIP3    H130727   5.799   3.302  12.100  0.3488  0.2534  0.8338
 3104TIP3    H230728   5.705   3.189  12.063  0.4116  0.6088 -0.4387
 3105TIP3   OH230729   3.745   3.355   1.675  0.1202  0.2944  0.5095
 3105TIP3    H130730   3.793   3.275   1.651 -2.9363 -1.3638 -0.6361
 3105TIP3    H230731   3.711   3.337   1.763 -0.5070  0.3342  0.2817
 3106TIP3   OH230732   2.328   3.544   2.209 -0.2202  0.3013 -0.3383
 3106TIP3    H130733   2.323   3.450   2.225  0.4245 -0.2781 -2.9760
 3106TIP3    H230734   2.403   3.574   2.261 -1.3871 -0.2744  1.7714
 3107TIP3   OH230735   6.457   0.101   4.700  0.0171 -0.0357 -0.1804
 3107TIP3    H130736   6.415   0.071   4.620  0.4864  2.3447 -1.4018
 3107TIP3    H230737   6.469   0.021   4.752 -2.0237 -1.3773 -1.6210
 3108TIP3   OH230738   0.243   2.212  15.438  0.1981  0.2412 -1.0221
 3108TIP3    H130739   0.175   2.180  15.497 -1.2329  1.6336 -1.8325
 3108TIP3    H230740   0.265   2.137  15.384  0.5929 -0.6997  0.3804
 3109TIP3   OH230741   2.309   1.681   2.970  0.5280  0.1173 -0.2103
 3109TIP3    H130742   2.251   1.617   2.928  0.3194  0.2493 -0.1244
 3109TIP3    H230743   2.392   1.635   2.980  0.2682 -0.2706  0.2074
 3110TIP3   OH230744   0.628   5.132   1.808  0.0636 -0.6110 -0.1251
 3110TIP3    H130745   0.562   5.067   1.784 -0.5492  0.2873 -0.9427
 3110TIP3    H230746   0.660   5.103   1.893 -1.5892 -0.9328  0.4355
 3111TIP3   OH230747   4.703   3.023  14.634 -0.1825 -0.5629 -0.3238
 3111TIP3    H130748   4.745   2.990  14.713 -1.3796  0.2105  0.6670
 3111TIP3    H230749   4.617   2.981  14.632 -0.1854 -0.5449 -1.2065
 3112TIP3   OH230750   3.496   5.802  16.724 -0.1035 -0.2198 -0.4775
 3112TIP3    H130751   3.406   5.773  16.736  0.0813 -0.8295 -0.5580
 3112TIP3    H230752   3.542   5.726  16.690  0.5135 -0.0006 -0.1493
 3113TIP3   OH230753   3.932   2.902  16.500 -0.3642  0.2940 -0.1190
 3113TIP3    H130754   3.904   2.851  16.424  2.3276 -1.3775 -0.1101
 3113TIP3    H230755   3.920   2.993  16.474 -0.1962 -0.2439 -2.2909
 3114TIP3   OH230756   1.258   4.348   6.402  0.1154  0.3585 -0.0495
 3114TIP3    H130757   1.305   4.431   6.394 -0.1919  0.5000 -0.4023
 3114TIP3    H230758   1.181   4.359   6.347 -0.8007  0.4603  1.2080
 3115TIP3   OH230759   3.351   5.879   2.854  0.2187  0.1592  0.1052
 3115TIP3    H130760   3.277   5.924   2.895  0.0842 -0.2343  0.2905
 3115TIP3    H230761   3.351   5.912   2.764  0.5920  1.1181  0.4400
 3116TIP3   OH230762   2.452   3.611  11.527  0.3844 -0.0126 -0.2960
 3116TIP3    H130763   2.415   3.684  11.576  0.2633  1.0272 -1.8446
 3116TIP3    H230764   2.545   3.633  11.519  0.6024 -0.6868  0.3222
 3117TIP3   OH230765   4.806   1.536   0.181 -0.3984  0.1479 -0.3618
 3117TIP3    H130766   4.810   1.502   0.092 -2.4595 -1.0587 -0.0524
 3117TIP3    H230767   4.809   1.631   0.170  0.5096  0.0058 -1.6028
 3118TIP3   OH230768   2.452   1.587  16.361 -0.0756 -0.1648 -0.4007
 3118TIP3    H130769   2.425   1.623  16.276 -0.7542  0.5731  0.1216
 3118TIP3    H230770   2.419   1.649  16.425 -2.1980 -2.2056  0.6172
 3119TIP3   OH230771   5.672   4.925  12.692  0.4130 -0.3189  0.0259
 3119TIP3    H130772   5.728   4.855  12.726  1.9545 -0.2700 -2.2723
 3119TIP3    H230773   5.722   5.005  12.705 -0.1017  0.0145 -0.0200
 3120TIP3   OH230774   6.230   3.909   1.507 -0.3818  0.1312 -0.0256
 3120TIP3    H130775   6.222   3.941   1.597 -1.1226  0.4347 -0.1874
 3120TIP3    H230776   6.141   3.919   1.471  0.0841  0.8042 -1.0373
 3121TIP3   OH230777   6.027   1.760  12.853 -0.6824 -0.5732  0.1012
 3121TIP3    H130778   6.041   1.763  12.758 -0.6108  1.4010  0.1289
 3121TIP3    H230779   6.114   1.749  12.890 -0.3528  1.2553 -0.0293
 3122TIP3   OH230780   2.789   1.853   4.877  0.2796  0.5201  0.4958
 3122TIP3    H130781   2.717   1.916   4.881  0.3229  0.5630  0.5977
 3122TIP3    H230782   2.748   1.771   4.850  0.5246  1.0842 -1.8044
 3123TIP3   OH230783   3.984   2.627   4.816 -0.0222 -0.4159 -0.0629
 3123TIP3    H130784   3.939   2.644   4.733  0.0387  0.6083  0.1054
 3123TIP3    H230785   4.005   2.714   4.851 -0.6584 -0.8026  1.3582
 3124TIP3   OH230786   3.437   1.849  13.614 -0.3186  0.1249 -0.3679
 3124TIP3    H130787   3.442   1.932  13.566  0.6615 -0.2780 -0.9803
 3124TIP3    H230788   3.399   1.787  13.551  0.0602 -0.1706 -0.3080
 3125TIP3   OH230789   6.350   2.042  12.644  0.1076  0.2538 -0.2203
 3125TIP3    H130790   6.293   2.118  12.634 -0.8896 -0.5287 -0.6277
 3125TIP3    H230791   6.319   1.999  12.724  0.3155 -0.0160 -0.2836
 3126TIP3   OH230792   2.767   3.725   5.514  0.5057 -0.2883 -0.3255
 3126TIP3    H130793   2.676   3.720   5.542  0.8046  0.2673  0.7980
 3126TIP3    H230794   2.772   3.667   5.438 -0.6157 -0.8893  0.0404
 3127TIP3   OH230795   1.179   5.724  13.449 -0.5075  0.0380 -0.2732
 3127TIP3    H130796   1.166   5.818  13.463 -0.6206 -0.1719  1.2029
 3127TIP3    H230797   1.252   5.719  13.387 -1.4008  1.1038 -1.4573
 3128TIP3   OH230798   5.756   5.585  16.086 -0.2018 -0.3579 -0.1305
 3128TIP3    H130799   5.749   5.645  16.160 -0.7942  0.4655 -0.8378
 3128TIP3    H230800   5.680   5.526  16.096 -1.0029  0.5455 -0.7666
 3129TIP3   OH230801   2.643   1.163  16.231 -0.4237 -0.1480 -0.0036
 3129TIP3    H130802   2.678   1.130  16.148  0.3177  0.2600  0.1317
 3129TIP3    H230803   2.586   1.094  16.263 -1.5423  0.1060 -1.3530
 3130TIP3   OH230804   5.011   2.794  17.268 -0.4025 -0.1397  0.2570
 3130TIP3    H130805   4.984   2.828  17.354  0.5223 -0.0080  0.5175
 3130TIP3    H230806   4.996   2.867  17.208 -2.6598 -0.7800 -0.0421
 3131TIP3   OH230807   0.551   5.655   2.729  0.1241  0.5073  0.1106
 3131TIP3    H130808   0.582   5.675   2.641  0.5583 -0.6821 -0.0221
 3131TIP3    H230809   0.554   5.739   2.775 -1.2768  1.4150 -1.3260
 3132TIP3   OH230810   3.848   1.393   4.111  0.2123 -0.1318 -0.5595
 3132TIP3    H130811   3.832   1.485   4.092  0.0647  0.3204  1.4833
 3132TIP3    H230812   3.809   1.346   4.038  0.6220  1.4149 -1.8477
 3133TIP3   OH230813   1.655   1.165   1.129  0.4776  0.0557  0.5726
 3133TIP3    H130814   1.729   1.106   1.139  0.3389 -0.5760 -1.6600
 3133TIP3    H230815   1.594   1.118   1.072 -0.2383  1.8046 -0.1729
 3134TIP3   OH230816   0.565   0.665  11.638 -0.3803  0.2039 -0.0934
 3134TIP3    H130817   0.616   0.630  11.566  0.7629  0.2445  0.6641
 3134TIP3    H230818   0.622   0.731  11.678 -0.5571 -0.5482  1.4712
 3135TIP3   OH230819   0.117   5.232   3.490  0.6970  0.5151 -0.1920
 3135TIP3    H130820   0.063   5.246   3.567  0.6186 -1.4493  0.1421
 3135TIP3    H230821   0.118   5.318   3.446 -1.1024  1.0793  0.7716
 3136TIP3   OH230822   6.243   5.789   4.362 -0.7035 -0.5316  0.1937
 3136TIP3    H130823   6.241   5.855   4.431 -0.0009 -2.9610  2.7007
 3136TIP3    H230824   6.328   5.747   4.371 -0.7259 -1.1630 -1.9876
 3137TIP3   OH230825   3.640   2.102   3.376  0.1585  0.5164 -0.1980
 3137TIP3    H130826   3.597   2.030   3.330  0.2213 -0.7909  1.6651
 3137TIP3    H230827   3.568   2.161   3.399  0.1611  1.3395 -2.1194
 3138TIP3   OH230828   4.398   1.814  13.444 -0.2137  0.2218  0.1604
 3138TIP3    H130829   4.372   1.789  13.533 -0.6594 -0.8041 -0.2540
 3138TIP3    H230830   4.468   1.879  13.458  0.0858 -0.3056  1.2522
 3139TIP3   OH230831   6.021   5.134   0.823 -0.2612  0.0288 -0.1213
 3139TIP3    H130832   6.090   5.133   0.757  0.5684  0.4700  0.6992
 3139TIP3    H230833   5.951   5.187   0.785 -0.4009 -0.9108 -1.2015
 3140TIP3   OH230834   3.702   6.080   1.939 -0.0790  0.1239  0.2290
 3140TIP3    H130835   3.691   6.082   2.034  2.8778  1.4755  0.6496
 3140TIP3    H230836   3.614   6.063   1.905 -1.7557  2.2387  3.0821
 3141TIP3   OH230837   1.829   1.418  13.325 -0.4131  0.7248  0.3781
 3141TIP3    H130838   1.734   1.422  13.313 -0.5192 -0.2439  0.7762
 3141TIP3    H230839   1.841   1.373  13.408  0.4131 -0.4602 -0.3521
 3142TIP3   OH230840   5.247   0.544  14.998  0.2751 -0.0196  0.1590
 3142TIP3    H130841   5.177   0.479  15.001  2.2679 -2.2906  1.7452
 3142TIP3    H230842   5.202   0.629  15.001 -2.4052 -1.3005 -0.7708
 3143TIP3   OH230843   5.650   3.969  13.798 -0.4226  0.1499 -0.2780
 3143TIP3    H130844   5.626   4.051  13.840  0.5370  0.0714  0.4587
 3143TIP3    H230845   5.585   3.906  13.829  0.1731  0.1315  0.9941
 3144TIP3   OH230846   3.769   1.442   2.671 -0.1226 -0.3786 -0.5146
 3144TIP3    H130847   3.738   1.354   2.647 -1.5786  0.0428 -0.2857
 3144TIP3    H230848   3.689   1.494   2.676  0.8033  1.2667 -1.8630
 3145TIP3   OH230849   1.301   5.295  16.168  0.6033 -0.2257 -0.3473
 3145TIP3    H130850   1.272   5.210  16.202  0.8568 -0.9436 -1.8253
 3145TIP3    H230851   1.348   5.335  16.241 -1.4943 -0.3083  1.1421
 3146TIP3   OH230852   0.972   0.350   4.170 -0.4037 -0.3034 -0.4038
 3146TIP3    H130853   1.033   0.401   4.117  1.0665 -2.7466 -1.1817
 3146TIP3    H230854   0.911   0.312   4.107  1.1217 -2.9087 -0.4520
 3147TIP3   OH230855   3.607   3.511  10.736  0.5221 -0.2686  0.2162
 3147TIP3    H130856   3.545   3.550  10.674  1.8091  1.4434 -0.0852
 3147TIP3    H230857   3.691   3.554  10.716  2.1431 -3.3676 -0.2264
 3148TIP3   OH230858   4.301   3.108   3.904 -0.3730 -0.3735  0.4439
 3148TIP3    H130859   4.293   3.097   3.999  1.0620 -1.1128  0.5131
 3148TIP3    H230860   4.395   3.116   3.889 -0.1408 -4.1174 -1.2655
 3149TIP3   OH230861   1.543   0.465   1.853  0.6913 -0.2898 -0.2446
 3149TIP3    H130862   1.476   0.398   1.841  0.2737 -0.0132  0.5045
 3149TIP3    H230863   1.511   0.540   1.802  1.2756 -0.7150 -1.2821
 3150TIP3   OH230864   6.024   5.559  13.719 -0.3375  0.5712  0.2630
 3150TIP3    H130865   6.088   5.490  13.739  0.0801  0.5083 -1.2003
 3150TIP3    H230866   6.052   5.594  13.635 -0.9884  2.0347  0.6266
 3151TIP3   OH230867   3.672   1.174   1.237 -0.4567 -0.0527  0.5101
 3151TIP3    H130868   3.708   1.199   1.152  0.7965  3.3478  1.8440
 3151TIP3    H230869   3.577   1.183   1.227 -0.3514 -0.1802 -0.6559
 3152TIP3   OH230870   2.842   2.406  14.374 -0.6012  0.3130  0.7968
 3152TIP3    H130871   2.809   2.317  14.383 -1.3913  0.5857  0.6174
 3152TIP3    H230872   2.903   2.416  14.447 -0.2654 -0.4763  0.6416
 3153TIP3   OH230873   5.697   4.907  14.543  0.1416 -0.2748 -0.4890
 3153TIP3    H130874   5.639   4.956  14.601 -1.6085 -1.9668 -0.7198
 3153TIP3    H230875   5.785   4.923  14.578 -0.6068  0.9237  0.9626
 3154TIP3   OH230876   0.602   1.130  11.521 -0.7795  0.4110 -0.0780
 3154TIP3    H130877   0.583   1.136  11.427 -0.3079  4.2299 -0.0754
 3154TIP3    H230878   0.685   1.176  11.531 -1.3485  1.0245  2.3334
 3155TIP3   OH230879   3.553   4.708  11.187  0.2500 -0.2410  0.7297
 3155TIP3    H130880   3.629   4.737  11.136 -2.3143  0.2689 -3.1974
 3155TIP3    H230881   3.531   4.622  11.152 -2.4329  0.7230 -0.2331
 3156TIP3   OH230882   5.836   4.549  15.228 -0.0736 -0.7045  0.1457
 3156TIP3    H130883   5.871   4.460  15.217  0.4435 -0.7463  1.8526
 3156TIP3    H230884   5.876   4.581  15.309 -2.5239 -0.0445  1.1912
 3157TIP3   OH230885   3.614   0.054   2.213  0.9886 -0.7756 -0.1808
 3157TIP3    H130886   3.627  -0.027   2.262 -1.9828 -0.7778  0.8088
 3157TIP3    H230887   3.553   0.030   2.143 -0.3945  0.6904  0.4810
 3158TIP3   OH230888   0.578   6.640  14.791 -0.3710  0.1958  0.0279
 3158TIP3    H130889   0.640   6.705  14.822  0.7542 -0.5830 -0.5245
 3158TIP3    H230890   0.577   6.649  14.696  0.5706 -1.2350 -0.1489
 3159TIP3   OH230891   4.587   6.482   3.283  0.2175  0.0137 -0.0138
 3159TIP3    H130892   4.540   6.457   3.363  0.8553 -0.0765  0.3381
 3159TIP3    H230893   4.646   6.408   3.266 -0.4975 -0.3501 -1.0443
 3160TIP3   OH230894   4.108   0.988  12.526  0.0886 -0.0714  0.3490
 3160TIP3    H130895   4.155   1.069  12.547  0.8461 -0.9718  2.5282
 3160TIP3    H230896   4.023   1.017  12.494 -0.1179  1.6184  2.2000
 3161TIP3   OH230897   3.364   4.267  16.636 -0.3797 -0.5510  0.9287
 3161TIP3    H130898   3.313   4.285  16.557 -0.2480 -0.1440  0.9363
 3161TIP3    H230899   3.430   4.203  16.609  0.5647  0.6323  0.3644
 3162TIP3   OH230900   1.115   3.149  14.525  0.1275 -0.8443 -0.2572
 3162TIP3    H130901   1.165   3.217  14.570 -1.6441  1.3226 -1.3625
 3162TIP3    H230902   1.049   3.122  14.589 -1.8203  1.5953 -1.0534
 3163TIP3   OH230903   2.219   2.634   3.637 -0.2489 -0.1099 -0.3455
 3163TIP3    H130904   2.206   2.632   3.731 -0.0772 -2.6347 -0.3171
 3163TIP3    H230905   2.145   2.586   3.601 -0.9606  1.8040 -1.6502
 3164TIP3   OH230906   5.477   0.550   2.304 -0.4373 -0.1533 -0.0349
 3164TIP3    H130907   5.441   0.474   2.258 -2.2051  0.0840  0.8670
 3164TIP3    H230908   5.562   0.566   2.262 -1.4134 -0.6792 -2.3650
 3165TIP3   OH230909   0.063   4.165  10.730  0.6519 -0.1910 -0.4523
 3165TIP3    H130910   0.052   4.260  10.735  2.9125  0.0804  0.6356
 3165TIP3    H230911   0.010   4.131  10.803  1.8497  0.5086  0.8035
 3166TIP3   OH230912   5.653   5.012   5.535 -0.5174 -0.1648  0.5168
 3166TIP3    H130913   5.672   4.963   5.455 -0.2291 -0.6174  0.8577
 3166TIP3    H230914   5.722   5.079   5.539 -0.9059  0.2779  0.0567
 3167TIP3   OH230915   2.064   4.427   3.704 -0.2175  0.6036  0.3532
 3167TIP3    H130916   2.032   4.512   3.676 -3.4120 -0.3069  0.7521
 3167TIP3    H230917   2.044   4.423   3.798  0.3133 -0.3851  0.4443
 3168TIP3   OH230918   2.313   4.648  15.808 -0.0133  0.2124  0.2477
 3168TIP3    H130919   2.238   4.589  15.799  1.0137 -0.8934 -2.3604
 3168TIP3    H230920   2.369   4.605  15.872 -1.0788  0.4960  1.4091
 3169TIP3   OH230921   6.537   1.975   4.447 -0.1800 -0.2352  0.0476
 3169TIP3    H130922   6.617   1.932   4.475 -1.1017 -1.5692  0.7181
 3169TIP3    H230923   6.478   1.968   4.522 -0.8461  0.9715 -0.3304
 3170TIP3   OH230924   2.232   0.642   3.375 -1.0382 -0.2252 -0.2181
 3170TIP3    H130925   2.294   0.569   3.384 -0.7542  0.1748  1.3575
 3170TIP3    H230926   2.153   0.612   3.419 -1.6571 -0.3461 -1.3613
 3171TIP3   OH230927   0.272   5.567  16.463  0.5215  0.3138  0.0173
 3171TIP3    H130928   0.228   5.640  16.420 -1.1268  0.9786  2.6482
 3171TIP3    H230929   0.319   5.523  16.392  0.1312  2.8564 -1.9511
 3172TIP3   OH230930   0.137   4.115  17.081  0.1858  0.1845  0.0992
 3172TIP3    H130931   0.111   4.073  17.000 -0.6206  1.9127 -0.5963
 3172TIP3    H230932   0.142   4.208  17.059 -0.0146  0.6911  2.0112
 3173TIP3   OH230933   0.811   5.514   1.827 -0.4760  0.5940  0.0676
 3173TIP3    H130934   0.778   5.463   1.901 -2.0557  2.7891  0.9886
 3173TIP3    H230935   0.752   5.589   1.821  0.9716  1.6766 -2.0101
 3174TIP3   OH230936   5.472   0.014   6.159  0.5001 -0.1414 -0.3337
 3174TIP3    H130937   5.383  -0.016   6.178  1.2791 -2.8598 -0.5921
 3174TIP3    H230938   5.466   0.054   6.073 -0.8426  1.7143  0.5672
 3175TIP3   OH230939   5.425   3.160  13.657  0.0934  0.0952 -0.6492
 3175TIP3    H130940   5.406   3.246  13.621 -0.6200  0.6918  1.0769
 3175TIP3    H230941   5.517   3.164  13.684 -0.3011  0.7736  0.6288
 3176TIP3   OH230942   2.444   6.127  11.889 -0.2837 -0.0325  0.0370
 3176TIP3    H130943   2.536   6.105  11.873 -0.5366  0.0666 -1.7587
 3176TIP3    H230944   2.446   6.220  11.913  0.0643  0.0354 -0.2423
 3177TIP3   OH230945   5.327   4.033   1.264  0.0371 -0.4179  0.2358
 3177TIP3    H130946   5.302   3.997   1.348  1.8145 -0.4707  0.7957
 3177TIP3    H230947   5.318   3.959   1.203 -3.5359  0.2230 -0.1757
 3178TIP3   OH230948   1.325   2.502   2.740  0.5658 -1.1207  0.1050
 3178TIP3    H130949   1.315   2.552   2.659  0.8583 -1.6881 -0.2892
 3178TIP3    H230950   1.417   2.511   2.763  0.1349  0.5397  1.3886
 3179TIP3   OH230951   3.677   5.767  16.999  0.5494  0.4502  0.0155
 3179TIP3    H130952   3.751   5.814  17.038  0.1412 -0.6745  2.2572
 3179TIP3    H230953   3.712   5.681  16.978  0.0149  0.0718  0.6463
 3180TIP3   OH230954   4.296   4.775  12.666 -0.0600  0.5747 -0.5234
 3180TIP3    H130955   4.267   4.748  12.753  2.0726  1.8798  0.6851
 3180TIP3    H230956   4.391   4.786  12.674  0.2132  0.7028 -3.0449
 3181TIP3   OH230957   0.219   3.022   2.044  0.0064  0.3721  0.3970
 3181TIP3    H130958   0.267   3.003   2.124  0.3665 -1.6139 -0.2442
 3181TIP3    H230959   0.141   3.069   2.073 -0.0554 -0.6500  1.9386
 3182TIP3   OH230960   5.359   5.743  11.868 -0.4031  0.4500  0.0496
 3182TIP3    H130961   5.289   5.804  11.842 -1.0736 -0.0928  0.5309
 3182TIP3    H230962   5.344   5.728  11.961  1.3038  1.5183  0.5205
 3183TIP3   OH230963   5.964   0.234  12.125 -0.1961 -0.3783  0.0028
 3183TIP3    H130964   5.877   0.265  12.101 -0.2080 -0.9460 -0.6915
 3183TIP3    H230965   5.993   0.182  12.051 -0.1377 -1.9767  1.1045
 3184TIP3   OH230966   3.954   3.417   3.677 -0.8909 -0.4592 -0.1992
 3184TIP3    H130967   3.943   3.461   3.592 -3.4917  0.0149  0.3088
 3184TIP3    H230968   3.898   3.339   3.670 -1.6780 -0.0493  1.2980
 3185TIP3   OH230969   1.328   6.439   0.937  0.2221  0.0803 -0.2216
 3185TIP3    H130970   1.262   6.386   0.981 -0.8176 -1.7928 -3.6619
 3185TIP3    H230971   1.296   6.529   0.947 -0.7203 -0.3859  1.4649
 3186TIP3   OH230972   2.089   1.179  12.457  0.1587  0.0897 -0.3980
 3186TIP3    H130973   2.043   1.220  12.531  1.6799  1.8860 -0.3892
 3186TIP3    H230974   2.181   1.187  12.478  0.7467  2.0379 -3.1222
 3187TIP3   OH230975   6.328   4.181  15.446  0.1670  0.5851 -0.6791
 3187TIP3    H130976   6.423   4.189  15.441  0.2667  0.5547  0.7656
 3187TIP3    H230977   6.304   4.231  15.524 -0.7368 -1.2477  0.2790
 3188TIP3   OH230978   5.049   0.403  15.635  0.5949 -0.4810  0.0797
 3188TIP3    H130979   4.980   0.450  15.682 -0.5596 -1.7391 -0.2684
 3188TIP3    H230980   5.129   0.452  15.652 -0.1654  0.2883  1.5886
 3189TIP3   OH230981   5.950   6.146  16.007 -0.0324  0.0367 -0.1069
 3189TIP3    H130982   5.901   6.103  16.077  1.2030 -1.8159 -0.3146
 3189TIP3    H230983   5.885   6.162  15.938 -0.7982 -0.2492  0.5373
 3190TIP3   OH230984   5.176   1.468   3.142 -0.9400  0.0849 -0.1499
 3190TIP3    H130985   5.177   1.402   3.211  0.5293  0.9150  0.6628
 3190TIP3    H230986   5.114   1.533   3.172 -0.3999  0.3799  0.3521
 3191TIP3   OH230987   1.149   6.134  13.735  0.3176 -0.1026  0.0240
 3191TIP3    H130988   1.079   6.147  13.799 -1.1316  0.9035 -1.6826
 3191TIP3    H230989   1.188   6.050  13.760 -1.3654 -0.6192  1.1568
 3192TIP3   OH230990   3.237   0.469  15.543 -0.3328 -0.0758 -0.7332
 3192TIP3    H130991   3.183   0.540  15.508  2.3980  1.4416 -2.2001
 3192TIP3    H230992   3.240   0.485  15.637 -0.9581  0.8700 -0.8551
 3193TIP3   OH230993   5.118   6.507  14.828  0.2320  0.2021  0.3682
 3193TIP3    H130994   5.071   6.573  14.879 -0.5513  0.0328 -0.1040
 3193TIP3    H230995   5.050   6.467  14.773  0.9092 -0.1822 -0.2049
 3194TIP3   OH230996   0.574   6.125  17.069 -0.1910  0.5325  0.4269
 3194TIP3    H130997   0.568   6.192  17.001 -1.0473 -1.0570 -1.1516
 3194TIP3    H230998   0.502   6.065  17.050  2.1965 -2.4485 -0.0918
 3195TIP3   OH230999   0.354   4.730   5.902  0.6130  0.5533  0.3754
 3195TIP3    H131000   0.438   4.688   5.886  0.1876  0.0596 -0.6237
 3195TIP3    H231001   0.309   4.671   5.962  0.9571  0.8000  0.8811
 3196TIP3   OH231002   4.583   4.738  16.100 -0.4473 -0.1556  0.5475
 3196TIP3    H131003   4.645   4.795  16.147 -0.8587  1.1948 -0.4970
 3196TIP3    H231004   4.510   4.796  16.077 -1.2807 -1.3142  0.1962
 3197TIP3   OH231005   3.478   2.277  11.858 -0.1674  0.7428  0.5164
 3197TIP3    H131006   3.475   2.343  11.789  0.9610 -0.4603 -0.7369
 3197TIP3    H231007   3.487   2.193  11.812  2.6100  0.0392  2.0770
 3198TIP3   OH231008   4.531   5.498   1.707 -0.2478 -0.3202  0.0391
 3198TIP3    H131009   4.515   5.564   1.776 -1.4581 -0.2776 -0.2569
 3198TIP3    H231010   4.495   5.538   1.628  2.2803  0.1947 -0.9663
 3199TIP3   OH231011   0.674   3.651  16.680 -0.0265 -1.0012 -0.2179
 3199TIP3    H131012   0.642   3.600  16.754 -1.5434 -0.4078 -0.4222
 3199TIP3    H231013   0.753   3.605  16.651 -0.0457 -1.8783  1.0483
 3200TIP3   OH231014   3.639   6.399  16.285  0.1758 -0.5069 -0.1094
 3200TIP3    H131015   3.678   6.317  16.314  1.6072  0.4224  0.7082
 3200TIP3    H231016   3.713   6.457  16.269 -0.7879  1.5950  2.2432
 3201TIP3   OH231017   0.724   3.994  12.514 -0.0152 -0.3478  0.6485
 3201TIP3    H131018   0.799   4.036  12.473 -0.7715  1.2059  0.8158
 3201TIP3    H231019   0.757   3.908  12.540  1.1631 -0.4279 -0.9580
 3202TIP3   OH231020   1.584   6.368  11.340  0.0612  0.0854  0.1050
 3202TIP3    H131021   1.628   6.314  11.406 -0.7261 -0.1190  0.4755
 3202TIP3    H231022   1.495   6.379  11.374 -0.7929 -1.1957 -1.5702
 3203TIP3   OH231023   2.905   3.114  15.277 -0.2820  0.0952 -0.0867
 3203TIP3    H131024   2.931   3.196  15.319  0.6716  0.1014 -0.6683
 3203TIP3    H231025   2.952   3.114  15.194  1.5709 -2.0954  0.8470
 3204TIP3   OH231026   4.767   2.812  14.843 -0.2534 -0.4461 -0.7236
 3204TIP3    H131027   4.789   2.724  14.874 -0.4547 -1.2510 -2.7490
 3204TIP3    H231028   4.841   2.839  14.789 -0.0212  0.8195  0.1750
 3205TIP3   OH231029   6.497   0.634  16.534  0.2572  0.4824  0.6728
 3205TIP3    H131030   6.466   0.559  16.484  1.8244  0.8581 -0.9566
 3205TIP3    H231031   6.418   0.676  16.568 -0.6877 -1.2634  0.6942
 3206TIP3   OH231032   4.724   4.551   4.849  0.8158  0.1557 -0.0253
 3206TIP3    H131033   4.783   4.577   4.778  0.9352 -1.2132 -0.4603
 3206TIP3    H231034   4.713   4.457   4.837  0.2002  0.0419  1.3121
 3207TIP3   OH231035   1.117   6.120  12.701 -0.0362  0.1407 -0.5195
 3207TIP3    H131036   1.083   6.204  12.672 -0.6146  0.6189  1.3727
 3207TIP3    H231037   1.070   6.102  12.783 -0.6845 -2.5164 -1.3534
 3208TIP3   OH231038   2.601   5.891  10.755 -0.0086  0.2633 -0.1040
 3208TIP3    H131039   2.671   5.904  10.819  2.1142  1.1284 -2.4198
 3208TIP3    H231040   2.603   5.970  10.701 -2.3309 -0.0155 -0.7036
 3209TIP3   OH231041   0.938   0.354  15.035  1.1040  0.7583  0.3880
 3209TIP3    H131042   0.924   0.327  15.126  0.0026 -1.6879 -0.4230
 3209TIP3    H231043   0.893   0.438  15.028 -0.4305  0.0956  1.6708
 3210TIP3   OH231044   0.645   3.034   0.581  0.3638  0.0314  0.0270
 3210TIP3    H131045   0.629   2.996   0.495 -0.1389  1.0432 -0.3421
 3210TIP3    H231046   0.581   2.991   0.638 -1.1652  1.2886 -0.6712
 3211TIP3   OH231047   3.792   6.280   6.254 -0.2317 -0.1860  0.0272
 3211TIP3    H131048   3.856   6.233   6.307  1.9729  2.2454 -0.2233
 3211TIP3    H231049   3.709   6.269   6.299  0.7736 -1.6654  1.6222
 3212TIP3   OH231050   0.377   5.670   5.951 -0.0755 -0.3948 -0.1536
 3212TIP3    H131051   0.415   5.752   5.920  0.9335 -1.4857 -1.9959
 3212TIP3    H231052   0.412   5.659   6.039 -0.7699  1.4515  0.3911
 3213TIP3   OH231053   0.317   4.894  12.906  0.3681  0.6348 -0.8254
 3213TIP3    H131054   0.243   4.937  12.863 -0.1718  0.7230  0.1467
 3213TIP3    H231055   0.312   4.803  12.877  0.1786  0.7486 -1.1564
 3214TIP3   OH231056   5.739   5.156  15.030 -0.9415 -0.5686 -0.1361
 3214TIP3    H131057   5.736   5.141  15.124 -1.5671  0.1636 -0.0322
 3214TIP3    H231058   5.649   5.177  15.005 -1.0276 -1.9478 -1.1088
 3215TIP3   OH231059   5.586   6.011  14.624  0.4892  0.2732 -1.0796
 3215TIP3    H131060   5.644   6.016  14.548 -0.0781  0.0536 -1.5324
 3215TIP3    H231061   5.616   6.081  14.682 -0.4516  1.9066 -2.4819
 3216TIP3   OH231062   1.196   2.771   4.256  0.1994  0.7136 -0.5851
 3216TIP3    H131063   1.235   2.710   4.319 -1.7741 -0.7600 -0.6755
 3216TIP3    H231064   1.212   2.731   4.170 -0.7697  0.4716 -0.6725
 3217TIP3   OH231065   0.092   6.681   0.561 -0.1975 -0.1186  0.2374
 3217TIP3    H131066   0.101   6.774   0.582  1.4744 -0.0617 -0.5670
 3217TIP3    H231067   0.111   6.636   0.644 -0.1729  0.2280  0.4238
 3218TIP3   OH231068   4.637   5.963   2.286 -0.4920  0.0264 -0.6541
 3218TIP3    H131069   4.707   6.016   2.326 -1.3798 -1.1432  2.7685
 3218TIP3    H231070   4.565   6.024   2.274  0.0471  0.5637 -1.2537
 3219TIP3   OH231071   0.051   1.834   0.860  0.2917  0.1354 -0.4282
 3219TIP3    H131072   0.042   1.915   0.808 -0.3826 -0.5429 -1.4083
 3219TIP3    H231073   0.042   1.863   0.951 -0.1736  1.1402 -0.7723
 3220TIP3   OH231074   2.928   6.600   2.434  0.7255 -0.9924  0.4407
 3220TIP3    H131075   2.904   6.582   2.343  1.6022  0.3646 -0.0954
 3220TIP3    H231076   2.853   6.648   2.469  0.4444 -1.3978  0.4052
 3221TIP3   OH231077   0.840   5.185   0.482  0.0963 -0.3063 -0.1779
 3221TIP3    H131078   0.750   5.188   0.451 -0.3440 -1.8836  0.8231
 3221TIP3    H231079   0.892   5.165   0.404  0.1427  4.1490 -1.5617
 3222TIP3   OH231080   0.149   5.980   0.247  0.2030  0.3376 -0.8536
 3222TIP3    H131081   0.205   5.943   0.315  0.6342  1.8109 -0.3617
 3222TIP3    H231082   0.207   6.037   0.196 -0.6199  1.1065 -0.9654
 3223TIP3   OH231083   2.983   2.553  12.231  0.6753 -0.1258  0.6371
 3223TIP3    H131084   3.027   2.469  12.242  0.3680 -0.4368 -0.3751
 3223TIP3    H231085   3.034   2.599  12.164  2.6984  1.8444  3.3023
 3224TIP3   OH231086   4.692   2.324   4.868 -0.0243  0.5811  0.3084
 3224TIP3    H131087   4.731   2.258   4.925 -0.4035  1.0315  1.1160
 3224TIP3    H231088   4.629   2.276   4.815 -2.1632  0.6054  2.6350
 3225TIP3   OH231089   1.116   1.541  11.646 -0.0782 -0.2087  0.1246
 3225TIP3    H131090   1.109   1.457  11.691  0.0092  0.3578  1.2232
 3225TIP3    H231091   1.139   1.603  11.714 -2.0988  1.0833 -0.2996
 3226TIP3   OH231092   6.084   0.917   3.581  0.0474  0.0874  0.3313
 3226TIP3    H131093   6.042   0.883   3.660  0.3804 -0.5547  0.2282
 3226TIP3    H231094   6.070   0.850   3.515  1.5019 -0.2800  0.3693
 3227TIP3   OH231095   5.942   4.446   3.554  0.1993 -0.2541 -0.8230
 3227TIP3    H131096   5.994   4.516   3.592  1.2181 -1.3027 -0.2046
 3227TIP3    H231097   5.861   4.488   3.526  0.6480  1.0928 -0.1764
 3228TIP3   OH231098   3.513   0.383   4.102  0.0237  0.3860  0.0722
 3228TIP3    H131099   3.603   0.352   4.091  0.0126  0.5035 -0.3756
 3228TIP3    H231100   3.487   0.414   4.014 -0.8906 -0.8193 -0.1048
 3229TIP3   OH231101   5.879   2.970   3.274  0.9266  0.0282  0.3786
 3229TIP3    H131102   5.890   2.921   3.356 -0.7680  0.8079  1.1184
 3229TIP3    H231103   5.829   3.047   3.299 -0.0005  0.0744 -1.4693
 3230TIP3   OH231104   6.679   5.935  13.097  0.1198 -0.7872  0.2986
 3230TIP3    H131105   6.615   6.005  13.099  0.2078 -0.6148 -1.3081
 3230TIP3    H231106   6.632   5.860  13.061  0.4503 -1.0546  0.4166
 3231TIP3   OH231107   0.702   1.401   3.525 -0.1314 -0.4749  0.7100
 3231TIP3    H131108   0.713   1.418   3.619 -0.3450 -0.1895  0.6840
 3231TIP3    H231109   0.637   1.331   3.521 -0.9720  0.2961  0.7366
 3232TIP3   OH231110   3.080   6.137   1.316  0.3342  0.4188  0.5508
 3232TIP3    H131111   3.116   6.088   1.242  0.1055  1.7983 -0.5089
 3232TIP3    H231112   3.021   6.075   1.359 -0.3889 -0.0794 -1.0937
 3233TIP3   OH231113   0.138   3.215   3.100  0.1482 -0.2676 -0.3521
 3233TIP3    H131114   0.052   3.174   3.092  0.0762 -0.3617  0.6712
 3233TIP3    H231115   0.187   3.156   3.158  0.6964  0.0917 -0.4402
 3234TIP3   OH231116   3.872   6.671   0.000  0.0707  0.4155 -0.0596
 3234TIP3    H131117   3.942   6.646  -0.060 -0.3573 -0.2613 -0.2862
 3234TIP3    H231118   3.841   6.756  -0.032  0.8127  0.7481  0.0761
 3235TIP3   OH231119   5.842   3.922  12.025 -0.0352 -0.0236  0.0956
 3235TIP3    H131120   5.814   3.875  11.946  1.3601 -0.7595 -0.0074
 3235TIP3    H231121   5.763   3.965  12.057 -0.9096 -0.7577 -0.9856
 3236TIP3   OH231122   3.485   3.323  11.909 -0.1675 -0.4547  0.1501
 3236TIP3    H131123   3.413   3.373  11.947  1.3577  1.0479  1.2069
 3236TIP3    H231124   3.503   3.367  11.826 -0.4026 -0.8072 -0.0953
 3237TIP3   OH231125   3.958   2.956   0.288  0.2529 -0.2919  0.3114
 3237TIP3    H131126   4.006   2.968   0.206 -1.2882  3.3206 -0.2413
 3237TIP3    H231127   3.914   2.871   0.278  1.4918 -0.7538 -1.8208
 3238TIP3   OH231128   1.248   4.080  10.976  0.2656  0.4117  0.0352
 3238TIP3    H131129   1.247   4.066  11.071  0.0964  0.8989  0.1128
 3238TIP3    H231130   1.314   4.020  10.943  0.4022  0.3141  0.4773
 3239TIP3   OH231131   2.308   3.093   0.424 -0.1231 -0.4135 -0.6955
 3239TIP3    H131132   2.270   3.097   0.336 -0.6177 -2.8840 -0.6846
 3239TIP3    H231133   2.279   3.173   0.467 -1.4082 -0.0253 -2.2018
 3240TIP3   OH231134   1.107   0.290  13.447 -0.3740  0.3827 -0.1285
 3240TIP3    H131135   1.039   0.242  13.494 -1.3858 -0.4064 -2.2610
 3240TIP3    H231136   1.127   0.236  13.371  0.8618  1.7818 -0.8566
 3241TIP3   OH231137   0.344   3.596  14.879  0.4523 -0.0243 -0.0944
 3241TIP3    H131138   0.414   3.656  14.904  0.4306  0.7640 -1.7931
 3241TIP3    H231139   0.264   3.649  14.881  0.2534 -0.3045 -0.4731
 3242TIP3   OH231140   6.596   4.083   2.030  0.0471 -0.1459  0.0680
 3242TIP3    H131141   6.623   3.995   2.004  1.2353  0.3508 -0.4727
 3242TIP3    H231142   6.588   4.130   1.947 -1.7455 -0.0393  0.2728
 3243TIP3   OH231143   5.992   2.799   2.396  0.0170  0.5156  0.7157
 3243TIP3    H131144   6.054   2.727   2.412  0.9578  1.3382  0.9125
 3243TIP3    H231145   6.024   2.839   2.315  0.7074  1.9016  1.6313
 3244TIP3   OH231146   3.573   4.402   5.375  0.3357  0.8638 -0.0832
 3244TIP3    H131147   3.582   4.384   5.282  0.9872 -2.1244  0.4546
 3244TIP3    H231148   3.487   4.444   5.384 -0.0811  0.4780 -1.9446
 3245TIP3   OH231149   5.709   0.954   3.373 -0.0304 -0.3166 -0.4709
 3245TIP3    H131150   5.672   0.937   3.286 -0.4557 -0.9321 -0.1758
 3245TIP3    H231151   5.756   1.037   3.363 -0.5328 -0.1022 -1.1476
 3246TIP3   OH231152   0.651   4.003   2.208 -0.2495 -0.4746  0.4245
 3246TIP3    H131153   0.587   4.010   2.137  1.0120 -0.3543 -0.7501
 3246TIP3    H231154   0.718   4.067   2.186 -0.0447 -0.1113  1.9894
 3247TIP3   OH231155   3.792   3.187   3.611  0.3620 -0.9857 -0.3074
 3247TIP3    H131156   3.827   3.119   3.553 -0.3576 -0.8565 -0.9088
 3247TIP3    H231157   3.722   3.228   3.561 -0.2718 -0.8595  0.6490
 3248TIP3   OH231158   4.872   4.415  14.087  0.0419 -0.4916 -0.8185
 3248TIP3    H131159   4.868   4.354  14.160  2.0129  0.6814  0.3419
 3248TIP3    H231160   4.815   4.376  14.020  1.6408 -3.8931 -0.4039
 3249TIP3   OH231161   5.903   6.719  11.395  0.3598  0.5290 -0.0006
 3249TIP3    H131162   5.836   6.679  11.451  0.7813 -0.8634 -0.4487
 3249TIP3    H231163   5.936   6.793  11.446 -0.7213  0.5606  0.6923
 3250TIP3   OH231164   0.534   3.019  12.848 -0.0195  0.2991 -0.2027
 3250TIP3    H131165   0.490   3.100  12.876 -0.6955 -0.1748  0.1419
 3250TIP3    H231166   0.599   3.048  12.784  0.6497  1.2643  0.8807
 3251TIP3   OH231167   1.923   6.075   0.297  0.3436  0.3994  0.4825
 3251TIP3    H131168   1.836   6.064   0.336  0.8463  0.3868  1.6495
 3251TIP3    H231169   1.960   6.151   0.342  0.2747  1.5083 -1.2665
 3252TIP3   OH231170   1.384   1.766  12.847  0.2635 -0.0766 -0.2563
 3252TIP3    H131171   1.353   1.847  12.888  0.2899 -0.7263  1.1289
 3252TIP3    H231172   1.342   1.696  12.898  2.3014 -0.9623  0.3063
 3253TIP3   OH231173   3.813   0.771   6.049 -0.1295 -0.2649  0.5411
 3253TIP3    H131174   3.862   0.714   5.990 -0.7752  0.2174 -0.4952
 3253TIP3    H231175   3.853   0.758   6.135  0.5985 -1.2548  0.0660
 3254TIP3   OH231176   2.095   2.403  15.193  0.2774 -0.5828 -0.1131
 3254TIP3    H131177   2.172   2.458  15.179 -1.9622  2.5819 -1.3493
 3254TIP3    H231178   2.069   2.420  15.284  0.4135 -0.7729 -0.0389
 3255TIP3   OH231179   0.308   6.012  16.994 -0.0721 -0.4374  0.1129
 3255TIP3    H131180   0.277   6.101  17.010 -1.1409 -0.2427 -2.6051
 3255TIP3    H231181   0.239   5.956  17.030  0.0221 -0.1590  0.7395
 3256TIP3   OH231182   5.247   4.050  14.048  0.6208 -0.2386  0.5196
 3256TIP3    H131183   5.315   4.027  14.111  0.9550 -1.6649 -0.3063
 3256TIP3    H231184   5.294   4.072  13.968  0.1380 -0.8845  0.0459
 3257TIP3   OH231185   1.917   3.355   5.762  0.6922  0.5858  0.6680
 3257TIP3    H131186   1.975   3.326   5.833  0.4033 -0.4101  0.5198
 3257TIP3    H231187   1.932   3.449   5.755  2.0835  0.4026  0.8309
 3258TIP3   OH231188   6.153   3.971  15.322  0.0957 -0.1524 -0.2692
 3258TIP3    H131189   6.209   3.896  15.343 -0.0850 -0.4494 -0.8307
 3258TIP3    H231190   6.203   4.047  15.352  0.0256 -0.5299  0.8334
 3259TIP3   OH231191   3.184   6.573   2.535  0.1394 -0.3860  0.4317
 3259TIP3    H131192   3.094   6.589   2.507 -0.3926  0.0098  2.2365
 3259TIP3    H231193   3.236   6.636   2.485 -0.4658 -1.1194 -1.1705
 3260TIP3   OH231194   2.679   1.565   5.979  0.0110 -0.4932 -0.3190
 3260TIP3    H131195   2.721   1.558   6.064  0.9919  0.1711 -0.7287
 3260TIP3    H231196   2.604   1.504   5.983 -0.5417  0.2612  1.3381
 3261TIP3   OH231197   3.095   5.703  17.119  0.6866  0.1118 -0.3383
 3261TIP3    H131198   3.036   5.778  17.124 -1.1381 -1.1577 -1.4387
 3261TIP3    H231199   3.074   5.662  17.035  2.9416 -0.5931 -0.6183
 3262TIP3   OH231200   4.099   3.268  11.284 -0.1610 -0.2217  0.4516
 3262TIP3    H131201   4.067   3.201  11.344 -0.0031 -1.2460 -0.5651
 3262TIP3    H231202   4.077   3.234  11.197 -0.0222  1.0248 -0.0912
 3263TIP3   OH231203   3.844   5.187  15.521 -0.6806 -0.5932 -0.8143
 3263TIP3    H131204   3.794   5.153  15.595  1.0060  0.3106  0.8318
 3263TIP3    H231205   3.864   5.110  15.468 -2.0456 -1.2404 -0.4361
 3264TIP3   OH231206   1.076   5.797  11.878  0.0388  0.3291 -0.4259
 3264TIP3    H131207   1.074   5.892  11.866  0.3832  0.4178  0.1585
 3264TIP3    H231208   1.057   5.761  11.791 -2.1831  0.9210 -0.2552
 3265TIP3   OH231209   5.843   2.886  12.073  0.0757  0.4588  0.0030
 3265TIP3    H131210   5.896   2.830  12.130  0.1149  0.0118 -0.4673
 3265TIP3    H231211   5.758   2.842  12.069 -0.1213  0.8164  0.2114
 3266TIP3   OH231212   1.424   6.003  15.535 -0.3121 -0.7392  0.0856
 3266TIP3    H131213   1.415   5.994  15.630  1.2250 -1.1287  0.2194
 3266TIP3    H231214   1.453   5.917  15.505 -0.7179 -0.6001 -0.7299
 3267TIP3   OH231215   5.701   5.439  12.849  0.1927  0.2499  0.0131
 3267TIP3    H131216   5.675   5.434  12.942 -1.4715 -1.0900 -0.4522
 3267TIP3    H231217   5.618   5.449  12.802  1.0276  1.0833 -1.3457
 3268TIP3   OH231218   0.357   4.052   1.366  0.1782  0.5227 -0.2336
 3268TIP3    H131219   0.451   4.039   1.352 -0.0752 -0.2106 -1.3858
 3268TIP3    H231220   0.338   4.133   1.319  0.0674  0.1559 -0.8364
 3269TIP3   OH231221   5.287   6.510   1.323 -0.3117  0.4960  0.4596
 3269TIP3    H131222   5.192   6.501   1.312 -0.1787  0.2646 -0.6770
 3269TIP3    H231223   5.324   6.455   1.253  0.6620  0.4598  0.9864
 3270TIP3   OH231224   5.576   0.067   5.771  0.3558 -0.6491  0.2474
 3270TIP3    H131225   5.641   0.013   5.816  2.0227  1.8523  1.0492
 3270TIP3    H231226   5.502   0.070   5.831  0.3342 -1.7823  0.3061
 3271TIP3   OH231227   2.181   3.579   1.996 -0.0199  0.4450  0.8061
 3271TIP3    H131228   2.237   3.583   2.074 -2.3376  3.0368  2.5126
 3271TIP3    H231229   2.116   3.512   2.017 -0.6335  1.1304  1.1463
 3272TIP3   OH231230   3.304   4.187   5.447 -0.1396  0.2369  0.3309
 3272TIP3    H131231   3.383   4.193   5.501  0.9712 -0.7650 -1.1055
 3272TIP3    H231232   3.335   4.162   5.360 -1.9298  1.1446 -0.6396
 3273TIP3   OH231233   5.811   6.445   6.231  0.0910 -0.4144  0.1678
 3273TIP3    H131234   5.860   6.470   6.152 -0.3942 -1.8496 -0.6375
 3273TIP3    H231235   5.876   6.401   6.286 -0.0566 -1.5624 -0.5296
 3274TIP3   OH231236   1.593   6.011   5.390 -0.1113 -0.2492  0.3236
 3274TIP3    H131237   1.516   6.064   5.370 -0.4919 -0.7901  0.3359
 3274TIP3    H231238   1.607   6.023   5.484 -0.5874 -0.6753  0.4533
 3275TIP3   OH231239   3.196   6.304  16.641  0.1367  0.4049  0.2713
 3275TIP3    H131240   3.187   6.325  16.734 -1.2820 -1.1221  0.5354
 3275TIP3    H231241   3.256   6.230  16.639 -0.7163 -0.3084  0.1178
 3276TIP3   OH231242   2.503   1.320  12.826  0.1009  0.2780  0.7353
 3276TIP3    H131243   2.554   1.253  12.872  1.7305  1.9710  1.4641
 3276TIP3    H231244   2.564   1.360  12.765 -1.5062 -0.5271 -1.5565
 3277TIP3   OH231245   6.138   6.169   4.106  0.3570  0.4486  0.6891
 3277TIP3    H131246   6.208   6.228   4.078  0.3634  0.7099  1.2371
 3277TIP3    H231247   6.183   6.100   4.154  0.3084  0.2196  0.4068
 3278TIP3   OH231248   6.302   1.050   0.473 -0.2187 -0.8045  0.0486
 3278TIP3    H131249   6.206   1.048   0.475 -0.2129 -0.7052  1.0926
 3278TIP3    H231250   6.323   1.105   0.398 -1.0243  0.4287  0.6818
 3279TIP3   OH231251   5.699   3.728  15.664  0.1917 -0.2341  0.2703
 3279TIP3    H131252   5.666   3.741  15.753  1.5947 -0.6143  0.8730
 3279TIP3    H231253   5.704   3.633  15.654 -1.7101 -0.2632 -0.9230
 3280TIP3   OH231254   3.582   4.465   5.123 -0.2271 -0.0876  0.2160
 3280TIP3    H131255   3.650   4.533   5.125 -0.4955  0.1854  1.3885
 3280TIP3    H231256   3.620   4.393   5.073  0.3601  0.6326 -0.3915
 3281TIP3   OH231257   0.818   5.369  10.792  0.0670  0.0633 -0.0421
 3281TIP3    H131258   0.749   5.329  10.740 -0.3391 -1.0268  1.2709
 3281TIP3    H231259   0.795   5.462  10.796  0.1503  0.1899 -1.8070
 3282TIP3   OH231260   1.307   2.326  15.351 -0.7088  0.7108 -0.4715
 3282TIP3    H131261   1.344   2.390  15.412  0.1180  0.9084 -1.1669
 3282TIP3    H231262   1.289   2.249  15.406  1.5411  0.2877 -0.2176
 3283TIP3   OH231263   1.580   6.278   2.622  0.1477 -0.0106 -0.1793
 3283TIP3    H131264   1.620   6.242   2.542  1.0516  0.0226  0.2450
 3283TIP3    H231265   1.576   6.204   2.682  1.6860  0.4609  0.5716
 3284TIP3   OH231266   3.269   5.001  12.227  0.2922  0.1516 -0.1429
 3284TIP3    H131267   3.178   5.027  12.246 -0.6123 -2.6404 -0.2921
 3284TIP3    H231268   3.304   4.973  12.311  0.4097 -0.4919 -0.4041
 3285TIP3   OH231269   3.044   0.627  16.960 -0.0177  0.2621 -0.0351
 3285TIP3    H131270   3.099   0.704  16.953  0.8596 -0.4503 -1.5948
 3285TIP3    H231271   3.096   0.556  16.921 -1.0685 -0.9672  0.6913
 3286TIP3   OH231272   3.543   4.663  10.503  0.0125  0.4455  0.4806
 3286TIP3    H131273   3.588   4.579  10.517 -1.4499 -0.0617  2.6890
 3286TIP3    H231274   3.465   4.657  10.557  0.7611  3.9711  2.2621
 3287TIP3   OH231275   4.507   5.939  14.685 -0.0086  0.2348  0.7866
 3287TIP3    H131276   4.473   6.027  14.674  0.0978  0.0685 -1.4055
 3287TIP3    H231277   4.586   5.937  14.631 -0.5144 -1.4261  0.0321
 3288TIP3   OH231278   0.917   0.529   0.994  0.2618  0.0277 -0.1736
 3288TIP3    H131279   0.889   0.601   1.051  1.6761  0.9038 -0.5398
 3288TIP3    H231280   0.842   0.469   0.994 -1.0573  1.5930 -0.0343
 3289TIP3   OH231281   6.414   1.776   6.595  0.5120  0.5600 -0.4634
 3289TIP3    H131282   6.498   1.739   6.623 -0.0385 -0.4151 -0.0734
 3289TIP3    H231283   6.352   1.705   6.605 -0.0193  0.6444 -2.6403
 3290TIP3   OH231284   4.189   4.016   4.598  0.7284  0.3398  0.2403
 3290TIP3    H131285   4.184   4.006   4.503  0.6750 -2.4243  0.4357
 3290TIP3    H231286   4.113   3.968   4.631  0.7677  1.2283  1.6960
 3291TIP3   OH231287   6.356   2.487   3.448  0.6403  0.4915  0.4396
 3291TIP3    H131288   6.345   2.440   3.532  0.5784  1.1705  0.8152
 3291TIP3    H231289   6.391   2.420   3.389 -0.4641 -0.3250  0.6711
 3292TIP3   OH231290   5.755   0.687   4.027 -0.0163 -0.4101  0.0289
 3292TIP3    H131291   5.668   0.648   4.020 -0.0441 -0.1653 -1.2609
 3292TIP3    H231292   5.740   0.774   4.065 -0.6844  0.6379 -2.4285
 3293TIP3   OH231293   4.104   0.147   2.212  0.3610  0.0892  0.0214
 3293TIP3    H131294   4.183   0.200   2.199  1.4204 -1.5340 -0.5372
 3293TIP3    H231295   4.120   0.068   2.160 -0.9244 -0.9904  1.2019
 3294TIP3   OH231296   3.150   6.148  13.687 -0.2926 -0.2575 -0.1415
 3294TIP3    H131297   3.188   6.130  13.601  0.2352 -0.0272  0.0379
 3294TIP3    H231298   3.139   6.061  13.727 -0.4994 -0.3616 -0.4217
 3295TIP3   OH231299   6.360   0.355  13.278  0.5063  0.1698 -0.5221
 3295TIP3    H131300   6.301   0.303  13.224  0.6401 -2.1446  1.3865
 3295TIP3    H231301   6.318   0.357  13.364  1.4424  1.6845 -0.0577
 3296TIP3   OH231302   3.268   5.180   1.911 -0.7171 -0.2073 -0.3080
 3296TIP3    H131303   3.250   5.274   1.920  0.2079 -0.2103  2.7494
 3296TIP3    H231304   3.364   5.175   1.905 -0.5939 -1.0005  1.6647
 3297TIP3   OH231305   2.570   5.056   3.850  0.2523  0.4430 -0.1682
 3297TIP3    H131306   2.571   5.015   3.764  0.6163  0.9980 -0.4305
 3297TIP3    H231307   2.630   5.003   3.902 -1.9873 -1.5700  0.5583
 3298TIP3   OH231308   1.335   3.913  10.766 -0.1639  0.1009  0.1188
 3298TIP3    H131309   1.345   3.826  10.727  1.4271  0.6061 -0.7134
 3298TIP3    H231310   1.293   3.966  10.698 -0.7059  0.0996  0.4504
 3299TIP3   OH231311   2.342   0.754  16.057  0.5879  0.1933  0.7599
 3299TIP3    H131312   2.255   0.739  16.020  0.0472  0.1448  1.9749
 3299TIP3    H231313   2.377   0.829  16.009 -0.9532  1.4794  1.5567
 3300TIP3   OH231314   4.287   3.672  11.970 -0.2826 -0.3479 -0.4472
 3300TIP3    H131315   4.361   3.629  11.927  0.5677  2.1583 -1.6681
 3300TIP3    H231316   4.222   3.681  11.901 -0.9585 -0.7670  0.1228
 3301TIP3   OH231317   2.126   4.186  15.234  0.1046  0.6510 -0.0699
 3301TIP3    H131318   2.076   4.227  15.164  0.0637  1.9700  0.6799
 3301TIP3    H231319   2.217   4.190  15.205  0.0556  0.9046 -0.1868
 3302TIP3   OH231320   2.032   0.284   1.459  0.3794 -0.7019  0.2321
 3302TIP3    H131321   2.078   0.302   1.541  1.6961 -0.5025 -0.5142
 3302TIP3    H231322   2.061   0.195   1.435  2.6339  0.3937 -1.6036
 3303TIP3   OH231323   3.140   1.834   3.534  0.2033  0.2742 -0.4093
 3303TIP3    H131324   3.055   1.878   3.541 -0.3816 -0.9392  0.4955
 3303TIP3    H231325   3.147   1.809   3.442 -0.1818  0.8393 -0.5939
 3304TIP3   OH231326   0.879   0.560   1.800  0.3685 -0.2233 -0.6790
 3304TIP3    H131327   0.938   0.632   1.778 -0.6728  1.3209  1.2250
 3304TIP3    H231328   0.908   0.487   1.745  3.7997  0.5249 -0.0772
 3305TIP3   OH231329   0.531   1.632  17.043  0.2212  0.2608 -0.1154
 3305TIP3    H131330   0.541   1.720  17.077  0.0642  0.5952 -0.9144
 3305TIP3    H231331   0.486   1.584  17.113  1.3555  0.4904  0.7935
 3306TIP3   OH231332   3.212   6.378  15.780  0.0436 -0.2567  0.3563
 3306TIP3    H131333   3.210   6.306  15.844 -0.3080  1.7018  2.6676
 3306TIP3    H231334   3.124   6.380  15.743 -0.4895  0.0874  1.6034
 3307TIP3   OH231335   4.595   5.814   3.669  0.4956 -0.4917  0.5151
 3307TIP3    H131336   4.674   5.851   3.710  1.3917 -1.4414 -0.3155
 3307TIP3    H231337   4.602   5.839   3.577  0.9233 -2.3582  0.0120
 3308TIP3   OH231338   0.113   2.556   2.730 -0.1422 -0.0836 -0.0987
 3308TIP3    H131339   0.107   2.576   2.824 -0.5733 -0.8222  0.0383
 3308TIP3    H231340   0.164   2.629   2.693  0.2703  0.0730  0.7517
 3309TIP3   OH231341   6.053   2.443  14.083  0.2936 -0.2988  0.1425
 3309TIP3    H131342   6.035   2.394  14.003  0.8926  0.4278 -0.4524
 3309TIP3    H231343   5.983   2.417  14.143 -0.3290 -0.6392 -0.7058
 3310TIP3   OH231344   0.075   5.409  12.289 -0.3674 -0.1084 -0.1841
 3310TIP3    H131345   0.109   5.484  12.241 -2.3258  2.7992  2.5469
 3310TIP3    H231346   0.115   5.416  12.376  0.3509 -3.0803 -0.1542
 3311TIP3   OH231347   5.065   5.705   0.493 -0.1344  0.8429 -0.0102
 3311TIP3    H131348   5.129   5.666   0.433  1.3144  0.7997  1.4885
 3311TIP3    H231349   4.991   5.645   0.491  0.6133 -0.0989 -0.4339
 3312TIP3   OH231350   1.127   5.615   4.536  0.0850 -0.1687 -0.4823
 3312TIP3    H131351   1.090   5.527   4.540 -0.2546 -0.1133 -1.7529
 3312TIP3    H231352   1.066   5.669   4.586  0.2759 -0.6507  0.2719
 3313TIP3   OH231353   0.288   2.965  15.472 -0.7583  0.4140  0.1086
 3313TIP3    H131354   0.259   3.015  15.548 -2.6085 -2.5226  1.5481
 3313TIP3    H231355   0.235   2.997  15.400 -2.5338  0.0284  1.1811
 3314TIP3   OH231356   3.156   3.184  13.840 -0.8546 -0.2776  0.2011
 3314TIP3    H131357   3.231   3.148  13.791  0.1286 -0.8412  2.0376
 3314TIP3    H231358   3.196   3.242  13.905 -2.1024  0.1780  0.5845
 3315TIP3   OH231359   6.258   1.938   3.151 -0.2041  0.4894 -0.0988
 3315TIP3    H131360   6.310   2.014   3.178  0.0691  1.1156 -2.1779
 3315TIP3    H231361   6.259   1.942   3.055 -1.1362 -1.5151 -0.2336
 3316TIP3   OH231362   2.282   5.732  13.329  0.0792  0.0402  0.5046
 3316TIP3    H131363   2.307   5.817  13.295 -0.0298  0.1806  0.7758
 3316TIP3    H231364   2.198   5.712  13.287  0.7954 -0.5933 -0.6865
 3317TIP3   OH231365   4.421   6.411  15.389  0.0866  0.5692  0.4736
 3317TIP3    H131366   4.464   6.326  15.382  0.9897  1.1046 -0.7946
 3317TIP3    H231367   4.328   6.392  15.378  0.4140 -0.0907 -1.4379
 3318TIP3   OH231368   2.515   1.091   4.176 -0.4208  0.2249 -0.3521
 3318TIP3    H131369   2.603   1.125   4.160 -0.3025  0.3928  0.5902
 3318TIP3    H231370   2.482   1.069   4.089  0.7070 -0.2387 -0.6849
 3319TIP3   OH231371   6.780   5.954  14.778 -0.2859  1.0458 -0.0893
 3319TIP3    H131372   6.808   5.921  14.863 -0.2491 -0.1265 -0.5447
 3319TIP3    H231373   6.725   6.030  14.799 -0.2575  0.7860  0.9769
 3320TIP3   OH231374   0.007   3.140   4.623  0.1622 -0.1630 -0.2467
 3320TIP3    H131375   0.066   3.169   4.693  1.5929 -0.3330 -1.3220
 3320TIP3    H231376   0.050   3.063   4.586 -1.0075 -0.5946 -0.7434
 3321TIP3   OH231377   2.097   0.896   1.880 -0.0213 -0.8600  0.8947
 3321TIP3    H131378   2.005   0.920   1.878 -0.0889 -1.1219  0.7892
 3321TIP3    H231379   2.122   0.902   1.972 -0.4257 -1.8354  1.0763
 3322TIP3   OH231380   3.470   4.540   4.853 -0.1191 -0.3109 -0.1785
 3322TIP3    H131381   3.539   4.478   4.876  0.5652  0.4487 -0.1820
 3322TIP3    H231382   3.467   4.536   4.757  0.5710  0.3495 -0.2337
 3323TIP3   OH231383   3.295   1.772  11.112 -0.3845  0.3900 -0.2521
 3323TIP3    H131384   3.257   1.857  11.090 -0.4210  0.3040 -0.5232
 3323TIP3    H231385   3.257   1.711  11.048 -0.2102  0.2060 -0.1817
 3324TIP3   OH231386   1.231   4.085  12.246  0.4782 -0.2640 -0.0608
 3324TIP3    H131387   1.225   4.180  12.237  0.5887 -0.3633 -1.3386
 3324TIP3    H231388   1.246   4.071  12.339 -0.0943  0.9404  0.2403
 3325TIP3   OH231389   3.161   3.016  12.106 -0.2061 -0.0326 -0.4051
 3325TIP3    H131390   3.095   3.056  12.049 -2.3171 -1.0152  1.2258
 3325TIP3    H231391   3.244   3.039  12.065 -1.4933  1.8929 -2.1561
 3326TIP3   OH231392   3.721   5.253  11.778  0.2315 -0.2950  0.4196
 3326TIP3    H131393   3.781   5.182  11.801 -0.2988 -0.7829  0.3354
 3326TIP3    H231394   3.655   5.250  11.848  0.7009  0.7207  0.9276
 3327TIP3   OH231395   5.725   2.192  15.552 -0.1169  0.3229  0.0724
 3327TIP3    H131396   5.645   2.141  15.566  0.7416 -1.7759 -1.9016
 3327TIP3    H231397   5.699   2.263  15.494 -0.7559  0.2987  0.3254
 3328TIP3   OH231398   1.539   1.728   2.048 -0.6214  0.6322  0.5992
 3328TIP3    H131399   1.603   1.721   1.977 -1.2720 -1.5880  0.1343
 3328TIP3    H231400   1.532   1.821   2.065  1.1031  1.0877 -0.8332
 3329TIP3   OH231401   2.493   1.918  12.750  0.9448 -0.7364  0.0386
 3329TIP3    H131402   2.445   1.837  12.736 -0.9869  0.3112  0.3015
 3329TIP3    H231403   2.509   1.921  12.844  0.9647 -0.7816  0.0365
 3330TIP3   OH231404   3.192   1.663  16.298  0.1453  0.1785  0.6587
 3330TIP3    H131405   3.210   1.634  16.208 -2.6204  1.8521 -0.5302
 3330TIP3    H231406   3.192   1.582  16.349  1.3464 -0.8659 -0.8855
 3331TIP3   OH231407   3.880   4.919   0.378  0.8926  0.4714  0.1145
 3331TIP3    H131408   3.852   5.010   0.385  0.2455  0.2324  0.6918
 3331TIP3    H231409   3.806   4.868   0.411  1.1733 -0.2764 -0.3768
 3332TIP3   OH231410   4.798   5.779   2.432  0.0716  0.1549 -0.0990
 3332TIP3    H131411   4.804   5.696   2.385  0.3475 -0.7467  1.4510
 3332TIP3    H231412   4.718   5.820   2.398  1.0583  0.3060 -2.4351
 3333TIP3   OH231413   1.039   4.657   1.204  0.3219  0.0615  0.4489
 3333TIP3    H131414   0.999   4.740   1.175 -1.2271 -0.5062  0.8485
 3333TIP3    H231415   1.000   4.591   1.147  0.9534 -0.4961  0.6472
 3334TIP3   OH231416   6.424   6.240  11.279 -0.6865  0.1594 -0.4189
 3334TIP3    H131417   6.453   6.273  11.364 -0.5460  3.7402 -1.6835
 3334TIP3    H231418   6.328   6.236  11.287 -0.7031  0.8217 -0.1654
 3335TIP3   OH231419   4.475   6.365   1.616  0.2067 -0.5413 -0.5137
 3335TIP3    H131420   4.397   6.344   1.666  0.6390 -0.2600  0.3015
 3335TIP3    H231421   4.487   6.459   1.628  1.8626 -0.9057  1.1771
 3336TIP3   OH231422   2.252   6.273  15.292  0.7585  0.0152 -0.0402
 3336TIP3    H131423   2.219   6.340  15.352  1.0056 -0.3277  0.4871
 3336TIP3    H231424   2.177   6.216  15.276  0.4988  0.5067 -0.6308
 3337TIP3   OH231425   0.315   2.242  12.981  0.2472  0.0751 -0.1587
 3337TIP3    H131426   0.380   2.199  12.926 -0.3107 -0.6081 -0.3074
 3337TIP3    H231427   0.238   2.251  12.924 -0.2624 -0.4323  0.4409
 3338TIP3   OH231428   0.477   5.387   5.097  0.5143 -1.3303  0.2011
 3338TIP3    H131429   0.414   5.348   5.036  0.0404 -1.6809  0.9050
 3338TIP3    H231430   0.460   5.481   5.093 -1.1569 -1.5252  1.5469
 3339TIP3   OH231431   3.903   1.397  11.342  0.3441 -0.0153 -0.3633
 3339TIP3    H131432   3.931   1.305  11.338 -2.9014 -1.1841  0.3330
 3339TIP3    H231433   3.897   1.424  11.251 -0.4575 -1.1751 -0.6815
 3340TIP3   OH231434   4.951   1.997  11.452  0.6994  0.5134 -0.1683
 3340TIP3    H131435   4.917   1.985  11.363 -1.6569  2.3807  0.3972
 3340TIP3    H231436   5.041   2.026  11.438  0.3170  0.9718 -1.9645
 3341TIP3   OH231437   3.323   1.214  11.994 -0.4446 -0.5506 -0.2897
 3341TIP3    H131438   3.351   1.123  11.993  1.3805 -0.0486  0.4598
 3341TIP3    H231439   3.396   1.262  11.955 -1.5827  0.5640 -1.1440
 3342TIP3   OH231440   0.833   5.454  13.205  0.0784 -0.4179  0.5672
 3342TIP3    H131441   0.769   5.427  13.271 -0.6466  1.3067  0.6076
 3342TIP3    H231442   0.882   5.525  13.246 -0.2870  0.5858 -0.6723
 3343TIP3   OH231443   1.664   6.601  13.165 -0.3979 -0.9512  0.5392
 3343TIP3    H131444   1.658   6.563  13.077  0.3641  0.7277 -0.2698
 3343TIP3    H231445   1.606   6.677  13.162  0.0076 -0.6064  1.3336
 3344TIP3   OH231446   0.069   3.579  15.614 -0.1945 -0.0926 -0.2566
 3344TIP3    H131447   0.131   3.510  15.588  0.0985 -0.3417  1.0531
 3344TIP3    H231448   0.002   3.533  15.664 -0.1415  0.5348  0.4022
 3345TIP3   OH231449   5.919   5.323  12.567  0.3973  0.4134  0.2159
 3345TIP3    H131450   5.833   5.307  12.528  1.0779 -1.0728 -0.8025
 3345TIP3    H231451   5.924   5.418  12.577 -1.0375  0.5900 -0.4893
 3346TIP3   OH231452   3.450   0.129  16.942 -0.4708  0.2624  0.0180
 3346TIP3    H131453   3.399   0.052  16.966  0.9720 -0.5603  0.5650
 3346TIP3    H231454   3.385   0.196  16.921 -1.7638 -1.3354 -1.2853
 3347TIP3   OH231455   4.750   3.338   3.582 -0.2561 -0.2254  0.3293
 3347TIP3    H131456   4.745   3.433   3.593  1.6572  0.0306 -0.7650
 3347TIP3    H231457   4.757   3.304   3.671  1.3833  0.8454  0.6418
 3348TIP3   OH231458   6.695   1.528   2.630 -0.3705  0.2978 -0.5019
 3348TIP3    H131459   6.777   1.523   2.678 -0.1958 -1.7107 -0.8846
 3348TIP3    H231460   6.681   1.621   2.613  0.7985  0.8454  1.2730
 3349TIP3   OH231461   3.704   2.488   1.962  0.1630 -0.1208  0.6068
 3349TIP3    H131462   3.789   2.526   1.941 -0.2134 -0.3893 -1.5986
 3349TIP3    H231463   3.718   2.393   1.955  0.0365 -0.2354  1.7465
 3350TIP3   OH231464   5.282   2.431  11.193 -0.0339 -0.4711  0.4231
 3350TIP3    H131465   5.323   2.401  11.112  0.7906  1.0422  0.2548
 3350TIP3    H231466   5.277   2.526  11.185  1.3072 -0.1293  2.6784
 3351TIP3   OH231467   3.775   3.192  12.905  0.1064  0.1446 -0.3006
 3351TIP3    H131468   3.864   3.213  12.876  0.0691  1.1023  0.2377
 3351TIP3    H231469   3.767   3.098  12.891  2.0996 -0.4397  1.9589
 3352TIP3   OH231470   6.350   0.256  10.159  0.5560  0.0717 -0.1795
 3352TIP3    H131471   6.348   0.160  10.154 -0.7650  0.1084 -0.5847
 3352TIP3    H231472   6.442   0.277  10.176  1.1263 -1.1973 -1.5012
 3353TIP3   OH231473   1.568   1.279  17.270  0.6120  0.3213  0.2346
 3353TIP3    H131474   1.593   1.344  17.203  1.8227 -1.1583 -0.8097
 3353TIP3    H231475   1.624   1.300  17.345  1.2609  0.2809 -0.2246
 3354TIP3   OH231476   2.402   5.304  13.463  0.1331  0.2096  0.5323
 3354TIP3    H131477   2.367   5.264  13.384  0.2123  0.7204  0.2364
 3354TIP3    H231478   2.446   5.232  13.509 -0.1188 -0.1383  0.2337
 3355TIP3   OH231479   1.781   0.599   0.438 -0.3692  0.4568  0.0093
 3355TIP3    H131480   1.770   0.692   0.417 -1.1788  0.2703 -0.4682
 3355TIP3    H231481   1.692   0.564   0.434  0.0783 -0.5963 -1.0707
 3356TIP3   OH231482   5.579   1.260   4.759 -0.2594 -0.0222 -0.2946
 3356TIP3    H131483   5.591   1.317   4.834  1.5702 -0.9285  0.1661
 3356TIP3    H231484   5.665   1.256   4.717 -0.8037 -0.9437 -1.4005
 3357TIP3   OH231485   2.738   1.136   2.655  0.0544 -0.1422  0.1717
 3357TIP3    H131486   2.784   1.068   2.705  1.8437  0.4820 -0.5630
 3357TIP3    H231487   2.774   1.130   2.567 -1.0673  0.5938 -0.3623
 3358TIP3   OH231488   6.569   2.602  10.882  0.2286  0.0549 -0.5299
 3358TIP3    H131489   6.569   2.601  10.786  0.5400  0.5103 -0.5334
 3358TIP3    H231490   6.482   2.570  10.905 -1.2307  3.2778 -0.9931
 3359TIP3   OH231491   1.459   3.182  16.257  0.3889  0.4487  0.0342
 3359TIP3    H131492   1.371   3.153  16.281  0.5482  0.9604  1.3460
 3359TIP3    H231493   1.481   3.130  16.180 -0.2060 -1.2728  0.9630
 3360TIP3   OH231494   0.907   2.281  16.203  0.3762 -0.0183  0.0792
 3360TIP3    H131495   0.924   2.316  16.116 -0.0321 -0.2557 -0.1016
 3360TIP3    H231496   0.918   2.186  16.192  2.6249  0.0987  0.8210
 3361TIP3   OH231497   4.976   6.271  12.825  0.0733 -0.5003 -0.2000
 3361TIP3    H131498   4.969   6.176  12.816  0.8905 -0.7956  1.8851
 3361TIP3    H231499   5.050   6.295  12.769  2.0672 -1.6078  1.8176
 3362TIP3   OH231500   1.594   2.502   2.735 -0.2914  0.1144 -0.7563
 3362TIP3    H131501   1.630   2.588   2.719 -1.3559  0.2108 -3.0244
 3362TIP3    H231502   1.667   2.442   2.723  0.4870  0.6699  0.9767
 3363TIP3   OH231503   5.137   1.931   1.929 -0.2179 -0.1519 -0.3260
 3363TIP3    H131504   5.227   1.939   1.897 -0.1314 -2.9818 -1.0619
 3363TIP3    H231505   5.132   1.992   2.002  1.5808  1.7394 -1.6757
 3364TIP3   OH231506   0.276   3.545   2.825 -0.1076  0.1315  0.0737
 3364TIP3    H131507   0.237   3.458   2.812  0.7844 -0.1431 -0.9315
 3364TIP3    H231508   0.235   3.578   2.905 -0.1018 -1.4168  0.7522
 3365TIP3   OH231509   4.831   4.882   0.915 -0.4946  0.1593 -0.2331
 3365TIP3    H131510   4.873   4.877   1.001 -0.9598  1.5440  0.1049
 3365TIP3    H231511   4.860   4.965   0.879 -2.0878  0.6763 -0.4222
 3366TIP3   OH231512   2.248   6.488  12.096 -0.0714 -0.1873 -0.0628
 3366TIP3    H131513   2.290   6.407  12.125 -0.6483 -0.2285  0.6895
 3366TIP3    H231514   2.255   6.547  12.171 -3.5256 -1.0265  1.1328
 3367TIP3   OH231515   4.528   0.276   5.978  0.1736 -0.7874  0.2257
 3367TIP3    H131516   4.536   0.181   5.984  1.3493 -0.7218 -0.0668
 3367TIP3    H231517   4.616   0.309   5.998 -0.0779  0.2077 -0.2466
 3368TIP3   OH231518   6.745   3.838  16.645 -0.4329  0.1779  0.3920
 3368TIP3    H131519   6.765   3.887  16.725 -0.5988  0.6233  0.1655
 3368TIP3    H231520   6.676   3.889  16.603  2.0032  1.9123 -1.8107
 3369TIP3   OH231521   5.310   1.675  13.503 -0.2742  0.5881  1.2158
 3369TIP3    H131522   5.249   1.736  13.463  1.6026  1.5111 -0.4144
 3369TIP3    H231523   5.263   1.592  13.505 -0.8982  0.7720 -1.8795
 3370TIP3   OH231524   4.836   2.382  12.402 -0.1678  0.0396  0.4610
 3370TIP3    H131525   4.743   2.360  12.413 -0.0242 -0.7586  0.1274
 3370TIP3    H231526   4.836   2.476  12.382 -0.9073  0.0363  0.4112
 3371TIP3   OH231527   5.245   4.025  12.277  0.3594  0.1847  0.0655
 3371TIP3    H131528   5.222   4.115  12.300  0.2513 -0.0481  0.9107
 3371TIP3    H231529   5.340   4.024  12.278  0.3671  0.3506 -0.2194
 3372TIP3   OH231530   4.418   2.123  16.889 -0.4731  0.3046  0.1222
 3372TIP3    H131531   4.503   2.166  16.874 -1.8867  2.6596 -1.8934
 3372TIP3    H231532   4.423   2.092  16.979  2.6964 -0.1140 -0.0785
 3373TIP3   OH231533   2.263   4.559   1.073 -0.2345  0.3973  0.6149
 3373TIP3    H131534   2.262   4.526   0.983  2.1496 -0.3207  0.7700
 3373TIP3    H231535   2.181   4.608   1.082  0.4995  2.6071 -2.7750
 3374TIP3   OH231536   6.435   4.505   6.044 -0.0488  0.4741 -0.7646
 3374TIP3    H131537   6.440   4.430   5.984 -0.0477  0.4191 -0.6956
 3374TIP3    H231538   6.341   4.524   6.051 -0.1483 -0.3428  0.2383
 3375TIP3   OH231539   6.151   4.178  11.527 -0.5987  0.0098 -0.2964
 3375TIP3    H131540   6.134   4.104  11.584  0.1698 -1.6187 -2.0758
 3375TIP3    H231541   6.154   4.141  11.439  0.5250  2.0313 -1.1860
 3376TIP3   OH231542   6.116   6.330   3.252 -0.3763  0.1546  0.8135
 3376TIP3    H131543   6.102   6.341   3.346 -1.9018  1.3559  0.4814
 3376TIP3    H231544   6.103   6.236   3.237  1.1703 -0.2906  1.9587
 3377TIP3   OH231545   3.743   0.575   1.415 -0.3737 -0.5938  0.2663
 3377TIP3    H131546   3.727   0.497   1.362  1.3541 -0.7059 -0.1696
 3377TIP3    H231547   3.718   0.549   1.503 -0.6615 -1.3457 -0.0256
 3378TIP3   OH231548   4.687   3.595  12.025  0.0076 -0.4947 -0.2329
 3378TIP3    H131549   4.694   3.521  12.086 -1.4674 -0.3462  0.1641
 3378TIP3    H231550   4.677   3.555  11.939  3.0975 -0.7098 -0.5951
 3379TIP3   OH231551   6.310   2.256  16.119  0.2462  0.5110  0.1466
 3379TIP3    H131552   6.236   2.286  16.066 -1.2083 -1.6766  0.7731
 3379TIP3    H231553   6.280   2.263  16.210  1.3304  0.8136  0.5041
 3380TIP3   OH231554   0.807   2.217   1.883  0.1704 -0.1243  0.0179
 3380TIP3    H131555   0.886   2.263   1.911 -0.6450  1.4289 -0.1298
 3380TIP3    H231556   0.832   2.125   1.881  1.1435 -0.0337  2.9009
 3381TIP3   OH231557   6.153   2.287  15.841 -0.1094  0.4158 -0.5664
 3381TIP3    H131558   6.204   2.355  15.798  2.5032 -0.4501  0.9458
 3381TIP3    H231559   6.163   2.210  15.786  0.7614  0.0896  0.0282
 3382TIP3   OH231560   5.467   3.324   0.872  0.3248 -0.0635 -0.0956
 3382TIP3    H131561   5.490   3.379   0.797 -0.7855 -2.2775 -2.2243
 3382TIP3    H231562   5.551   3.289   0.902  0.6915 -0.3537 -1.3694
 3383TIP3   OH231563   6.635   2.293  11.072  0.1891  0.2680  0.0409
 3383TIP3    H131564   6.693   2.311  11.146  1.3517 -1.0952 -0.5016
 3383TIP3    H231565   6.694   2.271  11.000 -0.9731 -0.1531 -0.8145
 3384TIP3   OH231566   6.249   3.200   5.914  0.5680  1.1561 -0.4095
 3384TIP3    H131567   6.222   3.286   5.947  0.5788  0.9545  0.1311
 3384TIP3    H231568   6.335   3.185   5.953  0.5069  0.8405 -0.3929
 3385TIP3   OH231569   6.583   5.265  11.146  0.0441  0.3365 -0.1391
 3385TIP3    H131570   6.521   5.208  11.100 -1.0488  1.1413  0.2992
 3385TIP3    H231571   6.562   5.256  11.238  2.2304 -1.2626  0.2920
 3386TIP3   OH231572   0.438   6.116   5.681 -0.1776  0.4145  0.4859
 3386TIP3    H131573   0.442   6.039   5.624 -0.3200 -0.6812  1.8996
 3386TIP3    H231574   0.529   6.131   5.707 -0.2011  0.4698  0.5365
 3387TIP3   OH231575   0.437   0.007   4.915  0.4016 -0.1555 -0.5939
 3387TIP3    H131576   0.347   0.014   4.883 -0.5157 -1.8096  1.3969
 3387TIP3    H231577   0.456  -0.086   4.912  1.5463  0.0333  0.2646
 3388TIP3   OH231578   6.422   1.043   3.463  0.1627  0.0301  0.1513
 3388TIP3    H131579   6.454   1.132   3.446 -2.1677  1.2431  1.6125
 3388TIP3    H231580   6.434   1.031   3.557 -1.3580 -0.4128  0.3054
 3389TIP3   OH231581   6.346   5.605  16.866  0.0631 -0.0337  0.4753
 3389TIP3    H131582   6.348   5.513  16.892  2.7297  0.0535  0.8507
 3389TIP3    H231583   6.255   5.632  16.878 -0.4400 -2.1743  1.9172
 3390TIP3   OH231584   2.154   2.344  13.777 -0.2589  0.1557  0.2129
 3390TIP3    H131585   2.249   2.330  13.781 -0.1610  0.8321  0.3164
 3390TIP3    H231586   2.128   2.304  13.695 -0.0052 -0.7351  0.5536
 3391TIP3   OH231587   2.333   3.031   4.150 -0.4474  0.0017  0.3347
 3391TIP3    H131588   2.380   2.960   4.106 -0.0553  0.8658 -0.6839
 3391TIP3    H231589   2.331   3.005   4.242  1.2745 -0.4770  0.2797
 3392TIP3   OH231590   2.799   2.863   2.700  0.0858  0.0785 -0.1363
 3392TIP3    H131591   2.854   2.923   2.750  0.2913 -0.7692  0.6939
 3392TIP3    H231592   2.771   2.798   2.764 -1.2350  0.0418 -0.7289
 3393TIP3   OH231593   5.455   1.771   4.334  0.0734 -0.1529  0.2317
 3393TIP3    H131594   5.435   1.724   4.252  1.1691 -2.7629  1.3298
 3393TIP3    H231595   5.550   1.760   4.345 -0.1994 -0.8124  2.3420
 3394TIP3   OH231596   4.969   4.486  15.889  0.1110 -0.2811 -0.2066
 3394TIP3    H131597   5.008   4.572  15.905  1.6052 -1.0918  0.7343
 3394TIP3    H231598   4.974   4.441  15.973 -1.2286 -1.0883 -0.5231
 3395TIP3   OH231599   1.176   4.784  16.728 -0.0406  0.7329 -0.0486
 3395TIP3    H131600   1.207   4.874  16.739  0.3910  0.8981 -2.1606
 3395TIP3    H231601   1.251   4.730  16.752  0.2765  0.9913 -0.4480
 3396TIP3   OH231602   5.112   2.514   6.002 -0.4042  0.1213 -0.1074
 3396TIP3    H131603   5.038   2.556   6.045  0.1798  1.1576 -0.0832
 3396TIP3    H231604   5.085   2.508   5.910 -1.5026 -1.7696  0.2882
 3397TIP3   OH231605   5.972   0.918  14.806 -0.1344  0.0060 -0.4989
 3397TIP3    H131606   5.973   0.827  14.836 -1.3650 -0.2310 -1.1017
 3397TIP3    H231607   6.059   0.952  14.827  0.3938 -1.3599 -0.4061
 3398TIP3   OH231608   1.713   3.863  12.025 -0.2190  1.3020 -0.1954
 3398TIP3    H131609   1.698   3.771  12.002  1.1154  0.8558  0.6029
 3398TIP3    H231610   1.691   3.869  12.118 -0.5862  1.8661 -0.3150
 3399TIP3   OH231611   0.747   4.003   3.343  0.3770  0.3800  0.8081
 3399TIP3    H131612   0.676   3.940   3.327 -0.9484  1.7014  1.2621
 3399TIP3    H231613   0.819   3.950   3.378 -0.0786 -1.1200 -0.3892
 3400TIP3   OH231614   6.749   4.878  10.533  0.3278  0.1576  0.0127
 3400TIP3    H131615   6.656   4.858  10.537  0.2614  0.6252  1.0235
 3400TIP3    H231616   6.753   4.972  10.517  0.6443 -0.1067 -1.6589
 3401TIP3   OH231617   1.257   4.382  12.253 -0.4558  0.1852 -0.0043
 3401TIP3    H131618   1.338   4.433  12.264 -0.2026 -0.5237  1.7252
 3401TIP3    H231619   1.188   4.448  12.245  0.2125  0.7981 -1.1187
 3402TIP3   OH231620   0.479   2.210  12.539 -0.0441 -0.2946  0.9987
 3402TIP3    H131621   0.398   2.259  12.523  0.5321  0.4900  0.4395
 3402TIP3    H231622   0.468   2.130  12.488 -0.8434 -0.6075  1.6370
 3403TIP3   OH231623   6.060   5.263   0.360 -0.7033 -0.1543 -0.8042
 3403TIP3    H131624   6.120   5.217   0.302 -0.6915  0.0300 -0.9421
 3403TIP3    H231625   5.973   5.244   0.325 -0.7322 -0.5070 -0.5416
 3404TIP3   OH231626   3.718   4.337  12.830 -0.7193 -0.2013 -0.2475
 3404TIP3    H131627   3.744   4.405  12.891 -1.5673  0.7622 -0.9289
 3404TIP3    H231628   3.768   4.355  12.751 -0.6391 -0.6234 -0.2973
 3405TIP3   OH231629   3.157   4.178   2.523 -0.2020 -0.0246  0.9644
 3405TIP3    H131630   3.118   4.224   2.448  3.1790  1.1743 -0.2226
 3405TIP3    H231631   3.188   4.095   2.487  0.7234  0.2064  1.2122
 3406TIP3   OH231632   3.915   0.342   2.407 -0.2643 -0.2271 -0.2063
 3406TIP3    H131633   3.827   0.306   2.393 -0.0500 -0.8013 -0.0692
 3406TIP3    H231634   3.940   0.376   2.321 -0.2041 -0.9955 -0.4992
 3407TIP3   OH231635   4.508   1.918   5.715  0.1592 -0.2142 -0.8994
 3407TIP3    H131636   4.450   1.940   5.642  1.2053  0.2034 -1.6198
 3407TIP3    H231637   4.559   1.843   5.684  1.8260  1.0290 -1.2833
 3408TIP3   OH231638   2.238   1.575  11.517  0.3110 -0.7002  0.2130
 3408TIP3    H131639   2.231   1.656  11.466 -0.9294 -0.9120 -0.0000
 3408TIP3    H231640   2.171   1.518  11.479  1.6048 -2.0888 -0.0727
 3409TIP3   OH231641   0.761   4.501  17.031 -0.4007  0.0774 -0.3423
 3409TIP3    H131642   0.670   4.529  17.020 -0.7691 -0.8261  0.2701
 3409TIP3    H231643   0.809   4.548  16.963 -1.2705  0.8130 -0.4718
 3410TIP3   OH231644   4.120   0.569   3.288  0.3801  0.1411 -0.0860
 3410TIP3    H131645   4.041   0.616   3.262  0.8547  0.8307 -0.2914
 3410TIP3    H231646   4.187   0.598   3.226  1.5783  1.8873  1.9075
 3411TIP3   OH231647   1.025   0.386   5.608  0.1681  0.5877  0.1363
 3411TIP3    H131648   0.934   0.363   5.588 -0.6480  1.0939  2.8518
 3411TIP3    H231649   1.035   0.476   5.577  0.2996  0.0107 -1.6113
 3412TIP3   OH231650   3.064   3.070   0.932  0.6280  0.3136 -0.2594
 3412TIP3    H131651   3.138   3.013   0.914 -0.1342 -0.7937 -0.0406
 3412TIP3    H231652   3.083   3.109   1.017  0.4864 -0.7698  0.2765
 3413TIP3   OH231653   3.757   5.756  14.830  0.4430 -0.2205  0.0024
 3413TIP3    H131654   3.673   5.780  14.792  0.1756 -1.3869 -0.2015
 3413TIP3    H231655   3.812   5.733  14.755  1.0806  0.9019  0.1071
 3414TIP3   OH231656   3.346   0.287  10.923  0.0306 -0.0021  0.5288
 3414TIP3    H131657   3.286   0.308  10.851  1.8467  2.2066 -0.4257
 3414TIP3    H231658   3.309   0.207  10.962 -2.3152  0.0781 -1.3344
 3415TIP3   OH231659   5.637   1.718   0.018  0.3982  0.5295  0.4483
 3415TIP3    H131660   5.667   1.809   0.026 -1.0248  1.1094 -0.5371
 3415TIP3    H231661   5.659   1.694  -0.072  2.4632 -0.7759  1.2412
 3416TIP3   OH231662   5.491   4.381   3.805 -0.1460 -0.1201 -0.4055
 3416TIP3    H131663   5.586   4.392   3.811 -0.3245  0.4279  2.1681
 3416TIP3    H231664   5.479   4.287   3.793  0.7135 -0.0019 -3.0279
 3417TIP3   OH231665   2.046   4.855  12.627 -0.2744  0.0488 -0.5988
 3417TIP3    H131666   2.020   4.916  12.696  0.0579 -0.1175 -0.3236
 3417TIP3    H231667   2.112   4.903  12.576 -1.6652  0.7705 -1.7838
 3418TIP3   OH231668   3.777   2.406  11.819 -0.1046 -0.2928  0.4163
 3418TIP3    H131669   3.854   2.420  11.874  0.7431  2.1239 -1.1997
 3418TIP3    H231670   3.811   2.368  11.738 -0.0696  2.8546 -1.2287
 3419TIP3   OH231671   1.018   4.978  11.482 -0.3612 -0.1073 -0.6438
 3419TIP3    H131672   0.941   5.033  11.469 -0.2253  0.4030  0.6109
 3419TIP3    H231673   1.066   4.985  11.399 -0.4465  1.5147 -0.5907
 3420TIP3   OH231674   2.969   1.456  12.245  0.2211  0.3805  0.2457
 3420TIP3    H131675   3.014   1.466  12.329  1.5913  1.3397 -0.5666
 3420TIP3    H231676   2.992   1.368  12.216  0.0533  0.1888  0.6703
 3421TIP3   OH231677   4.243   1.330  14.338  0.0453  0.3436  0.3533
 3421TIP3    H131678   4.282   1.409  14.375  0.4404  1.2935 -1.9009
 3421TIP3    H231679   4.317   1.277  14.310 -0.2288  0.1801 -0.0826
 3422TIP3   OH231680   2.677   5.238  17.144  0.1491  0.4328  0.0096
 3422TIP3    H131681   2.724   5.155  17.133 -0.0451  0.3951 -0.5891
 3422TIP3    H231682   2.707   5.272  17.228  0.4448 -0.1067  0.1256
 3423TIP3   OH231683   6.308   1.407  14.164 -0.2658  0.3152 -0.1428
 3423TIP3    H131684   6.381   1.458  14.129  0.5498 -0.1837  0.7650
 3423TIP3    H231685   6.232   1.436  14.114  0.3764  1.5663 -0.4289
 3424TIP3   OH231686   6.739   4.347  13.727 -0.7752  0.5289  0.2685
 3424TIP3    H131687   6.753   4.366  13.634 -3.3143  0.7384 -0.1287
 3424TIP3    H231688   6.787   4.417  13.773  0.8034  0.2181 -0.8279
 3425TIP3   OH231689   1.877   2.635   4.438  0.4218 -0.4466 -0.2265
 3425TIP3    H131690   1.808   2.659   4.377 -0.3541 -1.2782  0.2916
 3425TIP3    H231691   1.950   2.607   4.383  0.9996  2.0144 -0.8249
 3426TIP3   OH231692   2.911   5.243  17.324  0.2920 -0.6192  0.0329
 3426TIP3    H131693   2.864   5.291  17.392 -0.2939 -0.5728 -0.3923
 3426TIP3    H231694   2.974   5.306  17.289 -0.0578 -0.3465 -0.1115
 3427TIP3   OH231695   3.508   0.486  16.551 -0.6456 -0.3325  0.6026
 3427TIP3    H131696   3.480   0.577  16.551 -0.8852 -0.4055  0.5566
 3427TIP3    H231697   3.597   0.488  16.586  0.1993  0.1715 -1.4330
 3428TIP3   OH231698   2.843   3.854   1.199 -0.3987 -0.4530 -0.1226
 3428TIP3    H131699   2.758   3.850   1.242 -0.0870 -0.3195  0.5103
 3428TIP3    H231700   2.861   3.765   1.170  0.1599 -0.9170  1.5373
 3429TIP3   OH231701   0.896   2.420  15.865 -0.1917  0.5472  0.0872
 3429TIP3    H131702   0.932   2.495  15.819  0.0567 -0.9319 -2.2663
 3429TIP3    H231703   0.804   2.415  15.837 -0.1425 -0.1726  0.0309
 3430TIP3   OH231704   4.193   4.045  16.726  0.8835  0.2432  0.1058
 3430TIP3    H131705   4.113   4.006  16.759  0.9891 -1.1546 -1.1772
 3430TIP3    H231706   4.163   4.116  16.668  0.6501  0.9841  1.1082
 3431TIP3   OH231707   6.085   6.277  12.216 -0.5495  0.2637 -0.0557
 3431TIP3    H131708   6.008   6.309  12.169 -0.3398 -0.0219 -0.5942
 3431TIP3    H231709   6.049   6.216  12.281 -0.6665 -1.1442 -1.3844
 3432TIP3   OH231710   1.391   5.791   3.600 -0.2131  0.1490  0.5553
 3432TIP3    H131711   1.387   5.805   3.505  0.7891  3.1603  0.8830
 3432TIP3    H231712   1.304   5.815   3.631  0.5239  2.8669  0.7315
 3433TIP3   OH231713   0.080   0.436  14.232 -0.4254  0.0247  0.3527
 3433TIP3    H131714   0.131   0.494  14.288 -0.3908  1.5088 -1.1495
 3433TIP3    H231715   0.010   0.491  14.197 -0.4856 -0.8528 -0.9955
 3434TIP3   OH231716   0.651   4.478   2.175  0.1393  0.0751  0.2936
 3434TIP3    H131717   0.716   4.430   2.227  1.0182 -0.4726 -1.2499
 3434TIP3    H231718   0.570   4.427   2.186  0.2100  0.1626  1.3759
 3435TIP3   OH231719   0.543   0.997   0.248  0.2491  0.3748 -0.2522
 3435TIP3    H131720   0.565   1.087   0.224 -0.7276  1.5328  2.7227
 3435TIP3    H231721   0.563   0.991   0.341 -1.2067 -2.0113  0.0039
 3436TIP3   OH231722   3.875   4.681   3.431  0.8097 -0.5680 -0.1190
 3436TIP3    H131723   3.926   4.602   3.450  0.0458 -1.0218  0.0693
 3436TIP3    H231724   3.899   4.703   3.341  0.0035 -1.8152 -0.6714
 3437TIP3   OH231725   6.368   5.116  12.617  0.2730 -0.4772  0.0380
 3437TIP3    H131726   6.309   5.043  12.639 -0.7378  0.6060  1.0435
 3437TIP3    H231727   6.313   5.194  12.623  1.4877  0.4430 -0.4112
 3438TIP3   OH231728   0.767   0.114  16.853 -0.0600 -0.3304 -0.2338
 3438TIP3    H131729   0.726   0.117  16.939  2.3204  0.8436  0.9655
 3438TIP3    H231730   0.730   0.188  16.806  1.0014  1.0576  1.0265
 3439TIP3   OH231731   5.904   4.866  13.212  0.0315  0.4285  0.2071
 3439TIP3    H131732   5.837   4.833  13.152  1.8049 -0.8949 -1.1669
 3439TIP3    H231733   5.914   4.959  13.189 -0.0051  0.1720 -0.9122
 3440TIP3   OH231734   4.659   6.630   5.585  0.1095 -0.6799  0.0592
 3440TIP3    H131735   4.677   6.542   5.617 -0.8417 -0.5435  0.9910
 3440TIP3    H231736   4.596   6.617   5.514  0.8078 -0.8187 -0.5598
 3441TIP3   OH231737   3.255   4.322   6.197  0.2061  0.3448  0.3366
 3441TIP3    H131738   3.166   4.291   6.179  0.6655 -0.0455 -1.4714
 3441TIP3    H231739   3.261   4.324   6.293 -1.8398  0.7081  0.4961
 3442TIP3   OH231740   3.275   6.501   2.111 -0.1701  0.0599 -0.1991
 3442TIP3    H131741   3.302   6.457   2.192  0.4753 -3.4849 -2.1239
 3442TIP3    H231742   3.185   6.473   2.097 -0.6607  1.5513 -0.2081
 3443TIP3   OH231743   4.078   1.910  15.740 -0.2768 -0.2013 -0.4958
 3443TIP3    H131744   4.064   1.973  15.810 -1.2537  0.4645 -1.2648
 3443TIP3    H231745   4.138   1.955  15.680 -1.9488  0.5562 -1.6798
 3444TIP3   OH231746   5.458   0.545   0.799 -0.3749  0.1719 -0.4431
 3444TIP3    H131747   5.446   0.527   0.892  0.3576  1.1314 -0.1488
 3444TIP3    H231748   5.527   0.484   0.771 -0.1903  0.2773 -0.2173
 3445TIP3   OH231749   6.336   1.441  15.222 -0.2729  0.2890  0.3688
 3445TIP3    H131750   6.246   1.473  15.220 -0.9064 -1.4296  0.0840
 3445TIP3    H231751   6.382   1.493  15.156 -1.6232 -0.3652 -1.1496
 3446TIP3   OH231752   0.881   5.092  13.892  0.0972 -0.3029 -0.5862
 3446TIP3    H131753   0.832   5.021  13.851 -0.1385 -0.3395 -0.2401
 3446TIP3    H231754   0.872   5.077  13.986  0.3624 -0.0300 -0.5146
 3447TIP3   OH231755   6.289   4.832  15.853  0.5109  0.1165 -0.3148
 3447TIP3    H131756   6.283   4.875  15.939 -1.3240  4.3035 -2.2247
 3447TIP3    H231757   6.348   4.888  15.803  1.4863 -2.1805 -1.8927
 3448TIP3   OH231758   3.815   1.747  14.552  0.3965 -0.5685 -0.0194
 3448TIP3    H131759   3.869   1.706  14.620 -0.5580 -1.3405  0.2968
 3448TIP3    H231760   3.804   1.838  14.582  0.8311 -0.6233  0.3249
 3449TIP3   OH231761   5.553   3.860  13.403 -0.0922 -0.7632  0.2245
 3449TIP3    H131762   5.518   3.778  13.436  0.3503 -1.2110 -0.4092
 3449TIP3    H231763   5.558   3.848  13.308  0.3955 -0.1684  0.1702
 3450TIP3   OH231764   2.732   0.244   4.133 -0.7809 -0.5183 -0.0329
 3450TIP3    H131765   2.643   0.269   4.158 -0.3103  0.0899  1.1150
 3450TIP3    H231766   2.742   0.154   4.165 -0.5822 -0.1594  0.9271
 3451TIP3   OH231767   3.099   6.519  13.113 -0.2351  0.2345  0.6290
 3451TIP3    H131768   3.098   6.602  13.159  0.4503  1.3330 -1.2246
 3451TIP3    H231769   3.073   6.541  13.023  0.9461 -1.3603 -0.1659
 3452TIP3   OH231770   2.645   0.570  14.215 -0.2515 -0.1502  0.1967
 3452TIP3    H131771   2.593   0.511  14.269  2.5897 -0.3517  2.9417
 3452TIP3    H231772   2.671   0.517  14.140 -1.0776 -1.0779  0.5431
 3453TIP3   OH231773   0.889   3.090   1.961 -0.0004 -0.0398 -0.2859
 3453TIP3    H131774   0.903   3.174   1.917 -2.5365  0.4118 -0.3842
 3453TIP3    H231775   0.795   3.076   1.957  0.2806 -2.6879  0.1658
 3454TIP3   OH231776   5.763   3.647  13.329  0.1964  0.6806  0.0342
 3454TIP3    H131777   5.743   3.560  13.294  1.6285  0.9086 -1.4509
 3454TIP3    H231778   5.722   3.647  13.416  1.8873 -2.2649  0.9884
 3455TIP3   OH231779   4.511   3.915  14.125  0.0636  0.3464 -0.8836
 3455TIP3    H131780   4.547   3.956  14.203  0.0343 -2.8131  0.9817
 3455TIP3    H231781   4.578   3.851  14.099 -1.2809 -0.8760 -1.4807
 3456TIP3   OH231782   4.778   0.132  14.890 -0.3407 -0.2213  0.5996
 3456TIP3    H131783   4.710   0.177  14.941 -0.1278 -0.3250  0.9760
 3456TIP3    H231784   4.749   0.140  14.799 -0.8175 -0.1949  0.7515
 3457TIP3   OH231785   5.460   5.514  16.413 -1.0546 -0.6334  0.1282
 3457TIP3    H131786   5.439   5.584  16.475 -1.0649 -1.1043  0.6615
 3457TIP3    H231787   5.456   5.434  16.465 -0.2261 -0.9552 -0.2849
 3458TIP3   OH231788   1.708   3.843   5.684  0.0314  0.1891  0.1819
 3458TIP3    H131789   1.640   3.910   5.684 -2.2091 -1.8632  1.9857
 3458TIP3    H231790   1.662   3.763   5.711  2.9795 -1.5820  0.3785
 3459TIP3   OH231791   4.850   1.502  14.093  0.0872  0.4674 -0.0054
 3459TIP3    H131792   4.842   1.473  14.184  0.0777  2.2269  0.5822
 3459TIP3    H231793   4.938   1.474  14.067 -0.1721 -0.6687  0.2911
 3460TIP3   OH231794   6.656   1.020   4.025  0.4462 -0.2350  0.3703
 3460TIP3    H131795   6.588   0.960   3.995  2.1801 -3.3545  2.1272
 3460TIP3    H231796   6.625   1.049   4.111  0.2088  0.3480  0.0894
 3461TIP3   OH231797   6.068   2.323  11.289 -0.4174  0.0778 -0.1277
 3461TIP3    H131798   6.152   2.341  11.330 -0.0039 -0.6199 -0.6477
 3461TIP3    H231799   6.066   2.381  11.213 -0.6517  0.4847  0.1819
 3462TIP3   OH231800   0.201   5.656  15.730 -0.0118 -0.7757 -0.1825
 3462TIP3    H131801   0.165   5.680  15.644 -0.4168 -1.0309 -0.0887
 3462TIP3    H231802   0.247   5.574  15.714 -0.3737 -0.9977 -0.0879
 3463TIP3   OH231803   3.549   0.957   4.479 -0.1203  0.3394  0.1903
 3463TIP3    H131804   3.573   1.036   4.526 -1.6779  1.1956 -0.3663
 3463TIP3    H231805   3.622   0.941   4.418  0.6456  0.7675  0.9812
 3464TIP3   OH231806   0.071   1.855   2.840  0.5877 -0.5982 -0.7080
 3464TIP3    H131807   0.106   1.836   2.927  1.0909  0.4201 -0.6791
 3464TIP3    H231808  -0.024   1.857   2.853  0.6627 -0.3004 -0.1399
 3465TIP3   OH231809   1.117   2.001   0.618  0.1803  0.2826 -0.3779
 3465TIP3    H131810   1.023   1.981   0.615  0.5431 -1.4226 -0.8608
 3465TIP3    H231811   1.159   1.930   0.572  1.7282  1.1396 -0.3570
 3466TIP3   OH231812   5.904   4.714  15.984 -0.5163 -0.7471 -0.2841
 3466TIP3    H131813   5.852   4.634  15.989  0.5736 -1.4391  0.5271
 3466TIP3    H231814   5.936   4.727  16.074  0.7884 -0.4242 -0.7749
 3467TIP3   OH231815   3.803   3.968  12.341 -0.4324 -0.2478 -0.1974
 3467TIP3    H131816   3.773   3.880  12.323 -0.4919 -0.3961  0.6045
 3467TIP3    H231817   3.799   4.013  12.256 -0.3878 -1.0111 -0.6079
 3468TIP3   OH231818   4.695   3.700  12.518 -0.3482 -0.8515  0.7083
 3468TIP3    H131819   4.643   3.698  12.438  0.7027 -1.8269  0.0181
 3468TIP3    H231820   4.631   3.698  12.589 -1.2978  0.1128 -0.0931
 3469TIP3   OH231821   3.899   1.493  15.820  0.0346  0.2082  0.8387
 3469TIP3    H131822   3.815   1.510  15.862 -0.3985  1.9675 -0.6327
 3469TIP3    H231823   3.964   1.530  15.879 -0.6290  3.5620 -0.3263
 3470TIP3   OH231824   2.275   2.116  16.231 -0.0306 -0.3100  0.0169
 3470TIP3    H131825   2.329   2.107  16.310  0.3545  0.4724 -0.1495
 3470TIP3    H231826   2.241   2.028  16.216 -1.5217 -0.1410  2.0392
 3471TIP3   OH231827   3.527   5.643  15.893  0.6031 -0.1707  0.2870
 3471TIP3    H131828   3.518   5.737  15.908 -0.4029 -0.2969  0.5285
 3471TIP3    H231829   3.595   5.636  15.826  0.6068  0.7378  0.1820
 3472TIP3   OH231830   6.698   2.543  14.228 -0.6188 -0.3078 -0.0220
 3472TIP3    H131831   6.730   2.480  14.292 -0.2573 -1.0442 -0.9019
 3472TIP3    H231832   6.716   2.502  14.143 -0.7671  0.7897 -0.6029
 3473TIP3   OH231833   2.229   3.690  15.118 -0.0383 -0.0933 -0.1472
 3473TIP3    H131834   2.153   3.633  15.119 -0.6080  0.5056 -2.8843
 3473TIP3    H231835   2.242   3.713  15.026  2.1976  1.5055  0.4651
 3474TIP3   OH231836   4.877   3.479   5.555 -0.0899 -0.5836 -0.2338
 3474TIP3    H131837   4.925   3.549   5.598  0.2029  0.3058 -1.9577
 3474TIP3    H231838   4.790   3.516   5.539 -0.3362 -1.0609 -0.0237
 3475TIP3   OH231839   4.527   1.163   4.874 -0.7168 -0.0381  0.3605
 3475TIP3    H131840   4.596   1.205   4.925 -0.5441  0.9681 -0.6585
 3475TIP3    H231841   4.550   1.070   4.873  1.5688  0.4720 -1.3258
 3476TIP3   OH231842   1.697   2.759  14.343 -0.0871  0.2558  0.2054
 3476TIP3    H131843   1.673   2.836  14.292  0.0604 -0.1480 -0.4818
 3476TIP3    H231844   1.707   2.689  14.279  0.4057 -0.1886  0.7510
 3477TIP3   OH231845   0.326   4.549   3.273  0.0519 -0.9721 -0.2991
 3477TIP3    H131846   0.302   4.496   3.349  2.1046 -1.8765 -0.2246
 3477TIP3    H231847   0.395   4.499   3.229  0.7842  0.7787 -1.2489
 3478TIP3   OH231848   6.663   1.952  15.038  0.2467 -0.7902 -0.4064
 3478TIP3    H131849   6.580   1.906  15.053  0.1459  0.0721  2.0772
 3478TIP3    H231850   6.637   2.035  14.998  0.0059 -0.9494 -0.5833
 3479TIP3   OH231851   5.335   4.709  14.917  0.5652 -0.7874  0.1653
 3479TIP3    H131852   5.332   4.773  14.988  1.3508  1.1973 -1.5030
 3479TIP3    H231853   5.404   4.648  14.944  0.0089 -0.8192  1.6442
 3480TIP3   OH231854   6.692   1.265   2.132 -0.2489 -0.0857  0.0323
 3480TIP3    H131855   6.718   1.329   2.199  0.5080 -0.1666 -0.1742
 3480TIP3    H231856   6.701   1.180   2.175 -1.7411 -0.0565  0.4699
 3481TIP3   OH231857   0.107   6.399   1.624  0.2135 -0.4327  0.3428
 3481TIP3    H131858   0.082   6.364   1.709  1.6588  0.0840  0.9939
 3481TIP3    H231859   0.040   6.365   1.564 -1.0913 -0.4025  1.7431
 3482TIP3   OH231860   0.491   6.679  13.119 -0.1823 -0.4210 -0.6168
 3482TIP3    H131861   0.554   6.750  13.122  1.3827 -1.6262 -2.5903
 3482TIP3    H231862   0.423   6.709  13.058  0.0521 -0.2998 -0.8170
 3483TIP3   OH231863   0.205   4.531   5.062 -0.1322 -0.2804 -0.0702
 3483TIP3    H131864   0.171   4.508   5.149  0.1627  0.1528  0.1653
 3483TIP3    H231865   0.204   4.449   5.013  0.6112 -0.7432  0.6545
 3484TIP3   OH231866   4.758   5.885   0.911  0.1472 -0.7477  0.9433
 3484TIP3    H131867   4.810   5.962   0.935 -2.2922  0.8054  1.5774
 3484TIP3    H231868   4.784   5.866   0.821  1.9756 -0.2442  1.3071
 3485TIP3   OH231869   5.084   2.211   1.715  0.3205  0.4064 -0.0028
 3485TIP3    H131870   5.135   2.266   1.656 -0.4714  1.2784  0.1005
 3485TIP3    H231871   5.074   2.128   1.668  0.5010  0.7662 -0.6931
 3486TIP3   OH231872   5.397   6.661   3.909 -0.4122 -0.3830 -0.2342
 3486TIP3    H131873   5.454   6.648   3.984 -1.0782 -0.5934  0.2484
 3486TIP3    H231874   5.413   6.751   3.881  1.4762 -0.9769 -1.2479
 3487TIP3   OH231875   0.098   0.073   5.669 -0.3800 -0.5553 -0.1696
 3487TIP3    H131876   0.093  -0.015   5.631  0.9523 -0.2080 -1.2573
 3487TIP3    H231877   0.187   0.078   5.704  0.1992  0.9260 -1.6913
 3488TIP3   OH231878   4.039   0.928   2.811  0.4162  0.1927 -0.0111
 3488TIP3    H131879   4.003   0.846   2.846 -0.9196  0.8327  0.1977
 3488TIP3    H231880   4.058   0.981   2.889  0.0154  0.5778 -0.1687
 3489TIP3   OH231881   5.349   5.169  13.485  0.0728 -0.2003  0.4804
 3489TIP3    H131882   5.286   5.118  13.435 -2.1082  1.5815  1.2356
 3489TIP3    H231883   5.421   5.108  13.502 -0.3105 -1.6494 -2.4071
 3490TIP3   OH231884   5.644   3.372   0.151  0.5442  0.0053 -0.2031
 3490TIP3    H131885   5.568   3.316   0.138  0.4472 -0.2622  1.2906
 3490TIP3    H231886   5.610   3.448   0.199  0.9387  0.6565 -0.9322
 3491TIP3   OH231887   0.381   4.854   4.056  0.1264 -0.1593 -0.8187
 3491TIP3    H131888   0.338   4.908   4.123 -0.9032  0.7736 -2.1743
 3491TIP3    H231889   0.370   4.765   4.087 -0.2699  0.2591  0.2951
 3492TIP3   OH231890   6.437   5.244  14.516 -0.0964 -0.1689  0.3318
 3492TIP3    H131891   6.402   5.319  14.563  1.9894  1.9383 -1.2212
 3492TIP3    H231892   6.518   5.276  14.475  1.6870 -3.6541  0.6811
 3493TIP3   OH231893   6.358   4.138  16.495  0.8545  0.0781  0.5041
 3493TIP3    H131894   6.311   4.063  16.460 -1.6107  1.6159  0.2906
 3493TIP3    H231895   6.445   4.104  16.516  0.3755 -2.4008 -1.1092
 3494TIP3   OH231896   4.226   3.954  17.199 -0.1552 -0.1540  0.1350
 3494TIP3    H131897   4.249   4.025  17.259  1.2081 -0.9783  0.6111
 3494TIP3    H231898   4.303   3.943  17.144 -0.8316 -0.4346 -0.7700
 3495TIP3   OH231899   5.666   5.650   0.638 -0.1274 -0.2819  0.0623
 3495TIP3    H131900   5.645   5.672   0.547  0.0199 -0.7233 -0.0815
 3495TIP3    H231901   5.582   5.650   0.683 -0.3075 -0.9080 -0.2602
 3496TIP3   OH231902   2.636   5.622  12.028 -0.1781  0.0555  0.3940
 3496TIP3    H131903   2.556   5.619  11.974 -0.9377 -0.8889  1.5404
 3496TIP3    H231904   2.661   5.715  12.027 -1.1530  0.3329 -0.1602
 3497TIP3   OH231905   3.038   2.139   2.273 -0.5421 -0.5830 -0.0611
 3497TIP3    H131906   3.059   2.055   2.313 -0.8154 -1.2301 -1.2204
 3497TIP3    H231907   3.088   2.140   2.191  2.7808  2.2087  1.7692
 3498TIP3   OH231908   1.285   0.383   2.191 -0.2428  0.0397  0.3759
 3498TIP3    H131909   1.370   0.412   2.223 -0.9370  1.1245  1.3311
 3498TIP3    H231910   1.252   0.457   2.140  0.1733 -1.0815 -1.6392
 3499TIP3   OH231911   5.459   0.244   1.776 -0.9153 -0.0342  0.0234
 3499TIP3    H131912   5.398   0.179   1.810 -0.7629 -0.1240  0.1262
 3499TIP3    H231913   5.446   0.321   1.833 -1.6137  0.2792 -0.5526
 3500TIP3   OH231914   2.463   6.011  11.354  0.1171  0.4120  0.3721
 3500TIP3    H131915   2.479   5.978  11.266 -0.5814  0.7286  0.1225
 3500TIP3    H231916   2.538   5.981  11.405  1.5342  1.9170 -0.7588
 3501TIP3   OH231917   4.058   5.613  16.418  0.3174 -0.2143  0.2506
 3501TIP3    H131918   4.026   5.702  16.431 -0.0949 -0.1717 -0.9231
 3501TIP3    H231919   3.986   5.558  16.451 -0.8050 -0.1132 -1.8761
 3502TIP3   OH231920   1.493   4.113   4.216 -0.4011  0.5860 -0.1078
 3502TIP3    H131921   1.539   4.179   4.267 -0.8084  0.5770  0.2839
 3502TIP3    H231922   1.507   4.031   4.264 -2.0147  0.8156  0.8434
 3503TIP3   OH231923   3.285   3.607   4.384  0.5091  0.4462 -0.1109
 3503TIP3    H131924   3.241   3.630   4.302 -0.1081  0.8548  0.3280
 3503TIP3    H231925   3.215   3.603   4.449  1.1292  1.2982  0.6409
 3504TIP3   OH231926   3.026   0.928   1.245  0.1620  0.1887  0.6563
 3504TIP3    H131927   3.026   0.991   1.318 -1.4195 -0.1838  1.0085
 3504TIP3    H231928   2.968   0.967   1.180  2.4691  1.0883 -0.9778
 3505TIP3   OH231929   0.063   1.582  16.900 -0.2481 -0.1819 -0.5901
 3505TIP3    H131930   0.147   1.626  16.889  0.4977 -1.9469 -2.8185
 3505TIP3    H231931   0.001   1.653  16.916  1.0729  1.5966 -2.7077
 3506TIP3   OH231932   2.341   6.186   1.682 -0.2309 -0.3839 -0.0159
 3506TIP3    H131933   2.320   6.131   1.758  1.0392  0.0832  0.7084
 3506TIP3    H231934   2.322   6.275   1.711 -0.2445 -0.2467 -0.4407
 3507TIP3   OH231935   0.743   6.763   4.384  0.5892 -0.0140  0.7829
 3507TIP3    H131936   0.742   6.692   4.320  0.6499 -0.9826  1.8282
 3507TIP3    H231937   0.701   6.836   4.339 -2.1945 -1.5737  0.6308
 3508TIP3   OH231938   1.006   5.343   5.175  0.4229 -0.0289  0.0121
 3508TIP3    H131939   0.911   5.353   5.173  0.5736  1.7499 -1.1354
 3508TIP3    H231940   1.023   5.284   5.248 -1.5919 -0.9144 -0.1759
 3509TIP3   OH231941   3.986   1.949  15.362 -0.4300 -0.7035  0.4944
 3509TIP3    H131942   4.040   2.003  15.304 -2.1092  1.4355  0.8203
 3509TIP3    H231943   4.048   1.887  15.401  1.8051  1.5641  0.8097
 3510TIP3   OH231944   4.827   5.735  12.160 -0.2957  0.1401  0.5411
 3510TIP3    H131945   4.913   5.776  12.160 -0.6693  0.9544 -0.1303
 3510TIP3    H231946   4.827   5.678  12.237  0.6884  0.4399  0.7716
 3511TIP3   OH231947   1.310   4.222   2.711  0.5834 -0.3165 -0.0141
 3511TIP3    H131948   1.353   4.178   2.784 -0.2758 -0.5100  0.3850
 3511TIP3    H231949   1.377   4.226   2.643  0.7528 -2.0345  0.0127
 3512TIP3   OH231950   6.188   6.446   4.431  0.7004 -0.4665 -0.1357
 3512TIP3    H131951   6.257   6.452   4.497 -0.2592  0.7644  0.8307
 3512TIP3    H231952   6.126   6.383   4.468  0.3016  0.0119  0.0270
 3513TIP3   OH231953   0.975   1.086   6.053  0.0901 -0.1781  0.7469
 3513TIP3    H131954   0.939   1.083   6.142  0.7963  0.0050  1.0393
 3513TIP3    H231955   1.069   1.077   6.065  0.3426  1.3369  0.1292
 3514TIP3   OH231956   5.986   6.429   2.197  0.4617  0.1095 -0.5164
 3514TIP3    H131957   6.042   6.353   2.208 -1.5009 -1.3727 -0.1847
 3514TIP3    H231958   5.934   6.432   2.278 -0.4820  0.9380 -1.1304
 3515TIP3   OH231959   4.090   5.813   4.751 -0.2345  0.6976  0.0340
 3515TIP3    H131960   4.036   5.881   4.711 -1.8182  1.2651  2.8063
 3515TIP3    H231961   4.132   5.857   4.825 -1.2807 -1.2299  1.8992
 3516TIP3   OH231962   6.665   6.660   2.139  0.3260 -0.3727  0.1417
 3516TIP3    H131963   6.727   6.627   2.074  0.0044  0.3365 -0.5408
 3516TIP3    H231964   6.613   6.725   2.092  1.5995  1.8825  1.6535
 3517TIP3   OH231965   0.550   6.251  12.840  0.1743 -0.1308 -0.2500
 3517TIP3    H131966   0.562   6.160  12.813  0.4824  0.7401 -3.3924
 3517TIP3    H231967   0.462   6.274  12.811 -0.2729  0.3796  1.3682
 3518TIP3   OH231968   1.006   0.606   4.825 -0.0144 -0.4081 -0.4187
 3518TIP3    H131969   0.966   0.552   4.757  0.8171  0.6152 -1.7661
 3518TIP3    H231970   1.070   0.548   4.868 -0.7369 -1.1371 -0.3059
 3519TIP3   OH231971   4.838   4.866  13.561  0.3891 -0.4665  0.3978
 3519TIP3    H131972   4.787   4.876  13.481  0.1511  0.7924  0.6725
 3519TIP3    H231973   4.773   4.866  13.631  0.6679 -0.2650  0.6630
 3520TIP3   OH231974   1.174   1.405  14.160  0.1440  0.4857 -0.5083
 3520TIP3    H131975   1.138   1.448  14.082  1.1554 -0.5389 -1.5968
 3520TIP3    H231976   1.247   1.461  14.186 -0.9282  1.4725  0.4627
 3521TIP3   OH231977   4.518   6.193  16.519  0.3797 -0.1972 -0.9625
 3521TIP3    H131978   4.425   6.189  16.541  0.0746 -1.0339 -2.2895
 3521TIP3    H231979   4.525   6.144  16.437  2.0331 -0.3544 -0.7550
 3522TIP3   OH231980   1.188   5.489  11.611  0.2065 -0.3884  0.0070
 3522TIP3    H131981   1.158   5.398  11.602  0.0121 -0.2876 -0.3857
 3522TIP3    H231982   1.109   5.537  11.636  0.1397 -0.2030 -0.5456
 3523TIP3   OH231983   3.311   1.759  13.971 -0.0920  0.0186 -0.3731
 3523TIP3    H131984   3.369   1.791  14.041 -0.2401  1.4682 -0.8681
 3523TIP3    H231985   3.274   1.678  14.006 -0.0055  0.5962  1.1625
 3524TIP3   OH231986   3.250   4.167  13.283 -0.0026  0.0539  0.1828
 3524TIP3    H131987   3.238   4.118  13.365 -1.7794  0.4211  0.1726
 3524TIP3    H231988   3.240   4.259  13.309  0.6332  0.2594 -0.2666
 3525TIP3   OH231989   2.973   5.068  13.888 -0.1042 -0.2083  0.0610
 3525TIP3    H131990   2.888   5.102  13.858 -0.6165 -0.7834  0.8204
 3525TIP3    H231991   3.005   5.133  13.949 -0.4769 -0.4589  0.5304
 3526TIP3   OH231992   2.092   2.270   5.037 -0.0474  0.5796  0.2692
 3526TIP3    H131993   2.119   2.277   5.129 -0.1940  0.3589  0.3275
 3526TIP3    H231994   2.055   2.356   5.017  1.5723  1.2447 -0.0912
 3527TIP3   OH231995   6.565   2.056   5.051  0.6729  0.5521  0.1974
 3527TIP3    H131996   6.649   2.078   5.092  0.9401 -0.4590  0.2330
 3527TIP3    H231997   6.499   2.091   5.111  1.0727  0.3229  0.7903
 3528TIP3   OH231998   1.771   2.931   5.256 -0.1491 -0.4135 -0.0389
 3528TIP3    H131999   1.770   2.840   5.286 -3.9823 -0.4588  0.0976
 3528TIP3    H232000   1.830   2.975   5.318 -1.2834 -2.0772  2.3913
 3529TIP3   OH232001   5.892   4.461  13.958  0.3591  0.1104 -0.3899
 3529TIP3    H132002   5.871   4.513  14.036 -1.1147 -0.6842 -0.2237
 3529TIP3    H232003   5.832   4.494  13.891  0.6849 -0.1265 -0.8001
 3530TIP3   OH232004   1.539   2.908   1.575  0.2092  0.3452 -0.2391
 3530TIP3    H132005   1.613   2.914   1.514  2.2291 -3.1663  1.5461
 3530TIP3    H232006   1.563   2.963   1.649  0.7870 -0.2846  0.0525
 3531TIP3   OH232007   6.698   0.051  15.551 -0.3866 -0.0493  0.0875
 3531TIP3    H132008   6.650   0.126  15.586 -0.5660  0.2741 -0.8164
 3531TIP3    H232009   6.784   0.056  15.593 -0.0358  1.2661 -0.6915
 3532TIP3   OH232010   2.409   0.312  15.164  0.0426  0.1670  0.2621
 3532TIP3    H132011   2.367   0.397  15.179 -2.3427 -0.8586 -0.1013
 3532TIP3    H232012   2.351   0.249  15.206  0.2887 -1.5371 -1.7658
 3533TIP3   OH232013   6.348   6.233  17.263 -0.8046 -0.0764 -0.4309
 3533TIP3    H132014   6.402   6.161  17.294 -1.1073 -0.5970 -1.0946
 3533TIP3    H232015   6.386   6.256  17.178  0.5535  1.9014  0.6211
 3534TIP3   OH232016   1.469   5.880  13.619  0.0240 -0.2300 -0.4778
 3534TIP3    H132017   1.503   5.814  13.680 -0.9648  0.5957  1.0314
 3534TIP3    H232018   1.530   5.878  13.545 -0.1776 -3.0640 -0.6703
 3535TIP3   OH232019   5.160   3.370  17.284 -0.7102  0.3945 -0.3987
 3535TIP3    H132020   5.252   3.394  17.270  0.4199 -2.0503  1.8288
 3535TIP3    H232021   5.119   3.449  17.320  0.9463  1.0720  0.0934
 3536TIP3   OH232022   6.188   2.615   3.013 -0.4529  0.3227 -0.3772
 3536TIP3    H132023   6.132   2.670   2.959 -0.4209 -0.1801 -0.9344
 3536TIP3    H232024   6.217   2.545   2.954  1.0805  0.7848 -0.2125
 3537TIP3   OH232025   6.031   4.688  17.126  0.0347 -0.7250 -0.4622
 3537TIP3    H132026   5.945   4.714  17.159 -0.1510 -0.2024 -1.3205
 3537TIP3    H232027   6.085   4.767  17.135  1.0898 -1.6323  2.1143
 3538TIP3   OH232028   3.381   1.658   3.069 -0.0165 -0.7796  0.1367
 3538TIP3    H132029   3.353   1.596   3.002  0.8376 -0.3386 -0.6441
 3538TIP3    H232030   3.471   1.633   3.089 -0.4915 -1.3932  1.7065
 3539TIP3   OH232031   1.913   0.715   2.664  0.0691  0.4028  1.0031
 3539TIP3    H132032   1.871   0.641   2.621 -3.2562  1.9819  1.1991
 3539TIP3    H232033   1.958   0.761   2.594 -0.6640 -0.0160  0.2377
 3540TIP3   OH232034   3.902   3.711  14.772  1.0100 -0.5659 -0.5857
 3540TIP3    H132035   3.938   3.660  14.700  1.9298 -2.0550  0.8599
 3540TIP3    H232036   3.811   3.729  14.746  1.2263 -1.3198 -1.9470
 3541TIP3   OH232037   3.711   2.193   1.965  0.2298 -0.3788  0.1628
 3541TIP3    H132038   3.759   2.130   1.911  0.8814  0.2913 -0.0511
 3541TIP3    H232039   3.625   2.153   1.977  0.4317 -1.0271 -0.4809
 3542TIP3   OH232040   4.085   4.485  14.776  0.1043  0.0819  0.2855
 3542TIP3    H132041   4.006   4.502  14.828  0.1795 -1.0075  0.7979
 3542TIP3    H232042   4.057   4.498  14.685 -0.9871 -1.2899  0.3827
 3543TIP3   OH232043   1.602   1.873  17.135 -0.5142  0.0555 -0.4508
 3543TIP3    H132044   1.551   1.805  17.179 -0.8799  0.6591  0.0705
 3543TIP3    H232045   1.692   1.838  17.135 -0.3204  0.4056  1.6218
 3544TIP3   OH232046   6.531   0.272   1.911  0.1817  0.0303  0.0253
 3544TIP3    H132047   6.572   0.359   1.907  0.9069 -0.3046 -0.0368
 3544TIP3    H232048   6.458   0.278   1.850 -0.3517  0.8841  0.7190
 3545TIP3   OH232049   2.431   2.267   5.402 -0.4108 -0.3721  0.1681
 3545TIP3    H132050   2.498   2.211   5.440  1.0331  0.8376 -0.4586
 3545TIP3    H232051   2.415   2.229   5.315 -0.4064 -0.5809  0.2590
 3546TIP3   OH232052   3.496   1.885   6.446  0.3291  0.7574  0.7617
 3546TIP3    H132053   3.499   1.792   6.425  2.5388  1.2993 -1.9464
 3546TIP3    H232054   3.406   1.899   6.478 -0.0547 -2.2405  1.3037
 3547TIP3   OH232055   3.089   6.416   0.125  0.3658  0.6807 -0.4844
 3547TIP3    H132056   3.152   6.488   0.127  1.2716 -0.0794 -0.6867
 3547TIP3    H232057   3.094   6.383   0.035  0.2805  0.0978 -0.2788
 3548TIP3   OH232058   0.587   2.021   4.942  0.1084 -0.4204  0.2101
 3548TIP3    H132059   0.500   2.047   4.974 -0.0005 -0.0894 -0.3432
 3548TIP3    H232060   0.623   2.100   4.902  0.8468 -0.4431  0.8114
 3549TIP3   OH232061   1.742   6.469  16.151 -0.3972 -0.0050  0.2571
 3549TIP3    H132062   1.714   6.460  16.060  1.4856 -2.6340 -0.2060
 3549TIP3    H232063   1.812   6.534  16.148  1.1254 -1.5677 -0.6906
 3550TIP3   OH232064   3.959   0.506  11.405 -0.5010  0.6229 -0.2365
 3550TIP3    H132065   3.896   0.521  11.475 -0.3605  0.7266 -0.1319
 3550TIP3    H232066   4.042   0.489  11.451 -0.1684  1.7718 -0.3910
 3551TIP3   OH232067   2.106   6.143   5.383 -0.2247 -0.0925 -0.4880
 3551TIP3    H132068   2.175   6.117   5.323 -1.6885 -1.9836 -1.4378
 3551TIP3    H232069   2.100   6.072   5.446 -2.5772 -0.9805 -1.5952
 3552TIP3   OH232070   0.764   1.850  16.148  0.4619 -0.0866 -0.2267
 3552TIP3    H132071   0.730   1.900  16.222  2.2415  0.4455  0.2853
 3552TIP3    H232072   0.747   1.905  16.071  1.3856  0.8136  0.1922
 3553TIP3   OH232073   4.268   5.717  15.925 -0.5938 -0.3290 -0.0508
 3553TIP3    H132074   4.227   5.764  15.998  0.0265 -2.2875  1.6518
 3553TIP3    H232075   4.247   5.770  15.848  0.8181  3.2172  1.7721
 3554TIP3   OH232076   0.775   3.935   2.449  0.1766 -0.1031  0.0441
 3554TIP3    H132077   0.725   3.888   2.517 -1.0625  1.4537  0.2728
 3554TIP3    H232078   0.711   3.952   2.380  0.9899 -0.0896 -0.7244
 3555TIP3   OH232079   1.777   1.647  16.816  0.0011 -0.1645  0.5848
 3555TIP3    H132080   1.828   1.679  16.890 -0.4954 -1.5768  1.5772
 3555TIP3    H232081   1.713   1.587  16.854 -1.4417  0.4206 -0.7960
 3556TIP3   OH232082   6.374   2.375   4.860 -0.4973 -0.6654 -0.0235
 3556TIP3    H132083   6.456   2.336   4.830 -0.2677 -2.2082  2.3495
 3556TIP3    H232084   6.400   2.460   4.897 -0.6767  0.8813 -3.1264
 3557TIP3   OH232085   4.633   6.748  11.805  0.1576 -0.0568 -0.3397
 3557TIP3    H132086   4.679   6.806  11.745 -1.0168 -0.8982 -2.1629
 3557TIP3    H232087   4.662   6.660  11.781  1.9108 -0.3350  2.3798
 3558TIP3   OH232088   5.173   4.800   4.920  0.4270 -0.7354  0.4797
 3558TIP3    H132089   5.265   4.784   4.941  0.9005  1.0546 -0.0392
 3558TIP3    H232090   5.170   4.797   4.824 -0.0380 -0.7669  0.4948
 3559TIP3   OH232091   3.102   1.549  13.108 -0.3279 -0.2682  0.5795
 3559TIP3    H132092   3.139   1.636  13.120 -0.4608 -0.1876  0.4081
 3559TIP3    H232093   3.112   1.532  13.014  1.7088 -1.3261  0.9166
 3560TIP3   OH232094   0.971   0.645   2.741 -0.2726  0.1041 -0.0128
 3560TIP3    H132095   0.970   0.557   2.702  0.1940  0.4809 -0.8833
 3560TIP3    H232096   1.011   0.701   2.675  0.4714  0.7752  0.9635
 3561TIP3   OH232097   0.937   5.336   1.011  0.7842 -0.0291 -0.0576
 3561TIP3    H132098   0.921   5.414   1.065  0.4006  0.4213 -0.7935
 3561TIP3    H232099   0.986   5.369   0.935 -1.3795 -0.0247 -1.5600
 3562TIP3   OH232100   5.059   0.303   3.896  0.0159  0.0465 -0.4964
 3562TIP3    H132101   5.047   0.277   3.987 -0.3365  0.3961 -0.4415
 3562TIP3    H232102   4.974   0.337   3.869  0.3027  0.5729 -0.7451
 3563TIP3   OH232103   5.862   1.231   4.711 -0.0715  0.1300  0.1596
 3563TIP3    H132104   5.914   1.153   4.729 -0.3678 -0.0368  0.3096
 3563TIP3    H232105   5.920   1.304   4.729 -0.1911 -0.0387  1.2594
 3564TIP3   OH232106   4.064   2.491  11.930  0.0970 -0.4622 -0.7025
 3564TIP3    H132107   4.120   2.428  11.884  1.4302 -0.9359  1.4244
 3564TIP3    H232108   4.114   2.515  12.008 -1.4933  1.3010 -0.1602
 3565TIP3   OH232109   2.183   5.981  15.094 -0.4240 -0.7731 -0.1601
 3565TIP3    H132110   2.165   5.921  15.167  0.1981 -0.5033  0.2235
 3565TIP3    H232111   2.114   6.046  15.099  1.8394  1.7202  2.8633
 3566TIP3   OH232112   1.587   2.779  11.969  0.3773 -0.0088 -0.6638
 3566TIP3    H132113   1.612   2.695  12.008  0.3408  0.7067  0.9537
 3566TIP3    H232114   1.641   2.843  12.014 -1.8400  1.1941  0.4623
 3567TIP3   OH232115   5.015   1.319  16.739  0.0033 -0.1213  0.1472
 3567TIP3    H132116   5.084   1.311  16.805 -0.5437  0.6703  0.8243
 3567TIP3    H232117   4.993   1.412  16.738  0.6747  0.0831 -1.8549
 3568TIP3   OH232118   2.596   2.759  14.994 -0.3621  0.7091  0.1886
 3568TIP3    H132119   2.656   2.748  15.067  0.1362 -0.2075 -0.3388
 3568TIP3    H232120   2.509   2.753  15.034 -0.1020  0.7865  0.7801
 3569TIP3   OH232121   5.615   3.771  12.776  0.8044 -0.0683  0.2494
 3569TIP3    H132122   5.554   3.831  12.820  0.6966  0.8478 -1.0855
 3569TIP3    H232123   5.701   3.795  12.810  0.9436  1.8578 -1.2652
 3570TIP3   OH232124   2.708   0.389  11.799 -0.5304 -0.4862 -0.5935
 3570TIP3    H132125   2.782   0.375  11.858 -0.2327  0.7161 -0.6514
 3570TIP3    H232126   2.684   0.481  11.813 -0.2101 -0.0449 -2.6078
 3571TIP3   OH232127   3.687   3.612   0.087  0.0275  0.7130  0.3064
 3571TIP3    H132128   3.747   3.574   0.023 -1.2861 -0.7181 -0.1384
 3571TIP3    H232129   3.617   3.651   0.034 -0.4374  0.6108  0.8328
 3572TIP3   OH232130   1.962   5.394  11.432 -0.1562  0.7375  0.5711
 3572TIP3    H132131   2.001   5.404  11.345 -1.6063  2.8065  0.0777
 3572TIP3    H232132   1.890   5.457  11.433 -3.1636 -2.4372  1.6373
 3573TIP3   OH232133   1.908   0.424   2.136 -0.2138  0.5384 -0.4576
 3573TIP3    H132134   1.834   0.388   2.184  0.1556 -0.1558 -0.3954
 3573TIP3    H232135   1.888   0.405   2.044  0.0785 -0.0247 -0.4094
 3574TIP3   OH232136   3.163   2.051  15.227  0.0712 -1.1069  0.3093
 3574TIP3    H132137   3.112   1.970  15.237  1.6705 -1.9785  1.9541
 3574TIP3    H232138   3.247   2.023  15.191  0.8239 -0.2928  1.3311
 3575TIP3   OH232139   4.934   6.159  13.493 -0.1513  0.0892 -0.2700
 3575TIP3    H132140   4.887   6.243  13.496 -1.2073 -0.4208 -1.4539
 3575TIP3    H232141   4.877   6.102  13.441  1.4770 -0.7809 -1.1707
 3576TIP3   OH232142   1.023   3.005   4.703 -0.1538 -0.5033  0.2056
 3576TIP3    H132143   1.107   2.967   4.678  0.0176  0.7586 -1.3130
 3576TIP3    H232144   0.969   2.997   4.625 -1.0599 -0.2445  0.7879
 3577TIP3   OH232145   0.123   4.199  13.276 -0.3434 -0.2178 -0.4422
 3577TIP3    H132146   0.140   4.221  13.367 -0.5358 -1.8721  0.0303
 3577TIP3    H232147   0.195   4.141  13.251 -0.7689 -0.4953 -1.0641
 3578TIP3   OH232148   0.542   1.037  11.899  0.2900 -0.0336  0.0192
 3578TIP3    H132149   0.488   1.100  11.946  1.8235  0.5035  1.1608
 3578TIP3    H232150   0.632   1.059  11.924  0.9498 -2.0076 -0.3745
 3579TIP3   OH232151   3.302   5.030  13.238 -0.7480 -0.6091  0.0219
 3579TIP3    H132152   3.264   4.961  13.292 -0.1769 -0.3915  0.7219
 3579TIP3    H232153   3.255   5.109  13.263 -0.4916 -0.5101  0.1952
 3580TIP3   OH232154   3.361   6.166   1.950 -0.8193 -0.4833 -0.4717
 3580TIP3    H132155   3.267   6.163   1.931 -0.4855 -2.5397 -2.2320
 3580TIP3    H232156   3.371   6.112   2.028 -1.1694  0.5600  0.3251
 3581TIP3   OH232157   2.032   4.276  11.769  0.1096  0.4372  0.3869
 3581TIP3    H132158   2.005   4.297  11.858  1.9368  0.1852  1.0404
 3581TIP3    H232159   2.031   4.361  11.723  0.1831  0.7459  0.9507
 3582TIP3   OH232160   4.743   6.630  15.876  0.0170  0.1500  0.2481
 3582TIP3    H132161   4.828   6.590  15.861 -1.0073 -2.0035 -0.3074
 3582TIP3    H232162   4.759   6.697  15.942  2.1607 -0.0092 -0.0332
 3583TIP3   OH232163   4.884   1.808  15.635 -0.9102 -1.1915 -0.3723
 3583TIP3    H132164   4.825   1.835  15.564 -0.1119  3.0062  0.3084
 3583TIP3    H232165   4.825   1.788  15.708 -1.6105  0.0830 -0.5635
 3584TIP3   OH232166   4.144   5.575  16.915 -0.1422  0.0166  0.2084
 3584TIP3    H132167   4.111   5.509  16.853 -0.3124 -0.4297  0.7683
 3584TIP3    H232168   4.070   5.591  16.974  0.0445  0.3867  0.3409
 3585TIP3   OH232169   0.051   4.208  11.978 -0.3008  0.4690 -0.1666
 3585TIP3    H132170  -0.032   4.249  12.001  0.1846  1.0771  0.5583
 3585TIP3    H232171   0.104   4.279  11.940  0.1532  0.2606  0.0625
 3586TIP3   OH232172   5.618   3.748  16.808  0.0417  0.1126 -0.0978
 3586TIP3    H132173   5.671   3.706  16.876 -0.1319  1.4701  0.9247
 3586TIP3    H232174   5.542   3.691  16.798  0.2637 -0.3091  0.5676
 3587TIP3   OH232175   3.586   3.662   1.865 -0.0402 -0.2377  0.3685
 3587TIP3    H132176   3.502   3.629   1.897 -1.0331  0.5024 -1.4015
 3587TIP3    H232177   3.579   3.660   1.770  2.1527 -0.6356  0.1459
 3588TIP3   OH232178   5.532   5.410  15.836 -0.7040 -0.3276  0.1911
 3588TIP3    H132179   5.545   5.316  15.848  0.6121 -0.0211  1.3643
 3588TIP3    H232180   5.571   5.451  15.913 -0.1672  1.2621 -0.8593
 3589TIP3   OH232181   2.542   5.676   5.488  0.5410 -0.6486 -0.0341
 3589TIP3    H132182   2.627   5.651   5.525  0.1936 -0.9253  0.5835
 3589TIP3    H232183   2.529   5.615   5.416  1.2878 -0.0122 -0.7303
 3590TIP3   OH232184   2.720   3.602  11.488  0.6964 -0.2387  0.0999
 3590TIP3    H132185   2.705   3.637  11.400 -1.4079 -0.1644  0.4368
 3590TIP3    H232186   2.800   3.550  11.480  2.3329  2.2721 -1.0938
 3591TIP3   OH232187   0.235   4.541  15.412 -0.0481 -0.2342 -0.0550
 3591TIP3    H132188   0.234   4.445  15.409  2.5142 -0.3545  0.2609
 3591TIP3    H232189   0.327   4.563  15.426 -0.0938  2.3401 -2.7706
 3592TIP3   OH232190   0.586   4.816  11.150 -0.4525 -0.0445  0.4447
 3592TIP3    H132191   0.530   4.782  11.080  1.0874 -1.8351  0.0086
 3592TIP3    H232192   0.651   4.870  11.105 -1.4644  1.6437  0.9049
 3593TIP3   OH232193   1.832   1.661   3.760  0.3369  0.2329  0.4567
 3593TIP3    H132194   1.739   1.676   3.775  0.0352 -0.5311 -0.4998
 3593TIP3    H232195   1.847   1.572   3.791  0.1006 -0.6771 -1.8444
 3594TIP3   OH232196   2.730   5.742   3.131  0.1367  0.2293 -0.4165
 3594TIP3    H132197   2.805   5.742   3.190  0.1580 -2.2765 -0.3452
 3594TIP3    H232198   2.693   5.830   3.139  2.5899  1.2989  0.1059
 3595TIP3   OH232199   4.769   1.896   0.301 -0.4940 -0.0794  0.7121
 3595TIP3    H132200   4.859   1.897   0.332 -0.5835 -0.9315  1.0161
 3595TIP3    H232201   4.716   1.913   0.379 -0.6930 -1.6969  0.9543
 3596TIP3   OH232202   3.982   5.152   1.879  0.0955 -0.1795 -0.3670
 3596TIP3    H132203   4.042   5.143   1.805 -1.6981 -1.8598 -1.7294
 3596TIP3    H232204   3.950   5.242   1.873  1.8428  0.5068 -0.0488
 3597TIP3   OH232205   3.033   1.265   6.018  0.4329  0.5652 -0.1366
 3597TIP3    H132206   2.963   1.267   6.083  0.4827 -0.4783 -0.0408
 3597TIP3    H232207   3.109   1.233   6.065  0.6302  0.4040 -0.5657
 3598TIP3   OH232208   4.139   3.300  10.474  0.4276 -0.3358 -0.0439
 3598TIP3    H132209   4.177   3.272  10.557  2.7766 -1.0717 -1.2573
 3598TIP3    H232210   4.054   3.257  10.471  0.8507 -1.3727  1.4028
 3599TIP3   OH232211   6.026   3.896   5.925  0.2097 -0.1628 -0.2938
 3599TIP3    H132212   5.933   3.885   5.908  0.3136 -0.0173 -1.0121
 3599TIP3    H232213   6.035   3.885   6.020 -0.5129 -0.3130 -0.2361
 3600TIP3   OH232214   1.454   2.735  13.317  0.3233 -0.0420  0.0886
 3600TIP3    H132215   1.476   2.653  13.273  0.7113 -0.0709  0.3307
 3600TIP3    H232216   1.534   2.786  13.315  0.9135 -0.7541  2.3133
 3601TIP3   OH232217   6.597   3.774  15.405  0.0173 -0.3702  0.2240
 3601TIP3    H132218   6.606   3.830  15.482 -0.1056  1.6333 -1.1662
 3601TIP3    H232219   6.503   3.770  15.389  0.0772 -0.3576 -0.1312
 3602TIP3   OH232220   5.055   5.803   2.373  0.0949 -0.2733  0.1125
 3602TIP3    H132221   4.963   5.804   2.398 -0.1662  0.7325 -0.7966
 3602TIP3    H232222   5.092   5.881   2.414  0.2075  0.0880 -0.6654
 3603TIP3   OH232223   0.737   0.855  14.797 -0.4082  0.0987 -0.5693
 3603TIP3    H132224   0.764   0.833  14.708  1.1751  0.0734 -0.1185
 3603TIP3    H232225   0.654   0.810  14.810 -0.8594  0.4269 -2.1594
 3604TIP3   OH232226   0.200   2.249   5.695 -0.2103  0.2457 -0.2222
 3604TIP3    H132227   0.251   2.169   5.708  1.0392  1.2726  1.6185
 3604TIP3    H232228   0.263   2.319   5.709 -1.4046  1.5908 -1.2802
 3605TIP3   OH232229   3.641   1.989  15.752  0.2092 -0.1891  0.1938
 3605TIP3    H132230   3.701   2.021  15.684  0.2029  0.7255  0.6053
 3605TIP3    H232231   3.603   2.068  15.789 -0.3015 -0.7131  0.8053
 3606TIP3   OH232232   1.126   1.836   1.234 -0.5870  0.5113  0.0581
 3606TIP3    H132233   1.193   1.825   1.165  0.2663 -0.3591  0.9934
 3606TIP3    H232234   1.080   1.752   1.236  1.4177 -0.6484  2.5774
 3607TIP3   OH232235   4.463   4.479  10.961 -0.0591  0.2573  0.1206
 3607TIP3    H132236   4.419   4.467  10.877  0.6769 -0.0158 -0.2369
 3607TIP3    H232237   4.505   4.395  10.978 -0.5184  0.1890  0.9580
 3608TIP3   OH232238   4.766   5.030  16.930  0.3590 -0.4135  0.9023
 3608TIP3    H132239   4.768   4.945  16.974 -0.0001 -0.2698  1.2056
 3608TIP3    H232240   4.770   5.094  17.002 -1.2437 -0.1679  0.8241
 3609TIP3   OH232241   4.893   4.358   3.000  0.8660 -0.1350  0.1634
 3609TIP3    H132242   4.975   4.337   2.956  1.3970 -1.7367  1.8271
 3609TIP3    H232243   4.915   4.432   3.057  0.6917  0.5430 -0.6139
 3610TIP3   OH232244   5.176   0.476   2.311  0.5289  0.2535 -0.1238
 3610TIP3    H132245   5.097   0.424   2.321  0.7017  0.0668  0.2995
 3610TIP3    H232246   5.229   0.427   2.248  0.6933 -0.0931  0.2791
 3611TIP3   OH232247   4.633   4.269  11.446  0.0195  0.3809  0.5354
 3611TIP3    H132248   4.698   4.276  11.376 -1.0792  0.8241 -0.4751
 3611TIP3    H232249   4.655   4.187  11.490 -0.5304 -1.0400 -1.6691
 3612TIP3   OH232250   6.377   2.871  15.871 -0.0472  0.1971  0.2880
 3612TIP3    H132251   6.379   2.963  15.846 -1.1003 -0.2078 -1.4677
 3612TIP3    H232252   6.323   2.869  15.951  0.5440  1.1547  0.7270
 3613TIP3   OH232253   2.821   5.803  13.551  0.1221  0.0355 -0.5113
 3613TIP3    H132254   2.906   5.837  13.524 -0.1305  1.2654  0.1660
 3613TIP3    H232255   2.763   5.823  13.476  0.0802  0.7179 -0.3083
 3614TIP3   OH232256   0.368   2.007  10.536 -0.1233  0.8050 -0.3874
 3614TIP3    H132257   0.317   2.073  10.583  1.0393  1.3532  0.1494
 3614TIP3    H232258   0.302   1.949  10.497 -1.1628  0.7062  1.3827
 3615TIP3   OH232259   6.004   1.516  14.931  0.3679 -0.0399  0.1418
 3615TIP3    H132260   6.029   1.424  14.939  1.5095  0.3401  1.2081
 3615TIP3    H232261   5.909   1.514  14.924  0.4869 -1.4314 -2.2254
 3616TIP3   OH232262   4.929   2.188   0.858 -0.5156  0.8029  0.6274
 3616TIP3    H132263   4.965   2.105   0.826 -1.0108  0.4983  0.8488
 3616TIP3    H232264   4.999   2.252   0.842  0.5472  0.0521  1.9961
 3617TIP3   OH232265   4.587   2.910   5.769  0.2437  0.0815 -0.1083
 3617TIP3    H132266   4.575   2.986   5.826 -0.6928 -0.9226  1.0717
 3617TIP3    H232267   4.500   2.873   5.758  0.7664 -1.2711 -0.0034
 3618TIP3   OH232268   4.825   1.694  12.052 -0.2918  0.2556 -0.2482
 3618TIP3    H132269   4.831   1.703  12.147  0.4530  1.1958 -0.3728
 3618TIP3    H232270   4.731   1.701  12.034 -0.4004  0.5413  0.3717
 3619TIP3   OH232271   4.692   4.882  13.936 -0.2748  0.3045  0.4496
 3619TIP3    H132272   4.770   4.937  13.947  1.3740 -1.9960  1.1135
 3619TIP3    H232273   4.718   4.797  13.972 -1.7046 -1.7286 -2.8502
 3620TIP3   OH232274   5.801   0.274   0.466  0.6645  0.3661  0.4099
 3620TIP3    H132275   5.785   0.184   0.495  0.1922  0.1318 -0.5374
 3620TIP3    H232276   5.865   0.266   0.396  0.3276  0.7291  0.0540
 3621TIP3   OH232277   6.593   4.748  16.114 -0.1907 -0.2131  0.1789
 3621TIP3    H132278   6.627   4.777  16.030 -0.2859  1.5996  0.7212
 3621TIP3    H232279   6.519   4.806  16.132  0.2476 -0.1013  1.8087
 3622TIP3   OH232280   0.572   1.954   4.083 -0.4294  0.3261 -0.2009
 3622TIP3    H132281   0.651   2.008   4.075 -0.8136  0.8098 -0.8472
 3622TIP3    H232282   0.500   2.017   4.078 -0.8944 -0.2613 -1.1508
 3623TIP3   OH232283   3.406   1.143   4.144 -0.0351  0.2288  0.0075
 3623TIP3    H132284   3.416   1.227   4.100  0.9726  0.3750  0.4733
 3623TIP3    H232285   3.480   1.139   4.205 -0.3714 -0.7591  0.3758
 3624TIP3   OH232286   1.453   6.449   5.100  0.5059  0.0016 -0.0199
 3624TIP3    H132287   1.449   6.429   5.006  1.9986  0.2487 -0.1583
 3624TIP3    H232288   1.453   6.545   5.104 -3.2246  0.1386  0.4733
 3625TIP3   OH232289   5.928   4.075  11.806  0.0610  0.4171 -0.3588
 3625TIP3    H132290   5.982   4.154  11.812 -0.7877  0.9447  1.0731
 3625TIP3    H232291   5.935   4.035  11.893 -1.3900  0.2233 -0.3011
 3626TIP3   OH232292   0.368   6.516  16.990 -0.3011  0.7998  0.2933
 3626TIP3    H132293   0.440   6.579  16.996  1.5296 -1.1829  0.1855
 3626TIP3    H232294   0.387   6.465  16.911 -0.7794 -0.9922  1.2739
 3627TIP3   OH232295   1.349   5.333  12.613 -0.0570 -0.4224  0.8397
 3627TIP3    H132296   1.319   5.246  12.588 -0.0317 -0.2446  0.1764
 3627TIP3    H232297   1.444   5.331  12.598 -0.0093 -0.3777  1.1242
 3628TIP3   OH232298   4.596   0.382   6.723  0.2543  0.2139 -0.5045
 3628TIP3    H132299   4.643   0.427   6.652 -0.3421  0.6716 -0.6127
 3628TIP3    H232300   4.564   0.452   6.779 -0.6860 -0.0688 -0.6754
 3629TIP3   OH232301   3.456   1.579   3.627  0.1611 -0.2193  0.5313
 3629TIP3    H132302   3.460   1.485   3.645 -1.6846 -0.1571  1.5823
 3629TIP3    H232303   3.421   1.618   3.708  1.1758  1.4320  0.2376
 3630TIP3   OH232304   5.600   3.565   6.200  0.6738  0.0601  0.3400
 3630TIP3    H132305   5.524   3.507   6.209  0.6597 -0.2383 -1.3113
 3630TIP3    H232306   5.584   3.635   6.262 -0.9555 -0.0195  0.0585
 3631TIP3   OH232307   0.086   4.218   1.841  0.2519 -0.0081 -0.2286
 3631TIP3    H132308   0.135   4.293   1.808 -1.9903  0.9029 -1.7466
 3631TIP3    H232309  -0.006   4.241   1.825 -0.6441 -2.0092  1.5990
 3632TIP3   OH232310   4.059   2.237   3.852 -0.1076  0.5832 -0.1195
 3632TIP3    H132311   4.009   2.212   3.930 -1.3308  1.1944 -0.6928
 3632TIP3    H232312   4.150   2.224   3.878 -0.5571 -1.8516  0.5096
 3633TIP3   OH232313   5.845   1.813  14.955  0.2741  0.1810  0.8156
 3633TIP3    H132314   5.808   1.737  15.000  0.7085 -0.1233  0.6673
 3633TIP3    H232315   5.807   1.811  14.868  2.6915 -1.7732 -0.3398
 3634TIP3   OH232316   0.371   0.152   0.875  0.8392 -0.4375 -0.0409
 3634TIP3    H132317   0.384   0.243   0.902  0.0834 -0.1968 -0.4461
 3634TIP3    H232318   0.457   0.112   0.881  1.3063  0.4765 -0.4925
 3635TIP3   OH232319   6.270   5.396   1.460 -0.1595  0.2756  0.6594
 3635TIP3    H132320   6.317   5.471   1.497  1.5573 -0.2141 -0.4202
 3635TIP3    H232321   6.229   5.431   1.381 -1.6419  0.6938  1.5808
 3636TIP3   OH232322   2.519   0.420  11.258 -0.3712 -0.5729  0.3716
 3636TIP3    H132323   2.488   0.333  11.282 -0.3202 -1.2286 -1.7167
 3636TIP3    H232324   2.613   0.418  11.273 -0.6763 -0.0391  2.5924
 3637TIP3   OH232325   5.413   1.420  12.746  0.0096 -0.2981  0.1720
 3637TIP3    H132326   5.340   1.482  12.745  0.4056  0.3985 -4.3586
 3637TIP3    H232327   5.487   1.471  12.779 -0.8281 -0.1419  1.9298
 3638TIP3   OH232328   5.511   2.395  13.820 -0.1806  0.1081  0.3100
 3638TIP3    H132329   5.577   2.407  13.888 -0.0685  0.6556  0.1150
 3638TIP3    H232330   5.557   2.348  13.750  0.1297  0.8458  0.0038
 3639TIP3   OH232331   0.394   1.339  15.668  0.0421  0.2102  0.3408
 3639TIP3    H132332   0.483   1.371  15.671 -0.6403  2.5978 -1.7464
 3639TIP3    H232333   0.360   1.353  15.756  1.7012 -0.8512  1.1915
 3640TIP3   OH232334   3.556   5.138   1.565  0.2118 -0.0381 -0.2953
 3640TIP3    H132335   3.621   5.205   1.586 -0.1060  0.3711 -0.5953
 3640TIP3    H232336   3.566   5.123   1.471 -0.8167  0.7908 -0.5658
 3641TIP3   OH232337   5.295   1.356  14.142  0.0528 -0.6048  0.3460
 3641TIP3    H132338   5.241   1.337  14.219  0.0517  0.5235  0.6520
 3641TIP3    H232339   5.233   1.393  14.079  0.2987 -0.1773  0.3531
 3642TIP3   OH232340   3.234   0.691   3.400  0.1997  0.9326 -0.1384
 3642TIP3    H132341   3.251   0.784   3.413  1.5069  0.6366  0.5413
 3642TIP3    H232342   3.139   0.683   3.397  0.0940  2.3928 -1.1316
 3643TIP3   OH232343   4.991   5.577   5.215  0.3152  0.4439  0.4056
 3643TIP3    H132344   5.026   5.597   5.129  0.8479 -1.4551  0.1377
 3643TIP3    H232345   4.911   5.630   5.221  0.6250  1.1119 -0.9575
 3644TIP3   OH232346   0.689   0.638  16.527 -0.0087 -0.2105  0.2661
 3644TIP3    H132347   0.662   0.555  16.488  1.7207 -0.1385 -1.2151
 3644TIP3    H232348   0.762   0.615  16.585 -0.9324  0.0146  1.5416
 3645TIP3   OH232349   5.034   3.002  15.650  0.3092 -0.4012  0.1393
 3645TIP3    H132350   5.115   2.954  15.673  0.1989  0.0474  1.5779
 3645TIP3    H232351   4.968   2.966  15.710 -0.5259 -0.6234 -0.8970
 3646TIP3   OH232352   0.039   1.766  12.149  0.3988  0.3099  0.2818
 3646TIP3    H132353   0.084   1.847  12.123 -0.6146  0.9209  0.3693
 3646TIP3    H232354  -0.052   1.780  12.124  0.4994 -1.5579 -1.3655
 3647TIP3   OH232355   2.009   3.079   1.609 -0.7862  0.3683 -0.1363
 3647TIP3    H132356   2.086   3.034   1.575  0.5775  0.9594  1.9939
 3647TIP3    H232357   2.017   3.169   1.576 -0.2819  0.5506  0.4605
 3648TIP3   OH232358   4.451   1.157   4.593 -0.1463 -0.7614  0.0045
 3648TIP3    H132359   4.431   1.158   4.686  0.8363  0.2175  0.2235
 3648TIP3    H232360   4.366   1.164   4.550 -0.4619  1.4556  0.8720
 3649TIP3   OH232361   4.514   4.229  11.129 -0.1503 -0.1524  0.0464
 3649TIP3    H132362   4.553   4.161  11.075 -1.1239  1.4335 -2.9270
 3649TIP3    H232363   4.588   4.274  11.170  1.0792  0.8928 -3.0256
 3650TIP3   OH232364   5.367   1.202   3.000  0.1092 -0.7923  0.0607
 3650TIP3    H132365   5.386   1.200   3.094 -2.7050  2.0540  0.8336
 3650TIP3    H232366   5.293   1.142   2.990  0.1922 -0.8352 -0.3022
 3651TIP3   OH232367   3.528   6.269   4.906  0.5082 -0.6062  0.3923
 3651TIP3    H132368   3.590   6.342   4.906 -0.2418  0.0673 -0.5006
 3651TIP3    H232369   3.480   6.279   4.824 -0.7018 -1.1679  1.0038
 3652TIP3   OH232370   2.286   5.410   4.450 -0.5320 -0.2241  0.8263
 3652TIP3    H132371   2.314   5.342   4.389 -1.0107  1.0000 -0.8140
 3652TIP3    H232372   2.191   5.412   4.442 -0.4863  1.0200  0.4038
 3653TIP3   OH232373   0.698   4.894  14.780  0.0329 -0.6922  0.2067
 3653TIP3    H132374   0.712   4.920  14.871 -0.8086  1.8529 -0.3264
 3653TIP3    H232375   0.756   4.951  14.729 -0.4313 -1.2181 -0.9587
 3654TIP3   OH232376   6.355   5.592  12.635  0.4582 -0.1457  0.4502
 3654TIP3    H132377   6.338   5.625  12.723  0.6802 -0.9144  0.7932
 3654TIP3    H232378   6.292   5.637  12.579 -0.8658 -0.9140  1.2723
 3655TIP3   OH232379   4.278   4.065  11.172  0.6084  0.0948 -0.3051
 3655TIP3    H132380   4.357   4.117  11.154  0.4435  1.1536  1.7184
 3655TIP3    H232381   4.206   4.123  11.149  0.4203 -0.2227 -0.5112
 3656TIP3   OH232382   6.187   4.417   0.727  0.4777  0.1323  0.0730
 3656TIP3    H132383   6.232   4.353   0.782  0.4476  0.4563  0.4810
 3656TIP3    H232384   6.099   4.380   0.715  0.0813  0.6469  1.2830
 3657TIP3   OH232385   2.169   6.231  15.692 -0.2732 -0.1026  0.2905
 3657TIP3    H132386   2.191   6.169  15.623 -0.3273 -1.1985  1.2121
 3657TIP3    H232387   2.245   6.288  15.698 -0.8849  1.0020 -1.6751
 3658TIP3   OH232388   1.501   2.171  11.837 -0.1541 -0.4739  0.0598
 3658TIP3    H132389   1.573   2.125  11.794  0.6464 -0.6492  1.5541
 3658TIP3    H232390   1.543   2.234  11.895 -1.2324  0.6044 -0.2852
 3659TIP3   OH232391   5.678   6.379  15.254 -0.0611 -0.3431 -0.1105
 3659TIP3    H132392   5.672   6.341  15.342 -1.1708  1.4455  0.6343
 3659TIP3    H232393   5.769   6.407  15.247 -0.0125 -0.2938  0.5709
 3660TIP3   OH232394   1.621   0.566  17.245 -0.0132 -0.3054  0.6626
 3660TIP3    H132395   1.660   0.502  17.185 -0.3105 -0.4315  0.6005
 3660TIP3    H232396   1.597   0.515  17.322 -1.9475 -0.6598 -0.1113
 3661TIP3   OH232397   3.512   4.113  16.282  0.7551  0.1180 -0.1248
 3661TIP3    H132398   3.561   4.131  16.202 -1.4180  1.1278 -1.2911
 3661TIP3    H232399   3.422   4.101  16.253  0.1322 -0.8642  2.0387
 3662TIP3   OH232400   1.043   4.605   2.304  0.1208 -0.0988  0.1888
 3662TIP3    H132401   1.069   4.517   2.333  3.7197  1.0783  1.0116
 3662TIP3    H232402   1.049   4.602   2.208  0.3899 -0.7082  0.2222
 3663TIP3   OH232403   0.452   5.402  12.505  0.0450  0.4898 -0.2177
 3663TIP3    H132404   0.494   5.467  12.448 -2.0634  0.6780 -1.6656
 3663TIP3    H232405   0.468   5.318  12.462  1.1821  0.2108  0.6799
 3664TIP3   OH232406   2.825   4.021   4.981  0.0482  0.1023  0.8235
 3664TIP3    H132407   2.907   4.050   4.939 -0.2476 -2.1654 -1.6019
 3664TIP3    H232408   2.854   3.972   5.058  0.8692  0.7167  0.9276
 3665TIP3   OH232409   3.849   3.761  16.022  0.0065  0.0697  0.1144
 3665TIP3    H132410   3.925   3.812  16.051 -0.3688  0.1752  0.9375
 3665TIP3    H232411   3.774   3.818  16.039 -0.3166 -0.3014 -0.0679
 3666TIP3   OH232412   2.424   1.710  15.137  0.2151  0.1021  0.3133
 3666TIP3    H132413   2.364   1.686  15.208 -1.2120 -0.4290 -1.0319
 3666TIP3    H232414   2.467   1.627  15.114 -1.2524 -0.2987 -1.1589
 3667TIP3   OH232415   6.152   2.694   5.668  0.4994 -0.3742 -0.1250
 3667TIP3    H132416   6.182   2.735   5.587  2.8258  0.5857  1.1346
 3667TIP3    H232417   6.134   2.767   5.727 -3.1328 -0.9520 -0.2721
 3668TIP3   OH232418   4.245   1.348   3.737 -0.3967  0.0200  0.4237
 3668TIP3    H132419   4.174   1.342   3.674 -0.2476 -1.1391  0.3518
 3668TIP3    H232420   4.252   1.442   3.756 -2.4488  0.0934  1.0243
 3669TIP3   OH232421   4.525   1.885   4.640 -0.4956 -0.0857  0.6865
 3669TIP3    H132422   4.448   1.879   4.583 -0.1213 -0.7673  0.2343
 3669TIP3    H232423   4.576   1.807   4.618 -0.2169 -0.2213  1.7769
 3670TIP3   OH232424   6.530   0.050  17.102 -0.7145 -0.3576 -0.4310
 3670TIP3    H132425   6.482   0.001  17.170 -1.1462 -0.6321 -0.9261
 3670TIP3    H232426   6.513   0.142  17.122 -0.4892 -0.4259  0.0834
 3671TIP3   OH232427   0.950   6.531  13.057 -0.1099 -0.0392  0.1261
 3671TIP3    H132428   1.015   6.521  12.987  1.4691 -1.1661  1.6353
 3671TIP3    H232429   0.875   6.478  13.028  0.3314 -0.1234 -0.9057
 3672TIP3   OH232430   4.411   2.065  15.257 -0.3099  0.2114 -0.0372
 3672TIP3    H132431   4.319   2.069  15.230 -0.4144  2.7226  0.4251
 3672TIP3    H232432   4.448   2.148  15.227  1.4167 -0.0766  1.1616
 3673TIP3   OH232433   5.618   3.018   6.034  0.3027 -0.1520 -0.1448
 3673TIP3    H132434   5.569   2.936   6.025  0.5571 -0.3206 -0.0210
 3673TIP3    H232435   5.658   3.031   5.948 -1.4934  0.9981 -0.8686
 3674TIP3   OH232436   3.178   0.887  14.475 -0.3332  0.4560 -0.3195
 3674TIP3    H132437   3.259   0.891  14.526 -0.4824  0.2003 -0.0552
 3674TIP3    H232438   3.199   0.830  14.401 -0.2833  0.3596 -0.2305
 3675TIP3   OH232439   2.592   3.962   2.210  0.6528 -0.4386  0.2275
 3675TIP3    H132440   2.547   3.957   2.126  3.7979 -1.5339 -1.5436
 3675TIP3    H232441   2.624   4.053   2.215 -0.5866 -0.0086  0.9202
 3676TIP3   OH232442   1.480   4.912  14.577 -0.1957 -0.4171  0.3489
 3676TIP3    H132443   1.429   4.841  14.616 -0.6620  0.5439  1.5698
 3676TIP3    H232444   1.450   4.916  14.486 -0.1114 -1.8081  0.2452
 3677TIP3   OH232445   4.475   4.918  10.662  0.1314  0.3114  0.6093
 3677TIP3    H132446   4.414   4.908  10.589  0.1624 -0.9747  0.7392
 3677TIP3    H232447   4.490   5.012  10.668 -2.2968  0.7280  0.9539
 3678TIP3   OH232448   1.622   0.528   4.031  0.0443 -0.4687 -0.3695
 3678TIP3    H132449   1.701   0.536   4.085 -0.7087 -1.5525  0.9647
 3678TIP3    H232450   1.651   0.550   3.943  2.0488 -1.7022 -0.0781
 3679TIP3   OH232451   4.833   1.416  15.004  0.2868  0.7436 -0.6025
 3679TIP3    H132452   4.829   1.361  15.082 -0.0277  0.5368 -0.7604
 3679TIP3    H232453   4.893   1.487  15.027  0.0155  0.8137 -0.0906
 3680TIP3   OH232454   3.641   0.727   1.939 -0.0825 -0.4404 -0.1997
 3680TIP3    H132455   3.626   0.669   2.013 -0.0720 -1.9530 -1.3333
 3680TIP3    H232456   3.576   0.700   1.874 -0.2033  0.9659 -0.6915
 3681TIP3   OH232457   2.246   3.022   1.469  0.6400  0.1873  0.2256
 3681TIP3    H132458   2.308   3.010   1.398  0.2838 -0.5419  0.0292
 3681TIP3    H232459   2.300   3.040   1.546  1.0218  1.0768 -0.2375
 3682TIP3   OH232460   2.427   0.682  17.247  0.2956  0.4657  0.0803
 3682TIP3    H132461   2.382   0.762  17.271 -0.2784 -0.3474  1.8070
 3682TIP3    H232462   2.360   0.614  17.250  0.2514  0.1505 -3.4702
 3683TIP3   OH232463   5.226   4.991   0.047 -0.9893 -0.0458 -0.1188
 3683TIP3    H132464   5.321   5.004   0.052 -0.9816 -0.1948  0.1856
 3683TIP3    H232465   5.189   5.078   0.058 -0.8570  0.1926 -1.4952
 3684TIP3   OH232466   1.730   4.398   4.779  0.1915  0.4701 -0.6102
 3684TIP3    H132467   1.708   4.476   4.728 -0.3165  0.2148 -0.7893
 3684TIP3    H232468   1.658   4.389   4.841  1.0156  1.0283  0.4598
 3685TIP3   OH232469   1.200   4.685   0.919 -0.7962 -0.0600  0.0613
 3685TIP3    H132470   1.227   4.726   1.002 -1.8143 -2.1614  1.5182
 3685TIP3    H232471   1.105   4.682   0.923 -0.8274 -0.8373 -0.8608
 3686TIP3   OH232472   2.152   6.641  15.945 -0.3256 -1.1829  0.4535
 3686TIP3    H132473   2.193   6.699  16.009 -0.2370 -1.0217  0.2543
 3686TIP3    H232474   2.058   6.659  15.953 -0.2167 -0.0889 -0.4742
 3687TIP3   OH232475   3.832   6.295   5.131 -0.1679 -0.0785  0.4436
 3687TIP3    H132476   3.835   6.206   5.098  0.5098  0.3868 -0.8181
 3687TIP3    H232477   3.873   6.290   5.218 -0.1326 -0.9900  0.3795
 3688TIP3   OH232478   5.618   2.055  17.052 -0.2735  0.3499 -0.1798
 3688TIP3    H132479   5.702   2.074  17.093  0.1418  0.6875 -1.1505
 3688TIP3    H232480   5.632   1.972  17.007 -0.3566  0.5652 -0.6081
 3689TIP3   OH232481   6.323   3.142   2.205 -0.1950  0.3224  0.2483
 3689TIP3    H132482   6.359   3.100   2.283 -0.5042  0.7148  0.6087
 3689TIP3    H232483   6.233   3.164   2.230 -0.6021 -0.4039 -0.5459
 3690TIP3   OH232484   3.847   0.893  16.721 -0.4531 -0.3385 -0.0822
 3690TIP3    H132485   3.798   0.847  16.789 -0.0253  0.2063  0.6113
 3690TIP3    H232486   3.843   0.985  16.747 -0.5947 -0.0772 -0.9997
 3691TIP3   OH232487   3.220   4.566   6.440  0.6011  0.4314 -0.1292
 3691TIP3    H132488   3.251   4.478   6.459 -2.1302 -0.6820 -0.2828
 3691TIP3    H232489   3.269   4.623   6.499  3.2319 -0.9854 -0.7846
 3692TIP3   OH232490   2.775   5.506  15.833 -0.0868  0.0530 -0.2008
 3692TIP3    H132491   2.797   5.479  15.745 -0.7054  0.7216 -0.5755
 3692TIP3    H232492   2.694   5.460  15.853  1.4994 -2.3916  1.1686
 3693TIP3   OH232493   4.823   3.617   1.852 -0.2130 -0.3760  0.4764
 3693TIP3    H132494   4.873   3.577   1.923  0.3057 -1.1839 -0.3131
 3693TIP3    H232495   4.818   3.710   1.875  0.1004 -0.5881  1.4662
 3694TIP3   OH232496   5.412   2.202   3.174 -0.2863  0.2805 -0.2443
 3694TIP3    H132497   5.376   2.283   3.137 -0.2845 -0.8075 -2.8808
 3694TIP3    H232498   5.411   2.140   3.101 -1.3898 -2.5124  1.9577
 3695TIP3   OH232499   2.718   3.901   3.401 -0.0079 -0.4134 -0.0054
 3695TIP3    H132500   2.740   3.815   3.438  0.4705 -0.5492 -0.5948
 3695TIP3    H232501   2.636   3.925   3.445  0.2391 -0.8328  0.7051
 3696TIP3   OH232502   6.256   4.514  17.055  0.4235 -0.0962 -0.4464
 3696TIP3    H132503   6.245   4.430  17.010  0.0498  0.5398 -1.5840
 3696TIP3    H232504   6.167   4.546  17.069  0.5565 -0.0233  0.2510
 3697TIP3   OH232505   2.173   0.343  12.357 -0.0907 -0.2216  0.6303
 3697TIP3    H132506   2.214   0.272  12.405 -1.1194 -1.5742 -0.3995
 3697TIP3    H232507   2.219   0.345  12.272  0.0379  0.4658  0.7057
 3698TIP3   OH232508   5.109   4.335   0.525 -0.2594 -0.1932 -0.8033
 3698TIP3    H132509   5.201   4.352   0.509 -0.4551  0.4081 -1.3450
 3698TIP3    H232510   5.066   4.353   0.441 -0.7328 -1.5214 -0.8618
 3699TIP3   OH232511   2.126   5.923   1.044  0.2171  0.0243  0.0018
 3699TIP3    H132512   2.043   5.971   1.045  0.9730  1.4414 -1.1472
 3699TIP3    H232513   2.160   5.933   1.132 -0.0500  0.9097  0.0182
 3700TIP3   OH232514   4.583   1.562  12.710 -0.3527 -0.4773  0.5276
 3700TIP3    H132515   4.508   1.569  12.650 -0.2687 -1.6249  0.2626
 3700TIP3    H232516   4.550   1.593  12.794 -1.5650 -2.1825  0.7505
 3701TIP3   OH232517   2.177   3.029   2.311 -0.1637 -0.0916 -0.0250
 3701TIP3    H132518   2.167   3.092   2.239  0.0676  0.3958  0.3651
 3701TIP3    H232519   2.261   2.986   2.293 -0.4601 -0.5025 -0.4517
 3702TIP3   OH232520   2.090   6.496  13.085  0.0252  0.3344  0.2848
 3702TIP3    H132521   2.033   6.538  13.022  0.3564  0.0515 -0.2113
 3702TIP3    H232522   2.174   6.486  13.039  0.0321 -0.6199  0.4683
 3703TIP3   OH232523   1.296   5.148  15.740  0.1033  0.0066  0.1934
 3703TIP3    H132524   1.385   5.133  15.772  0.9112  1.0920 -1.4046
 3703TIP3    H232525   1.257   5.207  15.804  0.0759 -1.4317  1.5565
 3704TIP3   OH232526   5.576   6.151  12.761 -0.0019 -0.4141 -0.2894
 3704TIP3    H132527   5.532   6.110  12.687  0.4778  0.8394 -1.2981
 3704TIP3    H232528   5.668   6.129  12.750  0.0501 -0.3781  0.0533
 3705TIP3   OH232529   0.943   2.585   3.780 -0.2695  0.6196 -0.0633
 3705TIP3    H132530   0.963   2.511   3.837  0.9193  0.5912 -0.4997
 3705TIP3    H232531   0.903   2.650   3.839 -1.5833 -0.4437  0.2735
 3706TIP3   OH232532   6.287   4.213   2.475 -0.3345 -0.5365 -0.2600
 3706TIP3    H132533   6.288   4.121   2.450  2.2048 -0.0166 -2.5543
 3706TIP3    H232534   6.337   4.217   2.556 -1.6054 -1.3121  0.5781
 3707TIP3   OH232535   6.473   3.299  16.886  0.3029  0.5532 -0.4695
 3707TIP3    H132536   6.394   3.246  16.872 -0.3115  1.0977  0.8093
 3707TIP3    H232537   6.514   3.304  16.799 -1.4765  0.9254 -1.3260
 3708TIP3   OH232538   4.440   3.932  16.382 -0.3144  0.2877  0.0194
 3708TIP3    H132539   4.529   3.942  16.349 -0.2327  0.4484  0.2835
 3708TIP3    H232540   4.422   3.838  16.377 -1.1586  0.5190 -2.6957
 3709TIP3   OH232541   2.059   4.393  12.627  0.1525  0.0079  0.3471
 3709TIP3    H132542   2.070   4.330  12.699  0.1058  0.2961  0.6094
 3709TIP3    H232543   2.093   4.348  12.550 -2.6016 -1.5285 -0.0946
 3710TIP3   OH232544   2.377   3.493  10.985  0.6262 -0.2175 -0.2185
 3710TIP3    H132545   2.427   3.573  10.966 -1.0416  1.3675  1.6722
 3710TIP3    H232546   2.321   3.481  10.909  0.4495  0.7935 -0.2610
 3711TIP3   OH232547   2.985   3.979  16.376 -0.4467 -0.0978 -0.1021
 3711TIP3    H132548   2.976   4.053  16.316 -2.5600  0.5702  0.9263
 3711TIP3    H232549   3.014   4.018  16.458  0.0238 -0.6503 -0.0019
 3712TIP3   OH232550   6.338   2.191  12.372 -0.3942  0.2241 -0.2422
 3712TIP3    H132551   6.268   2.149  12.322 -1.1114  0.1727  0.7634
 3712TIP3    H232552   6.372   2.122  12.429  0.5639  0.2228 -0.8092
 3713TIP3   OH232553   2.144   3.311  16.702 -0.7979 -0.2919 -0.0942
 3713TIP3    H132554   2.200   3.258  16.646  0.4671  1.1595 -0.2500
 3713TIP3    H232555   2.196   3.388  16.723 -3.0877  1.6746 -1.1056
 3714TIP3   OH232556   2.038   5.377   6.505  0.4552 -0.0487  0.1599
 3714TIP3    H132557   2.097   5.351   6.434 -0.1887 -1.8633  0.2560
 3714TIP3    H232558   1.989   5.451   6.470  1.0766 -0.0732 -0.7868
 3715TIP3   OH232559   4.740   1.877  13.181 -1.2701  0.1088  0.0407
 3715TIP3    H132560   4.743   1.788  13.148  3.2083  0.5990 -1.4904
 3715TIP3    H232561   4.761   1.869  13.274  1.4765 -0.4497 -0.5414
 3716TIP3   OH232562   1.953   2.782   1.039  0.6222 -0.8311  0.0090
 3716TIP3    H132563   2.037   2.746   1.013  1.1446 -1.6756  2.5854
 3716TIP3    H232564   1.962   2.876   1.025  1.0579 -1.1274 -2.0388
 3717TIP3   OH232565   2.315   0.311   6.471  0.6019 -0.8334  0.6067
 3717TIP3    H132566   2.281   0.242   6.527 -1.2044 -1.0035 -0.6120
 3717TIP3    H232567   2.274   0.391   6.503  1.7206 -0.4702  1.2211
 3718TIP3   OH232568   1.546   0.408  11.602 -0.4375  0.3699  0.6397
 3718TIP3    H132569   1.501   0.445  11.677 -2.7974  1.4712 -1.1821
 3718TIP3    H232570   1.639   0.413  11.625 -1.0500  0.5671  3.4534
 3719TIP3   OH232571   4.447   0.968   5.583 -0.3134  0.1479  0.0024
 3719TIP3    H132572   4.395   1.003   5.511 -1.7104  2.4885  2.0035
 3719TIP3    H232573   4.383   0.942   5.649  0.9156  2.0494  2.0931
 3720TIP3   OH232574   2.016   4.128   4.452  0.3966 -1.2174  0.7882
 3720TIP3    H132575   2.101   4.134   4.495  0.6000  0.5452  0.2535
 3720TIP3    H232576   1.964   4.199   4.491 -0.0742 -0.8618 -0.4262
 3721TIP3   OH232577   3.230   4.056  13.547 -0.1681  0.0177 -0.1257
 3721TIP3    H132578   3.221   3.962  13.563  0.1524 -0.1006 -0.6088
 3721TIP3    H232579   3.143   4.091  13.565 -0.4553 -0.4622 -0.5339
 3722TIP3   OH232580   0.008   6.658  16.370  0.2010  0.2530 -0.1432
 3722TIP3    H132581  -0.062   6.609  16.413  1.3057 -1.0733  0.2113
 3722TIP3    H232582  -0.028   6.681  16.284 -0.4023 -1.0892 -0.2748
 3723TIP3   OH232583   1.053   0.704  16.118  0.5079  0.4965  0.5495
 3723TIP3    H132584   1.043   0.723  16.211 -0.2536  1.5450  0.2589
 3723TIP3    H232585   1.040   0.787  16.074  1.9910  0.2555 -0.4464
 3724TIP3   OH232586   6.101   0.578  11.632  0.0396  0.2539  0.4008
 3724TIP3    H132587   6.142   0.495  11.654  0.5421  0.3586 -0.1083
 3724TIP3    H232588   6.130   0.638  11.700  0.6756  0.3067  0.0884
 3725TIP3   OH232589   0.918   2.040  14.619  0.3097 -0.3739 -0.2422
 3725TIP3    H132590   0.974   2.109  14.654  0.1217 -0.0646 -0.5458
 3725TIP3    H232591   0.854   2.023  14.688 -0.1550  0.3388 -0.4898
 3726TIP3   OH232592   6.208   2.611  13.886 -0.7485  0.0657 -0.0856
 3726TIP3    H132593   6.207   2.588  13.979  1.5857 -0.4182 -0.1260
 3726TIP3    H232594   6.145   2.552  13.846 -2.4568  0.8855  1.2773
 3727TIP3   OH232595   3.047   1.069  16.717  0.5448  0.1547 -0.2380
 3727TIP3    H132596   2.991   1.021  16.779  2.3068 -0.0254  1.3149
 3727TIP3    H232597   2.988   1.132  16.675 -0.8994 -0.2812  1.0322
 3728TIP3   OH232598   5.174   2.084  15.596 -0.0256  0.0557  0.1324
 3728TIP3    H132599   5.110   2.051  15.532 -1.3811  0.7610  1.0816
 3728TIP3    H232600   5.212   2.161  15.554 -3.1307  2.4052  1.2374
 3729TIP3   OH232601   4.183   0.836   6.240 -0.6773 -0.6676  0.1051
 3729TIP3    H132602   4.107   0.780   6.254 -0.6699 -0.2788  1.9061
 3729TIP3    H232603   4.239   0.821   6.316  1.0051 -0.8309 -1.1109
 3730TIP3   OH232604   0.973   1.114   0.659  0.1037 -0.3388  0.3195
 3730TIP3    H132605   0.910   1.183   0.635  1.2155  0.9573  0.9853
 3730TIP3    H232606   1.057   1.159   0.663  0.9189 -1.8225  0.4771
 3731TIP3   OH232607   2.201   0.063   6.581  0.1132  0.0383 -0.2861
 3731TIP3    H132608   2.263   0.015   6.525  2.2772  1.3088  0.9272
 3731TIP3    H232609   2.198   0.012   6.662  1.6189  1.2786  0.6127
 3732TIP3   OH232610   5.009   0.163   0.139 -0.6532 -0.4911 -0.3576
 3732TIP3    H132611   5.020   0.085   0.086  1.5172 -0.0409 -0.6724
 3732TIP3    H232612   4.987   0.232   0.077  0.4638 -0.2597 -0.5207
 3733TIP3   OH232613   1.062   3.984  13.743 -0.3251 -0.2797  0.1572
 3733TIP3    H132614   0.998   4.021  13.804  0.5961  0.1836  0.8611
 3733TIP3    H232615   1.019   3.907  13.707 -1.7750  0.7294 -0.3457
 3734TIP3   OH232616   4.774   4.772   1.741 -0.4508 -0.0916 -0.2523
 3734TIP3    H132617   4.763   4.722   1.660 -0.0931  1.8577 -1.5590
 3734TIP3    H232618   4.865   4.757   1.765 -0.4959 -0.5027 -0.3182
 3735TIP3   OH232619   0.694   2.619  14.464  0.4911  0.1399 -0.6904
 3735TIP3    H132620   0.725   2.529  14.461  2.4239  0.6138  1.7941
 3735TIP3    H232621   0.773   2.672  14.468 -0.5394  1.7059  1.4231
 3736TIP3   OH232622   6.646   1.835   1.441 -0.1345 -0.3842  0.4910
 3736TIP3    H132623   6.709   1.872   1.379  0.7673 -0.0874  1.5480
 3736TIP3    H232624   6.643   1.741   1.419  0.6389 -0.3901  0.3918
 3737TIP3   OH232625   2.750   4.957  17.123 -0.1381 -0.3366  0.2281
 3737TIP3    H132626   2.666   4.969  17.168 -0.9886 -0.1540 -1.3468
 3737TIP3    H232627   2.745   4.870  17.086 -0.7059  0.5646 -1.9594
 3738TIP3   OH232628   6.132   0.171   6.002  0.0974 -0.0807  0.0125
 3738TIP3    H132629   6.112   0.225   6.079 -1.0576 -1.3504  0.6503
 3738TIP3    H232630   6.061   0.107   5.999  1.3514 -1.5051 -0.7647
 3739TIP3   OH232631   4.930   0.132  13.717  0.7588  0.1806 -0.0393
 3739TIP3    H132632   4.949   0.043  13.688  0.8774  0.0921  0.3001
 3739TIP3    H232633   4.912   0.123  13.811 -5.3615 -0.5024 -0.8360
 3740TIP3   OH232634   2.200   0.551   6.550  0.2406  0.2255 -0.6216
 3740TIP3    H132635   2.115   0.532   6.591  0.4908 -0.9356 -0.6150
 3740TIP3    H232636   2.211   0.645   6.563 -0.6150  0.2406  0.2078
 3741TIP3   OH232637   6.236   4.601   3.379 -0.3668  0.4857  0.5838
 3741TIP3    H132638   6.215   4.508   3.388 -1.5038  0.6257 -0.3664
 3741TIP3    H232639   6.163   4.647   3.419  0.3550  0.9910  1.3627
 3742TIP3   OH232640   2.584   3.277  16.662 -0.7296 -0.2760 -0.5808
 3742TIP3    H132641   2.586   3.372  16.655 -1.8194 -0.1472  0.4459
 3742TIP3    H232642   2.663   3.247  16.618  0.2610  1.1746  0.1505
 3743TIP3   OH232643   5.663   1.705   0.549  0.0675  0.0920 -0.0213
 3743TIP3    H132644   5.740   1.686   0.601  0.8607 -1.4146 -1.6508
 3743TIP3    H232645   5.696   1.756   0.475 -0.7992  0.8958  0.1170
 3744TIP3   OH232646   4.409   5.671  15.424  0.2198  0.9428 -0.1464
 3744TIP3    H132647   4.493   5.658  15.467 -0.4605  1.4635  1.3996
 3744TIP3    H232648   4.356   5.596  15.450  0.0216  0.8807 -0.6959
 3745TIP3   OH232649   4.385   6.666  10.929 -0.3377 -0.5094 -0.0903
 3745TIP3    H132650   4.380   6.599  10.861  2.1229 -0.6955 -0.1726
 3745TIP3    H232651   4.391   6.617  11.011 -1.5144 -0.3043  0.1419
 3746TIP3   OH232652   1.854   4.546  16.596 -0.4226  0.2548 -0.0068
 3746TIP3    H132653   1.820   4.565  16.683 -3.2689  0.6847 -1.1102
 3746TIP3    H232654   1.819   4.459  16.575 -1.3314  0.9181 -1.3874
 3747TIP3   OH232655   1.099   5.230   2.615  0.1172  0.6444  0.8808
 3747TIP3    H132656   1.172   5.193   2.566 -0.5542  0.8045 -0.2602
 3747TIP3    H232657   1.090   5.319   2.582 -1.7372  0.0665 -0.3424
 3748TIP3   OH232658   2.489   6.015   6.706  1.1145 -0.6918  0.1282
 3748TIP3    H132659   2.524   6.072   6.775 -2.1409  1.2740  0.3603
 3748TIP3    H232660   2.492   6.068   6.627  3.1185 -2.2964 -0.9917
 3749TIP3   OH232661   4.685   2.048  14.027  0.3429 -0.2417 -0.4797
 3749TIP3    H132662   4.766   2.044  13.976  1.4339 -0.3515  1.1860
 3749TIP3    H232663   4.667   2.142  14.036  0.8239 -0.1822 -0.0694
 3750TIP3   OH232664   0.466   2.113  11.622  0.0923  0.1353 -0.1805
 3750TIP3    H132665   0.473   2.117  11.526  0.3625 -2.4223 -0.3310
 3750TIP3    H232666   0.385   2.160  11.641 -0.6970 -0.4460 -1.8370
 3751TIP3   OH232667   4.709   4.499  15.861  0.2524 -0.5283 -0.5379
 3751TIP3    H132668   4.684   4.483  15.953 -0.9351  1.1995 -0.5046
 3751TIP3    H232669   4.804   4.484  15.859  0.2750 -0.7618  0.9321
 3752TIP3   OH232670   3.517   0.039  16.454  0.1813  0.1391  0.3534
 3752TIP3    H132671   3.497  -0.023  16.384 -1.8431  0.6229  0.4293
 3752TIP3    H232672   3.468   0.118  16.430 -0.5188  0.3369  2.2485
 3753TIP3   OH232673   1.010   2.300  13.788  0.7304  0.0038 -0.3730
 3753TIP3    H132674   1.001   2.370  13.853  0.8926 -0.2305 -0.0966
 3753TIP3    H232675   1.054   2.341  13.714  1.2907  0.0749 -0.0109
 3754TIP3   OH232676   5.955   5.045   1.258  0.0377  0.7139 -0.1471
 3754TIP3    H132677   5.927   4.953   1.264  1.6672  0.2164  0.3288
 3754TIP3    H232678   5.987   5.066   1.346  0.2175  1.5598 -0.4047
 3755TIP3   OH232679   3.462   4.056   2.789 -0.5472  0.4671  0.5036
 3755TIP3    H132680   3.532   4.120   2.781  0.1171 -0.3866 -0.8426
 3755TIP3    H232681   3.398   4.080   2.722 -0.5314  0.0294  0.3261
 3756TIP3   OH232682   0.093   3.142  16.443 -0.3629  0.7735 -0.9089
 3756TIP3    H132683   0.142   3.206  16.391  1.9835  2.1193  2.5631
 3756TIP3    H232684   0.043   3.194  16.506 -0.1488 -0.7255  0.5985
 3757TIP3   OH232685   3.277   1.780  15.654 -0.1273  0.3174  0.8559
 3757TIP3    H132686   3.309   1.753  15.568 -2.3192 -0.6062  0.2676
 3757TIP3    H232687   3.318   1.865  15.669  0.3211  0.4944 -1.0879
 3758TIP3   OH232688   1.663   2.961   4.377 -0.4444  0.7981  0.4337
 3758TIP3    H132689   1.596   2.918   4.429 -1.7770 -1.8317 -3.0193
 3758TIP3    H232690   1.699   2.891   4.322  2.6429  2.8153 -0.4211
 3759TIP3   OH232691   5.205   5.649   3.873 -0.3454  0.1497 -0.0567
 3759TIP3    H132692   5.247   5.652   3.788  3.3644  0.2411  1.5908
 3759TIP3    H232693   5.172   5.738   3.887  0.3754  0.5310 -0.7602
 3760TIP3   OH232694   5.184   1.954   3.231  0.2988  0.0245  1.0152
 3760TIP3    H132695   5.245   1.881   3.218  0.3728  0.2378  0.0283
 3760TIP3    H232696   5.233   2.016   3.285  1.6734  0.9401 -1.1098
 3761TIP3   OH232697   6.632   2.751   0.414  0.3706 -0.5454 -0.6984
 3761TIP3    H132698   6.660   2.834   0.452 -0.8619 -0.1886 -0.5263
 3761TIP3    H232699   6.693   2.736   0.342  0.2906  0.7861 -1.0748
 3762TIP3   OH232700   2.946   6.232  11.698 -0.7930  0.1140 -0.0553
 3762TIP3    H132701   2.892   6.311  11.696 -1.3956 -0.2133  1.4324
 3762TIP3    H232702   3.008   6.247  11.769 -0.7199 -0.6256  0.0481
 3763TIP3   OH232703   6.177   4.748  14.050  0.6533 -0.5024  0.2091
 3763TIP3    H132704   6.131   4.811  13.994  0.2898 -0.5161  0.4854
 3763TIP3    H232705   6.205   4.679  13.989  1.3842  0.1024 -0.1489
 3764TIP3   OH232706   3.128   5.706   6.199  0.0689  0.0892 -0.0701
 3764TIP3    H132707   3.127   5.639   6.268 -0.5569 -1.6888 -1.7266
 3764TIP3    H232708   3.053   5.686   6.144  0.3118  1.7138 -1.0655
 3765TIP3   OH232709   6.447   3.973  13.552  0.0174  0.3262  0.4445
 3765TIP3    H132710   6.509   4.044  13.533  0.1708  0.4422  1.3058
 3765TIP3    H232711   6.503   3.901  13.583 -0.1770 -0.0271 -0.0076
 3766TIP3   OH232712   1.094   2.642  12.419 -0.4933  0.3050  0.2312
 3766TIP3    H132713   1.121   2.730  12.442  1.6026 -0.0340 -0.7433
 3766TIP3    H232714   1.152   2.585  12.470 -0.6103 -0.4794 -0.4889
 3767TIP3   OH232715   6.131   3.384   0.583 -0.4633 -0.2926 -0.1997
 3767TIP3    H132716   6.123   3.415   0.673 -5.0397  0.6638 -0.6626
 3767TIP3    H232717   6.122   3.463   0.530 -0.0797 -1.0958 -1.4975
 3768TIP3   OH232718   2.364   2.104  13.231 -0.3886  0.0279  0.0107
 3768TIP3    H132719   2.302   2.156  13.282 -0.2337  0.7968 -0.5662
 3768TIP3    H232720   2.333   2.014  13.240 -1.8820  0.4430 -0.6592
 3769TIP3   OH232721   5.617   6.239   0.152  0.6745 -0.4838  0.2803
 3769TIP3    H132722   5.620   6.290   0.071 -2.0326  0.1237  0.4640
 3769TIP3    H232723   5.558   6.289   0.209  0.4616 -2.2213  1.6568
 3770TIP3   OH232724   6.380   5.706  15.498 -0.2386  0.3793  0.8241
 3770TIP3    H132725   6.461   5.659  15.518 -1.7785 -1.5986  2.9415
 3770TIP3    H232726   6.378   5.779  15.560  0.3977  1.0637  0.0516
 3771TIP3   OH232727   3.931   5.442  13.118  0.1518  0.0594  0.2227
 3771TIP3    H132728   4.008   5.419  13.066  0.5545  1.0227  0.3591
 3771TIP3    H232729   3.876   5.364  13.117 -0.5097  0.4657 -2.7725
 3772TIP3   OH232730   6.473   3.691  12.575  0.1369 -0.5159  0.5565
 3772TIP3    H132731   6.437   3.710  12.488  0.3930 -1.9870  0.1002
 3772TIP3    H232732   6.567   3.706  12.566  0.0878 -0.0625  0.7664
 3773TIP3   OH232733   4.898   2.973   1.323  0.3459 -0.2190 -0.3343
 3773TIP3    H132734   4.975   2.993   1.270 -0.0296  2.9780  0.1302
 3773TIP3    H232735   4.926   2.991   1.413 -0.4241 -0.8420  0.0378
 3774TIP3   OH232736   2.050   1.080   6.315  0.3749  0.1375  0.1384
 3774TIP3    H132737   2.088   1.036   6.391 -0.1693 -0.7673 -0.0894
 3774TIP3    H232738   2.124   1.095   6.257  0.4749 -1.2650 -0.1420
 3775TIP3   OH232739   3.512   5.933  14.185  0.1920 -0.2023 -0.3218
 3775TIP3    H132740   3.556   5.925  14.269 -1.5662 -2.3434  0.4879
 3775TIP3    H232741   3.543   5.858  14.134  0.0254  0.1631 -0.9824
 3776TIP3   OH232742   0.214   1.816  14.882 -0.1087 -0.1024  0.6645
 3776TIP3    H132743   0.131   1.790  14.921  0.3989 -1.2339  1.0313
 3776TIP3    H232744   0.216   1.912  14.891 -1.9355  0.1040 -0.5186
 3777TIP3   OH232745   0.522   1.662   0.270  0.0580  0.8662 -0.4574
 3777TIP3    H132746   0.606   1.627   0.241  0.2832  0.2377  0.8926
 3777TIP3    H232747   0.514   1.633   0.361 -1.4558  1.2258 -0.4572
 3778TIP3   OH232748   1.339   4.887  14.227 -0.2130  0.2877 -0.0071
 3778TIP3    H132749   1.339   4.803  14.272 -0.9600  0.7504  0.8783
 3778TIP3    H232750   1.254   4.891  14.184  0.0355  0.3667 -0.5046
 3779TIP3   OH232751   0.126   2.840   5.800 -0.2690  0.3349 -0.2539
 3779TIP3    H132752   0.125   2.899   5.725 -0.4144  1.1979  0.4146
 3779TIP3    H232753   0.204   2.866   5.850  2.5430 -3.1319 -2.3189
 3780TIP3   OH232754   1.801   5.592  15.781  0.0889 -0.0998 -0.7598
 3780TIP3    H132755   1.723   5.620  15.733 -0.7620 -0.1881  0.5263
 3780TIP3    H232756   1.782   5.502  15.807  0.5708 -0.0833 -0.3408
 3781TIP3   OH232757   5.154   5.990   1.658  0.4312  0.5278  0.7899
 3781TIP3    H132758   5.149   6.016   1.750 -0.1308  1.3914  0.5288
 3781TIP3    H232759   5.062   5.975   1.633  0.4418  1.6975 -0.0110
 3782TIP3   OH232760   2.538   0.923   1.523  0.4789  0.2393 -0.3030
 3782TIP3    H132761   2.472   0.894   1.586 -0.4543  0.7895 -0.9913
 3782TIP3    H232762   2.622   0.896   1.561 -0.2142 -1.7472 -0.0771
 3783TIP3   OH232763   6.759   3.416   2.314  0.3268 -0.1963 -0.6501
 3783TIP3    H132764   6.681   3.380   2.356  0.4079  0.7471  0.3506
 3783TIP3    H232765   6.779   3.495   2.364  2.9008 -1.2966  0.2534
 3784TIP3   OH232766   1.125   6.538   4.233  0.1989 -0.0464 -0.3781
 3784TIP3    H132767   1.108   6.630   4.252  1.3592  0.8463 -3.1691
 3784TIP3    H232768   1.217   6.525   4.257 -0.1917 -0.7556  0.8129
 3785TIP3   OH232769   4.339   3.034   2.052 -0.0287  0.5119 -0.3917
 3785TIP3    H132770   4.312   3.092   1.981  1.3038  0.2270 -1.1689
 3785TIP3    H232771   4.396   3.088   2.106 -0.7661  0.6262  0.2990
 3786TIP3   OH232772   6.239   0.901  11.476  0.2551  0.0372  0.4284
 3786TIP3    H132773   6.175   0.830  11.485 -0.6055  0.6665 -0.4910
 3786TIP3    H232774   6.304   0.867  11.414  0.6281 -0.4706  1.0881
 3787TIP3   OH232775   0.303   6.124  16.195 -0.6952 -0.2844 -0.2067
 3787TIP3    H132776   0.259   6.058  16.249 -0.4812 -0.0292  0.2765
 3787TIP3    H232777   0.305   6.203  16.249  0.8006 -0.4208 -0.0118
 3788TIP3   OH232778   1.332   4.762   0.299 -0.5254 -0.0582 -0.1039
 3788TIP3    H132779   1.307   4.817   0.224  1.1970  0.6845 -0.1790
 3788TIP3    H232780   1.382   4.821   0.356 -0.3389 -1.0628  0.7868
 3789TIP3   OH232781   4.622   2.723   5.284 -0.2166 -0.5080  0.0595
 3789TIP3    H132782   4.575   2.803   5.309  1.3094  0.6802 -0.7048
 3789TIP3    H232783   4.576   2.692   5.206  0.4177  0.8113 -0.8679
 3790TIP3   OH232784   0.479   2.863  13.380 -0.4018 -0.2732  0.2365
 3790TIP3    H132785   0.408   2.879  13.442 -1.4007  0.9655 -1.1544
 3790TIP3    H232786   0.439   2.810  13.311 -0.5068  1.8480 -1.4183
 3791TIP3   OH232787   1.868   5.453  14.302 -0.4652  0.9026 -0.1693
 3791TIP3    H132788   1.846   5.463  14.394  1.7176 -0.9857  0.6795
 3791TIP3    H232789   1.937   5.518  14.286 -0.0148  0.4550 -0.1013
 3792TIP3   OH232790   5.293   5.583  15.493 -0.2677  0.3022 -0.6383
 3792TIP3    H132791   5.235   5.510  15.471 -0.4509  0.5768 -1.0872
 3792TIP3    H232792   5.321   5.566  15.582 -1.9360  0.7325  0.0036
 3793TIP3   OH232793   4.302   4.927  12.437  0.3123 -0.3877 -0.5168
 3793TIP3    H132794   4.314   4.857  12.373  0.5176 -1.1467  0.3401
 3793TIP3    H232795   4.285   4.882  12.519 -0.3407  0.5822 -0.1039
 3794TIP3   OH232796   0.757   6.055  13.618 -0.4052  0.3855 -0.3023
 3794TIP3    H132797   0.764   5.966  13.653  0.0643  0.9768  1.1948
 3794TIP3    H232798   0.847   6.083  13.604 -0.5038  1.0002  0.2480
 3795TIP3   OH232799   4.158   0.444  11.567 -0.2478  1.2910  0.3658
 3795TIP3    H132800   4.122   0.388  11.636  0.2456  1.4118  0.7223
 3795TIP3    H232801   4.196   0.383  11.504 -3.1934  0.9806 -1.2984
 3796TIP3   OH232802   0.800   5.217   4.040 -0.0627  0.5003  0.1620
 3796TIP3    H132803   0.763   5.149   3.984  1.3413 -0.5022  0.3821
 3796TIP3    H232804   0.893   5.193   4.047  0.1899  1.7354  1.2881
 3797TIP3   OH232805   3.764   0.713  14.255 -0.1852 -0.2910 -0.2626
 3797TIP3    H132806   3.675   0.738  14.227 -0.3032  1.1821  1.2409
 3797TIP3    H232807   3.819   0.786  14.227  0.1381 -0.0790  0.8963
 3798TIP3   OH232808   2.574   1.349   2.721 -0.4434  0.1276 -0.3791
 3798TIP3    H132809   2.640   1.296   2.678 -0.6191 -0.2080 -0.2375
 3798TIP3    H232810   2.562   1.308   2.807  0.6988  1.4184  0.4356
 3799TIP3   OH232811   2.996   4.653  12.553 -0.4202  0.1618 -0.4999
 3799TIP3    H132812   2.926   4.599  12.589 -0.4836  0.6357  0.0847
 3799TIP3    H232813   3.027   4.706  12.626 -2.6811  3.4958 -1.6645
 3800TIP3   OH232814   1.901   0.252  12.944 -0.6642 -0.6019 -0.1135
 3800TIP3    H132815   1.912   0.248  12.849 -1.4177 -0.2437 -0.2198
 3800TIP3    H232816   1.873   0.164  12.968  2.5043 -1.6486  0.2034
 3801TIP3   OH232817   0.452   3.605  14.216 -0.2381 -0.5062  0.8044
 3801TIP3    H132818   0.463   3.515  14.186 -3.7792 -1.5043  2.0588
 3801TIP3    H232819   0.531   3.623  14.267  0.1838 -3.2119  1.2255
 3802TIP3   OH232820   3.310   2.900   2.471 -0.2840 -0.5756  0.3559
 3802TIP3    H132821   3.275   2.983   2.504  0.2033  0.5662 -1.8409
 3802TIP3    H232822   3.384   2.881   2.529  1.4278  2.0982 -0.7632
 3803TIP3   OH232823   1.767   5.179   2.094  0.1015  0.3665  0.2587
 3803TIP3    H132824   1.748   5.188   2.001 -0.2711 -1.1671  0.1741
 3803TIP3    H232825   1.704   5.236   2.138  1.5297  2.6735 -0.4688
 3804TIP3   OH232826   3.669   0.484   4.467  0.2325  0.0495 -0.0630
 3804TIP3    H132827   3.626   0.405   4.498  1.1763 -1.1448 -1.6337
 3804TIP3    H232828   3.622   0.508   4.388  1.6684 -0.6601 -1.2000
 3805TIP3   OH232829   3.455   2.488   3.605 -0.1219  0.0157  0.3506
 3805TIP3    H132830   3.496   2.406   3.632  1.7552  0.8415  0.1590
 3805TIP3    H232831   3.522   2.555   3.622 -1.1426  1.3460 -0.6584
 3806TIP3   OH232832   3.072   6.272   6.299 -0.1851 -0.0311  0.0764
 3806TIP3    H132833   3.068   6.364   6.272  0.0885  0.0165  0.1900
 3806TIP3    H232834   3.085   6.224   6.217  1.1161  0.1526  0.1565
 3807TIP3   OH232835   5.206   1.442   2.878 -0.1418 -0.0473 -0.2071
 3807TIP3    H132836   5.233   1.353   2.853 -0.3850 -0.0924 -0.3042
 3807TIP3    H232837   5.210   1.442   2.974 -2.0100 -0.7517 -0.1010
 3808TIP3   OH232838   6.251   4.714   0.078  0.1778 -0.0920 -0.0053
 3808TIP3    H132839   6.283   4.629   0.047  2.0313  0.9017 -0.9866
 3808TIP3    H232840   6.250   4.770   0.001  1.3845  1.4415  1.0165
 3809TIP3   OH232841   0.174   0.393  15.524  0.2593  0.0548 -0.3481
 3809TIP3    H132842   0.246   0.330  15.521  1.2373  1.0052  1.3990
 3809TIP3    H232843   0.215   0.477  15.499 -0.7346  0.2643 -1.3762
 3810TIP3   OH232844   1.833   3.200  16.613  0.1016  0.7913 -0.3343
 3810TIP3    H132845   1.787   3.163  16.538  0.9888 -0.7590 -0.1479
 3810TIP3    H232846   1.830   3.295  16.598 -0.2700  0.5464 -1.9997
 3811TIP3   OH232847   6.136   6.683  13.511 -0.0015  0.4599 -0.3700
 3811TIP3    H132848   6.121   6.610  13.571 -0.9363  1.2342  0.3522
 3811TIP3    H232849   6.049   6.715  13.488  0.3918  1.7791 -0.1363
 3812TIP3   OH232850   5.085   1.330  11.510 -0.3007  0.0517 -0.6325
 3812TIP3    H132851   5.053   1.412  11.548  1.9823  1.0716 -0.7649
 3812TIP3    H232852   5.176   1.347  11.488  0.2434 -2.5240 -0.7437
 3813TIP3   OH232853   1.993   1.831  14.528  0.1347  1.0366  0.2230
 3813TIP3    H132854   1.902   1.829  14.497  1.1975 -1.1458 -3.3062
 3813TIP3    H232855   1.992   1.779  14.608 -1.2524 -2.6030 -1.9010
 3814TIP3   OH232856   6.156   0.388  16.519 -0.1438  0.0839  0.3766
 3814TIP3    H132857   6.099   0.426  16.452  2.1281  1.4654 -0.9262
 3814TIP3    H232858   6.143   0.444  16.596  0.0440  0.9441 -0.1910
 3815TIP3   OH232859   2.062   1.721  11.794 -0.0309 -0.1468  0.2227
 3815TIP3    H132860   2.128   1.788  11.776 -0.0005  0.1674  1.4141
 3815TIP3    H232861   1.998   1.730  11.723  1.1717 -0.4419 -0.9363
 3816TIP3   OH232862   0.061   4.293   4.489 -0.5474  0.2343  0.9533
 3816TIP3    H132863   0.135   4.301   4.430 -0.4454  1.4194  1.2285
 3816TIP3    H232864  -0.016   4.304   4.433 -0.5056 -0.3303  0.7778
 3817TIP3   OH232865   5.440   2.354  11.934 -0.1257  0.1602 -0.5026
 3817TIP3    H132866   5.459   2.363  12.028 -0.5392 -0.6182 -0.3358
 3817TIP3    H232867   5.493   2.279  11.906 -0.0702  0.3373 -0.8803
 3818TIP3   OH232868   3.784   3.236   4.015 -0.4016 -0.0571  0.2437
 3818TIP3    H132869   3.856   3.275   4.064 -1.4311 -0.3481  2.0886
 3818TIP3    H232870   3.816   3.149   3.991  0.0954  0.0573  0.4667
 3819TIP3   OH232871   2.912   0.122  13.904  0.0185  0.0569 -0.0005
 3819TIP3    H132872   2.884   0.118  13.812 -2.3707  1.2539  0.5766
 3819TIP3    H232873   2.979   0.055  13.912  2.3708  1.7311 -3.2400
 3820TIP3   OH232874   0.608   3.907  11.965  0.2421  0.3362  0.5011
 3820TIP3    H132875   0.586   3.992  11.927  0.7955  0.0866 -0.4106
 3820TIP3    H232876   0.523   3.867  11.984 -0.0237  0.9578  0.6180
 3821TIP3   OH232877   4.520   6.124   1.838  0.2467  0.3247 -0.1969
 3821TIP3    H132878   4.454   6.069   1.797  0.4926  0.0306 -0.2087
 3821TIP3    H232879   4.562   6.067   1.903 -1.6037  1.3904  2.0663
 3822TIP3   OH232880   2.696   2.127   3.827  0.1772  0.0942 -0.1072
 3822TIP3    H132881   2.633   2.180   3.877  1.1202 -0.5533  1.8717
 3822TIP3    H232882   2.695   2.166   3.739 -1.9273  0.9774  0.2389
 3823TIP3   OH232883   5.999   2.942   2.724  0.5703  0.1152  0.2065
 3823TIP3    H132884   6.086   2.956   2.687 -0.0135 -0.9899 -1.7717
 3823TIP3    H232885   5.945   3.010   2.683  0.0723 -0.5995 -0.3419
 3824TIP3   OH232886   2.052   3.536   3.244  0.1893  0.1598 -0.6286
 3824TIP3    H132887   2.067   3.507   3.334  0.8843 -2.3091 -1.4471
 3824TIP3    H232888   2.089   3.624   3.240  0.1196  0.3448  1.4719
 3825TIP3   OH232889   3.273   1.045  11.385 -0.0981  0.1177  0.3781
 3825TIP3    H132890   3.347   1.004  11.340 -0.0668 -0.0112  0.5460
 3825TIP3    H232891   3.312   1.087  11.462 -0.0803  0.7537  0.0268
 3826TIP3   OH232892   0.535   3.274  10.800 -0.4657  0.4954 -0.4247
 3826TIP3    H132893   0.447   3.244  10.821 -0.0556  1.1053  2.7082
 3826TIP3    H232894   0.586   3.194  10.789 -1.2328  0.1458 -1.5917
 3827TIP3   OH232895   3.088   2.187  16.836  0.4468 -0.4716  0.2423
 3827TIP3    H132896   3.109   2.104  16.879  1.6187 -0.2786  0.0666
 3827TIP3    H232897   3.142   2.252  16.881  0.6498 -0.0491 -0.5872
 3828TIP3   OH232898   4.147   4.639   5.793 -0.5980 -0.0535 -0.2214
 3828TIP3    H132899   4.206   4.680   5.731 -0.7037  1.1825  0.4599
 3828TIP3    H232900   4.069   4.694   5.792 -0.4898  0.1646  1.1980
 3829TIP3   OH232901   4.610   3.041   6.133 -0.1896  0.0397 -0.5656
 3829TIP3    H132902   4.523   3.001   6.139 -0.4584  0.7539  0.6364
 3829TIP3    H232903   4.594   3.135   6.142  0.5685  0.3180 -1.9488
 3830TIP3   OH232904   6.703   6.272  16.761  0.0173 -0.2359 -0.1267
 3830TIP3    H132905   6.614   6.236  16.771 -0.2365  0.8191  2.0987
 3830TIP3    H232906   6.689   6.366  16.752  0.8691 -0.2273 -1.5618
 3831TIP3   OH232907   0.424   6.330  17.224 -0.7197  0.0390 -0.1869
 3831TIP3    H132908   0.412   6.412  17.177 -1.8923  1.3389  2.1909
 3831TIP3    H232909   0.519   6.320  17.233 -0.5681  1.3839 -0.1350
 3832TIP3   OH232910   3.250   1.243  16.622  0.5697 -0.1656 -0.6927
 3832TIP3    H132911   3.199   1.176  16.668  0.6324 -1.4134 -2.3505
 3832TIP3    H232912   3.307   1.280  16.690 -1.7119  0.5190  0.9748
 3833TIP3   OH232913   2.852   4.897   6.268  0.8242  0.7470 -0.0269
 3833TIP3    H132914   2.874   4.953   6.343 -2.0737  0.7107  0.9589
 3833TIP3    H232915   2.818   4.817   6.308  1.2364 -0.1544 -1.4276
 3834TIP3   OH232916   6.029   1.831   3.880  0.4341  0.3052  0.1629
 3834TIP3    H132917   6.063   1.750   3.841  1.5483 -0.2836  2.2221
 3834TIP3    H232918   5.937   1.812   3.897  1.0622 -1.2588  2.2187
 3835TIP3   OH232919   1.259   2.259   0.262 -0.0003 -0.2215 -0.1424
 3835TIP3    H132920   1.243   2.271   0.168  0.5932 -0.2035 -0.2444
 3835TIP3    H232921   1.324   2.188   0.266  1.1565  0.8257  0.1756
 3836TIP3   OH232922   1.667   3.700   0.783 -0.3067  0.1861 -0.0648
 3836TIP3    H132923   1.594   3.651   0.822  0.6987 -1.1518  0.2316
 3836TIP3    H232924   1.630   3.740   0.705 -1.4586 -0.1272  0.2920
 3837TIP3   OH232925   2.569   0.406   3.731 -0.0243 -0.3170 -0.1948
 3837TIP3    H132926   2.516   0.474   3.690  0.6154 -0.7780 -1.8807
 3837TIP3    H232927   2.509   0.331   3.742 -0.3765  0.0425  0.3984
 3838TIP3   OH232928   1.730   0.082   3.686 -0.1906  0.5423 -0.2258
 3838TIP3    H132929   1.756   0.163   3.643 -1.5730  1.6601  0.9362
 3838TIP3    H232930   1.634   0.085   3.690 -0.2092 -0.4306  1.1409
 3839TIP3   OH232931   3.208   3.929  14.799  0.1084  0.5469 -0.4791
 3839TIP3    H132932   3.229   3.929  14.892 -1.1003  0.3648 -0.1872
 3839TIP3    H232933   3.223   4.019  14.771  3.3733  0.0219 -0.8460
 3840TIP3   OH232934   2.465   5.538   2.195  0.1588 -0.7671 -0.1030
 3840TIP3    H132935   2.488   5.484   2.271  0.9044 -0.1022  0.1606
 3840TIP3    H232936   2.550   5.566   2.159 -0.1904 -0.8547 -1.0293
 3841TIP3   OH232937   4.180   2.181   4.371 -0.0321  0.2147 -0.1292
 3841TIP3    H132938   4.104   2.225   4.408  0.2805 -0.2286  1.0792
 3841TIP3    H232939   4.247   2.249   4.364 -0.5518  0.6312 -1.3020
 3842TIP3   OH232940   3.362   2.282   1.500  0.2686  0.5301  0.3885
 3842TIP3    H132941   3.408   2.293   1.418 -1.1082 -0.8276 -0.6320
 3842TIP3    H232942   3.304   2.358   1.506 -1.5382 -0.6165 -1.2823
 3843TIP3   OH232943   1.119   6.510   4.681 -0.4222  0.5161 -0.0324
 3843TIP3    H132944   1.052   6.518   4.612  0.9958 -1.9424 -1.8473
 3843TIP3    H232945   1.093   6.432   4.731  0.7520 -0.1452 -0.4204
 3844TIP3   OH232946   3.240   6.584  11.294  0.9794  0.6196 -0.2004
 3844TIP3    H132947   3.279   6.497  11.291  0.9213  0.5969 -0.3591
 3844TIP3    H232948   3.212   6.600  11.204 -0.8850 -0.0653  0.2036
 3845TIP3   OH232949   0.092   5.713   3.187  0.6334 -0.3965  0.2034
 3845TIP3    H132950   0.115   5.791   3.138  2.6610 -0.4207  1.0249
 3845TIP3    H232951   0.130   5.640   3.137  0.8439 -0.6209  0.6813
 3846TIP3   OH232952   2.492   2.435   5.785  0.7690  0.2403  0.0169
 3846TIP3    H132953   2.441   2.459   5.707 -0.5607 -0.6052  0.5913
 3846TIP3    H232954   2.432   2.449   5.858  1.9109  0.7562  0.8933
 3847TIP3   OH232955   5.226   4.494   3.826  0.4010  0.3079  0.5729
 3847TIP3    H132956   5.289   4.434   3.784 -0.1754 -0.3051  0.5637
 3847TIP3    H232957   5.281   4.560   3.869  1.1324 -1.0276  1.8083
 3848TIP3   OH232958   6.432   3.022   4.998 -0.3014 -0.2754 -0.2277
 3848TIP3    H132959   6.447   3.114   5.022 -0.3534 -0.1690 -0.5959
 3848TIP3    H232960   6.486   3.009   4.919 -0.5134 -0.4800 -0.3382
 3849TIP3   OH232961   2.422   3.353   5.236 -0.0050 -0.3411 -0.5130
 3849TIP3    H132962   2.341   3.313   5.204  0.5145 -1.7154 -0.2097
 3849TIP3    H232963   2.475   3.278   5.266  0.9814  0.6063  0.1828
 3850TIP3   OH232964   2.294   0.707   5.215 -0.2121  0.0697 -0.5579
 3850TIP3    H132965   2.308   0.757   5.295 -2.8820 -0.6628  0.4789
 3850TIP3    H232966   2.373   0.655   5.204  0.2560  0.2674  1.5587
 3851TIP3   OH232967   5.641   0.016  11.821 -0.8443 -0.3028  0.3522
 3851TIP3    H132968   5.573  -0.031  11.869 -0.8265 -1.4221 -0.6799
 3851TIP3    H232969   5.593   0.070  11.758 -0.9351  2.0975  2.3128
 3852TIP3   OH232970   4.158   2.839  14.339 -0.3377 -0.4067 -0.5393
 3852TIP3    H132971   4.105   2.916  14.318  1.0286  0.4445 -1.0551
 3852TIP3    H232972   4.176   2.847  14.433  1.9326  1.3920 -1.0398
 3853TIP3   OH232973   0.639   2.056   5.203 -0.2351  0.3506 -0.2197
 3853TIP3    H132974   0.688   2.138   5.208  0.7438 -0.2839  1.7441
 3853TIP3    H232975   0.593   2.060   5.120 -0.3085  2.9409 -0.1178
 3854TIP3   OH232976   4.724   3.660   2.408  1.0001  0.5618 -0.0645
 3854TIP3    H132977   4.778   3.729   2.370 -0.3020  1.5601 -0.1990
 3854TIP3    H232978   4.735   3.669   2.503  0.6507  1.1118 -0.0760
 3855TIP3   OH232979   5.719   1.412  14.761 -0.8598  0.2453  0.4426
 3855TIP3    H132980   5.810   1.393  14.738 -0.7068 -2.5391  2.7455
 3855TIP3    H232981   5.667   1.358  14.701 -1.0416  1.6993 -0.7540
 3856TIP3   OH232982   1.173   2.464   1.492  0.2105  0.1409 -0.0582
 3856TIP3    H132983   1.082   2.472   1.517  0.6289  1.7772  1.0663
 3856TIP3    H232984   1.171   2.448   1.397 -1.2330 -0.9497  0.1259
 3857TIP3   OH232985   1.399   5.883   0.678 -0.5304  0.2122  0.1967
 3857TIP3    H132986   1.407   5.956   0.617  0.5026 -0.6071 -0.6870
 3857TIP3    H232987   1.436   5.915   0.760  4.6420 -0.6688 -1.4102
 3858TIP3   OH232988   3.635   4.248   0.658 -0.1390  0.2113 -0.5915
 3858TIP3    H132989   3.689   4.308   0.606  1.8559 -1.0801 -0.1292
 3858TIP3    H232990   3.670   4.161   0.639 -0.9981 -0.5284  0.9879
 3859TIP3   OH232991   3.431   1.094  17.222 -0.2916  0.2458  0.2240
 3859TIP3    H132992   3.525   1.111  17.221 -0.1831 -0.0010  2.2157
 3859TIP3    H232993   3.393   1.167  17.271 -1.3775  1.1487 -1.8282
 3860TIP3   OH232994   4.784   2.432  14.303  0.3527 -0.2463  0.7334
 3860TIP3    H132995   4.866   2.481  14.303 -0.7571  1.7362  1.6470
 3860TIP3    H232996   4.717   2.497  14.283 -0.9872 -1.9240 -0.5752
 3861TIP3   OH232997   2.884   3.126   5.813  0.0144 -0.0066 -0.4336
 3861TIP3    H132998   2.919   3.208   5.848 -0.1232 -0.5414  0.9994
 3861TIP3    H232999   2.909   3.060   5.877  0.6238 -1.2063 -1.8602
 3862TIP3   OH233000   3.124   1.621   6.942 -0.1661 -0.3434 -0.3137
 3862TIP3    H133001   3.213   1.614   6.977  0.0699 -2.8217 -1.2331
 3862TIP3    H233002   3.137   1.662   6.856 -0.0543  0.2517 -0.0206
 3863TIP3   OH233003   1.716   1.062  17.093 -0.3123 -0.1306 -0.2466
 3863TIP3    H133004   1.777   1.047  17.166  0.8025  1.2243 -0.8574
 3863TIP3    H233005   1.641   1.105  17.133  0.4778  1.0000  0.0505
 3864TIP3   OH233006   3.208   6.627   6.245 -0.5884 -0.3425 -0.3641
 3864TIP3    H133007   3.258   6.703   6.217 -1.0168 -0.3837 -1.2818
 3864TIP3    H233008   3.270   6.554   6.243 -0.5282 -0.2785 -0.8843
 3865TIP3   OH233009   2.446   5.749  16.619 -0.1301  0.5165  0.1393
 3865TIP3    H133010   2.453   5.787  16.531  2.1313 -0.1742 -0.0522
 3865TIP3    H233011   2.535   5.756  16.655 -0.5173 -1.1306  1.5452
 3866TIP3   OH233012   1.916   2.128  16.481  0.1253 -0.1339 -0.1088
 3866TIP3    H133013   1.941   2.084  16.399  0.8877 -0.5287  0.3280
 3866TIP3    H233014   1.894   2.057  16.540  0.6373  0.0974  0.3687
 3867TIP3   OH233015   6.408   1.708   5.451 -0.1603  0.4921 -0.7287
 3867TIP3    H133016   6.504   1.706   5.458 -0.1485 -0.6367 -1.1066
 3867TIP3    H233017   6.379   1.628   5.494 -0.9153  0.6061 -1.0151
 3868TIP3   OH233018   2.639   0.566   1.672 -0.5262 -0.7305  0.1646
 3868TIP3    H133019   2.647   0.488   1.727  0.2084 -1.6125 -1.1322
 3868TIP3    H233020   2.701   0.551   1.601 -0.9648  0.6799 -0.5451
 3869TIP3   OH233021   3.789   5.019  13.928 -0.8336  0.2794 -0.6458
 3869TIP3    H133022   3.720   4.989  13.988 -0.7051  2.2250  0.5836
 3869TIP3    H233023   3.744   5.077  13.867 -0.6440 -0.2208 -1.2681
 3870TIP3   OH233024   3.109   3.552  12.883 -0.2679  0.1472  0.2396
 3870TIP3    H133025   3.144   3.631  12.843  1.3666 -0.9732 -0.6911
 3870TIP3    H233026   3.123   3.484  12.817 -0.1270 -1.2248  1.6097
 3871TIP3   OH233027   4.540   0.828   3.840 -0.0977 -0.1481 -0.7976
 3871TIP3    H133028   4.535   0.910   3.889 -0.0961 -1.0960  0.8375
 3871TIP3    H233029   4.633   0.815   3.824  0.0100 -0.5110  0.1245
 3872TIP3   OH233030   5.370   1.373  14.881  0.8384  0.5586 -0.2718
 3872TIP3    H133031   5.405   1.396  14.795  1.0041  0.1599 -0.3093
 3872TIP3    H233032   5.431   1.309  14.916 -0.9751 -1.8497 -1.2444
 3873TIP3   OH233033   6.011   5.863  13.754  0.7702  0.1914  0.2759
 3873TIP3    H133034   5.933   5.914  13.778 -0.3156 -1.5917  0.7430
 3873TIP3    H233035   5.995   5.836  13.664  0.9648  0.0194  0.2942
 3874TIP3   OH233036   0.279   6.253  12.393 -0.3387 -0.0724  0.0132
 3874TIP3    H133037   0.234   6.310  12.455  1.1747  0.8729  0.2885
 3874TIP3    H233038   0.221   6.177  12.383 -2.3187  1.4191 -0.2326
 3875TIP3   OH233039   6.275   1.029  13.429  0.0632  0.2556  0.4858
 3875TIP3    H133040   6.316   1.114  13.443  2.1161 -0.9020  2.3771
 3875TIP3    H233041   6.198   1.030  13.485 -0.7786  1.3476 -0.6439
 3876TIP3   OH233042   3.044   1.726   3.783  0.5582 -0.1947  0.8929
 3876TIP3    H133043   3.018   1.817   3.793 -0.1867 -0.1666 -0.9240
 3876TIP3    H233044   3.061   1.716   3.690  0.4254 -1.9676  1.0260
 3877TIP3   OH233045   0.740   0.580  17.125 -0.0516 -0.3537  0.2503
 3877TIP3    H133046   0.819   0.528  17.108  0.8434  1.3859 -1.2039
 3877TIP3    H233047   0.716   0.615  17.039 -1.9992 -0.2314  0.8016
 3878TIP3   OH233048   1.643   1.297   3.684 -0.3792 -0.3405  1.2576
 3878TIP3    H133049   1.552   1.273   3.664 -0.8917  3.1829 -1.5386
 3878TIP3    H233050   1.695   1.226   3.645 -1.8687 -0.3493 -0.8873
 3879TIP3   OH233051   0.528   4.589   1.435 -0.4235  0.4529  0.8516
 3879TIP3    H133052   0.574   4.551   1.510  0.1973 -1.6044 -0.4730
 3879TIP3    H233053   0.436   4.568   1.449 -0.4321  0.8765  1.4614
 3880TIP3   OH233054   0.869   0.682   0.726  0.3796  0.0548 -0.4395
 3880TIP3    H133055   0.929   0.714   0.793  0.3261 -0.0791 -0.3272
 3880TIP3    H233056   0.926   0.640   0.661  0.3670 -0.5340 -0.0729
 3881TIP3   OH233057   5.396   3.955  10.851  0.4066 -0.1483  0.2711
 3881TIP3    H133058   5.456   3.881  10.844 -2.2655 -2.4452 -0.5196
 3881TIP3    H233059   5.431   4.020  10.790  1.6523 -1.6979 -0.7675
 3882TIP3   OH233060   3.696   4.201   3.502 -0.3183 -0.3356 -0.5145
 3882TIP3    H133061   3.703   4.292   3.471  1.1086 -0.1387  0.3169
 3882TIP3    H233062   3.709   4.148   3.423  2.4099  0.1724 -0.4930
 3883TIP3   OH233063   1.851   0.450   6.118  0.0550  0.2249 -0.1692
 3883TIP3    H133064   1.883   0.483   6.202  2.1568 -0.9322 -0.4558
 3883TIP3    H233065   1.902   0.497   6.052  0.3383 -0.7841 -0.6875
 3884TIP3   OH233066   2.461   0.756   6.123  0.3043 -0.3592 -0.6117
 3884TIP3    H133067   2.375   0.750   6.164 -1.4130 -1.1417 -3.9444
 3884TIP3    H233068   2.522   0.765   6.196 -2.5040 -0.4349  1.9485
 3885TIP3   OH233069   5.274   2.730   6.292  0.2111  0.1427 -0.4716
 3885TIP3    H133070   5.357   2.773   6.312  1.3600 -1.8783 -0.6242
 3885TIP3    H233071   5.297   2.637   6.285 -1.5321 -0.1723 -3.3283
 3886TIP3   OH233072   2.008   5.092  10.937  0.0255 -0.1061  0.1746
 3886TIP3    H133073   2.042   5.042  10.863  0.4585 -0.0856  0.3578
 3886TIP3    H233074   2.032   5.183  10.918  1.2030 -0.2375  0.9059
 3887TIP3   OH233075   5.802   6.002  10.884 -0.0422  0.0306 -0.1638
 3887TIP3    H133076   5.747   5.972  10.956 -0.6140  0.9459 -0.2130
 3887TIP3    H233077   5.791   6.097  10.882  0.5508  0.0972 -0.9818
 3888TIP3   OH233078   4.139   5.766  16.684  0.1725 -0.0585 -0.0270
 3888TIP3    H133079   4.231   5.783  16.665 -0.0831  0.3425 -0.9298
 3888TIP3    H233080   4.141   5.704  16.758  1.1505  0.4992  0.4326
 3889TIP3   OH233081   4.529   3.152  14.907  0.4526  0.0978 -0.2310
 3889TIP3    H133082   4.522   3.187  14.996  3.1552 -0.2523  0.2058
 3889TIP3    H233083   4.605   3.094  14.910 -0.2335 -1.0264 -2.4567
 3890TIP3   OH233084   3.937   3.721   6.265 -0.1973 -0.5491  0.0873
 3890TIP3    H133085   3.913   3.810   6.289 -0.9473 -0.0210 -2.4035
 3890TIP3    H233086   3.943   3.675   6.349 -2.1599  1.2386  1.3090
 3891TIP3   OH233087   0.274   4.934  16.048 -0.0004 -0.3244 -0.1117
 3891TIP3    H133088   0.187   4.962  16.021 -0.4403  0.5363  1.9886
 3891TIP3    H233089   0.331   5.008  16.027 -0.1545 -0.0689  0.3617
 3892TIP3   OH233090   3.715   1.093   2.882  0.0764 -0.2125 -0.0811
 3892TIP3    H133091   3.636   1.122   2.927  0.2827  1.2145 -0.5650
 3892TIP3    H233092   3.783   1.091   2.950  0.2428  1.3191 -0.1652
 3893TIP3   OH233093   2.703   1.148   3.396 -0.0096  0.3829 -0.2901
 3893TIP3    H133094   2.790   1.150   3.356  0.5214  0.0249  0.7802
 3893TIP3    H233095   2.644   1.124   3.325  0.7970  0.4227 -0.9897
 3894TIP3   OH233096   5.972   6.746  16.194 -0.2696  0.3855  0.4686
 3894TIP3    H133097   5.978   6.653  16.176  1.3776  0.8509 -1.8012
 3894TIP3    H233098   5.928   6.751  16.279  3.8802 -2.7204  3.2293
 3895TIP3   OH233099   3.271   4.581  12.393  0.4582 -0.0501  0.3634
 3895TIP3    H133100   3.186   4.623  12.406 -0.4623 -0.6512 -2.7029
 3895TIP3    H233101   3.319   4.595  12.474 -2.8398 -0.3910  2.5278
 3896TIP3   OH233102   3.178   4.874   4.261 -0.2395 -0.3932 -0.7251
 3896TIP3    H133103   3.167   4.942   4.328  1.3568 -0.0849 -0.7199
 3896TIP3    H233104   3.096   4.825   4.262 -0.5554  0.1060  0.8978
 3897TIP3   OH233105   4.167   0.435  11.924  0.3475  0.1964  0.8353
 3897TIP3    H133106   4.261   0.417  11.919  0.3140 -0.0842  1.1748
 3897TIP3    H233107   4.161   0.522  11.962  0.5653  1.7250 -2.3142
 3898TIP3   OH233108   3.033   5.766   5.497 -0.0501 -0.1913  0.3378
 3898TIP3    H133109   3.061   5.856   5.517 -1.7678  1.0070 -2.1193
 3898TIP3    H233110   2.948   5.758   5.541  1.1090 -1.5295  2.4815
 3899TIP3   OH233111   1.475   3.550  11.385 -0.0287 -0.3272 -0.3556
 3899TIP3    H133112   1.559   3.545  11.430 -1.0362 -1.3198  1.5535
 3899TIP3    H233113   1.491   3.607  11.310  2.1256  0.1790  0.4173
 3900TIP3   OH233114   3.587   4.689  12.310  0.8772  0.1746  0.4088
 3900TIP3    H133115   3.679   4.712  12.299  1.1183 -0.4749  1.0079
 3900TIP3    H233116   3.586   4.593  12.313  0.2479  0.1850  0.9548
 3901TIP3   OH233117   3.351   1.964   3.322  0.6595  0.3998  0.3526
 3901TIP3    H133118   3.412   1.977   3.250 -1.7558  0.0521 -1.9118
 3901TIP3    H233119   3.310   1.880   3.304 -2.0515  1.5822  0.4412
 3902TIP3   OH233120   2.385   0.221   3.710 -0.1443  0.2167 -0.1749
 3902TIP3    H133121   2.378   0.146   3.769  0.4897 -0.2965 -0.7278
 3902TIP3    H233122   2.295   0.253   3.701 -0.3575 -0.1943  0.4335
 3903TIP3   OH233123   4.976   3.505   4.692 -0.4739 -0.2919  0.1289
 3903TIP3    H133124   5.016   3.590   4.713  1.3028 -0.9785 -0.2969
 3903TIP3    H233125   4.896   3.527   4.644 -0.9783  1.1543  1.5512
 3904TIP3   OH233126   6.380   5.385   6.277 -0.3450  0.2847  0.3016
 3904TIP3    H133127   6.427   5.310   6.241 -2.3957 -1.0505  0.2226
 3904TIP3    H233128   6.442   5.426   6.336  1.5956 -0.1211 -1.3463
 3905TIP3   OH233129   5.631   6.700   4.830  0.1383  0.3160  0.0267
 3905TIP3    H133130   5.643   6.777   4.775  0.3658  1.3902  1.5239
 3905TIP3    H233131   5.719   6.676   4.858 -0.0391  0.2711  0.5582
 3906TIP3   OH233132   5.913   1.354  14.586 -0.2753  0.1122 -0.1668
 3906TIP3    H133133   5.937   1.262  14.595 -0.1021  0.1962  0.2639
 3906TIP3    H233134   5.881   1.362  14.496 -0.6090 -0.4378 -0.1012
 3907TIP3   OH233135   3.123   5.663   0.454  0.6340 -0.4116  0.2884
 3907TIP3    H133136   3.062   5.599   0.489  0.4448  0.2061  1.1254
 3907TIP3    H233137   3.073   5.710   0.387 -0.0773  0.5979  1.4932
 3908TIP3   OH233138   1.154   0.509  14.426 -0.1384 -0.1807  0.7091
 3908TIP3    H133139   1.147   0.588  14.372  0.2590  0.0823  1.0274
 3908TIP3    H233140   1.113   0.534  14.509 -0.9211 -0.6437  0.4707
 3909TIP3   OH233141   3.441   0.880   2.139 -0.1519 -0.2157  0.2170
 3909TIP3    H133142   3.468   0.828   2.215  0.0827 -0.0189  0.2682
 3909TIP3    H233143   3.512   0.942   2.126 -0.3689  0.0030  0.0713
 3910TIP3   OH233144   4.353   3.987   3.426 -0.0038 -0.3292 -0.4431
 3910TIP3    H133145   4.424   3.971   3.489  0.7820 -0.3193 -1.3078
 3910TIP3    H233146   4.320   3.899   3.405  0.7011 -0.4383 -1.1076
 3911TIP3   OH233147   0.158   0.976   1.002  0.0955 -0.5330 -0.1791
 3911TIP3    H133148   0.139   0.889   1.038 -1.7772  0.1008  0.5320
 3911TIP3    H233149   0.184   1.028   1.079 -0.7201  0.0029 -0.2498
 3912TIP3   OH233150   0.970   2.051  13.111 -0.4780 -0.2567  0.0115
 3912TIP3    H133151   1.020   2.114  13.059 -1.5709 -0.1302 -0.9337
 3912TIP3    H233152   0.982   1.967  13.066 -3.1647  0.2127 -1.8572
 3913TIP3   OH233153   1.372   5.430   3.938 -0.2807 -0.3101 -0.4863
 3913TIP3    H133154   1.399   5.362   4.000 -1.3095 -0.6512 -0.3931
 3913TIP3    H233155   1.365   5.509   3.991 -1.2144 -0.6136 -0.1289
 3914TIP3   OH233156   1.865   3.106  12.347  0.3384  0.2223 -0.2934
 3914TIP3    H133157   1.930   3.138  12.285  0.2668 -0.8255 -0.9396
 3914TIP3    H233158   1.906   3.116  12.433  1.3510 -0.4185 -0.6896
 3915TIP3   OH233159   0.873   4.804   2.880  0.1502  0.3068  0.2125
 3915TIP3    H133160   0.888   4.812   2.974 -0.5217 -0.5198  0.4050
 3915TIP3    H233161   0.958   4.777   2.844 -0.3727 -2.9129  1.0815
 3916TIP3   OH233162   4.081   1.632   6.000  0.2853  0.1616 -0.2224
 3916TIP3    H133163   4.147   1.596   5.941  0.8178 -1.1507  1.1093
 3916TIP3    H233164   4.131   1.670   6.072 -0.3443 -2.1020  1.5242
 3917TIP3   OH233165   1.119   5.126   0.909 -0.2538  0.2314 -0.3217
 3917TIP3    H133166   1.111   5.136   0.814 -0.2396  1.4972 -0.2112
 3917TIP3    H233167   1.066   5.198   0.945  0.7128  0.5018  0.6025
 3918TIP3   OH233168   5.641   1.353   3.645 -0.1986 -0.1284 -0.0644
 3918TIP3    H133169   5.669   1.269   3.681 -0.9345  0.3931  1.8779
 3918TIP3    H233170   5.722   1.397   3.620  0.1934 -1.3635 -1.0378
 3919TIP3   OH233171   6.737   4.202   2.751 -0.3526  0.3725 -0.6224
 3919TIP3    H133172   6.690   4.170   2.673 -2.0650  1.0723  0.0683
 3919TIP3    H233173   6.793   4.129   2.777 -1.9389 -0.9842 -0.8180
 3920TIP3   OH233174   4.421   2.344   4.392  0.8146 -0.4575  1.1231
 3920TIP3    H133175   4.504   2.314   4.429  1.3671  0.6382  0.8249
 3920TIP3    H233176   4.387   2.406   4.457  0.1921 -0.9400  1.2673
 3921TIP3   OH233177   3.731   4.040  12.735 -0.3734 -0.0657 -0.3853
 3921TIP3    H133178   3.770   4.127  12.722 -1.1694  0.4033  0.2642
 3921TIP3    H233179   3.713   4.036  12.828 -0.5593 -0.8476 -0.4536
 3922TIP3   OH233180   1.899   6.107  11.528  0.6551  0.4344  0.2438
 3922TIP3    H133181   1.945   6.145  11.454  0.8260 -0.4825 -0.1304
 3922TIP3    H233182   1.969   6.073  11.584  0.4570 -0.9215 -0.3034
 3923TIP3   OH233183   1.520   0.004  14.537  0.7423 -0.3779 -0.7017
 3923TIP3    H133184   1.574  -0.022  14.463  2.3074  2.1819 -0.5635
 3923TIP3    H233185   1.476   0.084  14.509  0.1046 -0.2417  0.5785
 3924TIP3   OH233186   4.124   5.678  13.336  0.5163 -0.1211 -0.5956
 3924TIP3    H133187   4.208   5.685  13.383  0.0356 -0.5601  0.3528
 3924TIP3    H233188   4.138   5.729  13.256  2.4239 -1.9995 -1.5526
 3925TIP3   OH233189   3.922   2.336   5.109 -0.1816 -0.3605 -0.2514
 3925TIP3    H133190   3.855   2.294   5.163 -1.3412  0.7271 -0.8022
 3925TIP3    H233191   3.955   2.408   5.163  0.7514 -1.0303  0.1110
 3926TIP3   OH233192   0.028   1.377   6.373 -0.3602 -0.8702 -0.2327
 3926TIP3    H133193   0.120   1.391   6.394  0.0220 -1.9752 -1.0776
 3926TIP3    H233194  -0.001   1.310   6.436 -0.8738  0.1334  0.6495
 3927TIP3   OH233195   1.250   0.225   0.829  0.1268 -0.0864  0.0256
 3927TIP3    H133196   1.200   0.182   0.898  0.7359  0.4858  0.8477
 3927TIP3    H233197   1.195   0.298   0.802 -0.0365 -0.2016  0.0480
 3928TIP3   OH233198   3.624   5.130   2.975  0.4501 -0.1257 -0.0106
 3928TIP3    H133199   3.620   5.056   3.034  0.6699 -0.4518 -0.4001
 3928TIP3    H233200   3.689   5.189   3.014 -0.3395  0.2640  0.7429
 3929TIP3   OH233201   0.032   6.486   1.157 -0.2365 -0.7148  0.2420
 3929TIP3    H133202   0.041   6.581   1.165  0.5729 -0.6661 -0.9686
 3929TIP3    H233203   0.121   6.452   1.167 -0.1895 -1.1514 -1.3956
 3930TIP3   OH233204   5.576   2.653   0.449  0.0637  0.2514 -0.0867
 3930TIP3    H133205   5.511   2.677   0.514 -1.7693  0.0233 -1.7426
 3930TIP3    H233206   5.566   2.559   0.437 -1.0050  0.5474 -2.0058
 3931TIP3   OH233207   0.290   1.693   4.640 -0.2392  0.6910 -0.3967
 3931TIP3    H133208   0.262   1.677   4.730 -1.2220  0.4006 -0.7474
 3931TIP3    H233209   0.344   1.772   4.646 -1.2466  1.3597  0.2913
 3932TIP3   OH233210   3.587   4.049  12.491 -0.3917 -0.3987 -0.1098
 3932TIP3    H133211   3.641   4.058  12.570 -1.2754  1.5178  0.3218
 3932TIP3    H233212   3.651   4.032  12.421  0.8813  2.0615  0.3403
 3933TIP3   OH233213   4.452   4.210  14.826  0.2691  0.3431  0.6450
 3933TIP3    H133214   4.437   4.269  14.899 -1.6335  0.7918 -0.0679
 3933TIP3    H233215   4.433   4.262  14.748  0.2061 -0.7301 -0.0755
 3934TIP3   OH233216   2.178   6.347   3.196 -0.0037 -0.6525  0.5301
 3934TIP3    H133217   2.218   6.395   3.269 -1.6058  0.3773  0.7684
 3934TIP3    H233218   2.184   6.255   3.223  0.2440 -0.3602  1.5473
 3935TIP3   OH233219   1.263   2.282   1.977  0.1815 -0.3318  0.0852
 3935TIP3    H133220   1.321   2.355   1.957  1.0445 -1.0108  0.0743
 3935TIP3    H233221   1.175   2.316   1.960  0.4761  1.0539  1.1248
 3936TIP3   OH233222   3.294   5.454  14.111  0.1906  0.0538  0.9826
 3936TIP3    H133223   3.265   5.406  14.033 -1.3176  0.6958  1.1157
 3936TIP3    H233224   3.389   5.449  14.108  0.1511 -0.2888 -0.6878
 3937TIP3   OH233225   5.064   4.174   3.252 -0.0757 -0.2156  0.2479
 3937TIP3    H133226   5.123   4.180   3.177 -0.7349  1.4492 -0.1815
 3937TIP3    H233227   4.996   4.113   3.224  0.0379 -0.1112 -0.2704
 3938TIP3   OH233228   5.714   5.205   3.737 -0.7849 -0.4080 -0.1872
 3938TIP3    H133229   5.652   5.214   3.809  0.6086 -1.3405  1.1882
 3938TIP3    H233230   5.773   5.135   3.764  0.8682  0.4178 -1.4478
 3939TIP3   OH233231   1.713   1.912   5.715  0.3819  0.4868  0.6734
 3939TIP3    H133232   1.796   1.890   5.758 -0.1581  0.1584  1.5676
 3939TIP3    H233233   1.676   1.982   5.768 -0.5539 -0.3033  1.0792
 3940TIP3   OH233234   3.492   5.857   0.681  0.0651 -0.3585 -0.1804
 3940TIP3    H133235   3.562   5.922   0.678  1.3920 -1.7010  0.3893
 3940TIP3    H233236   3.502   5.816   0.767 -2.3891  0.4026  0.5531
 3941TIP3   OH233237   3.735   5.612  11.111 -0.6003  0.0100  0.1169
 3941TIP3    H133238   3.691   5.539  11.068 -0.9177  0.9653 -1.2477
 3941TIP3    H233239   3.797   5.571  11.172 -0.7081 -1.3789 -0.6746
 3942TIP3   OH233240   4.885   6.012   0.477 -0.2271 -0.3478  0.2042
 3942TIP3    H133241   4.908   5.982   0.389  0.1784 -1.4428  0.6751
 3942TIP3    H233242   4.835   6.093   0.462 -0.6298 -0.8032 -1.0583
 3943TIP3   OH233243   1.832   3.068   4.566 -0.0288  0.4557  0.1404
 3943TIP3    H133244   1.772   3.039   4.499  1.4228  0.4228 -1.2027
 3943TIP3    H233245   1.882   3.140   4.525  0.5096  0.8111  1.3576
 3944TIP3   OH233246   6.700   1.359  15.098  0.2886 -0.6165 -0.4129
 3944TIP3    H133247   6.675   1.268  15.081 -0.6846 -0.7119  1.3278
 3944TIP3    H233248   6.696   1.368  15.193 -2.5802  2.0037 -0.5842
 3945TIP3   OH233249   2.067   4.383   5.860  0.1422 -0.2982 -0.0576
 3945TIP3    H133250   2.074   4.377   5.955 -0.4500 -0.1450 -0.0043
 3945TIP3    H233251   2.007   4.455   5.844  1.1577  0.4614 -0.5797
 3946TIP3   OH233252   3.739   1.133  12.846 -0.0816 -0.2401 -0.2289
 3946TIP3    H133253   3.759   1.226  12.846  0.9071 -0.4266  0.6892
 3946TIP3    H233254   3.655   1.126  12.891 -0.4872  0.2633 -0.9060
 3947TIP3   OH233255   0.357   5.787  13.034  0.3135 -0.1622  0.3546
 3947TIP3    H133256   0.417   5.756  13.102  0.7711  1.6557  0.8337
 3947TIP3    H233257   0.388   5.744  12.954  1.1105 -0.6916  0.9281
 3948TIP3   OH233258   5.154   5.208   2.519  0.8507  0.1519  0.3586
 3948TIP3    H133259   5.246   5.180   2.520  0.4077 -1.4868 -0.8370
 3948TIP3    H233260   5.156   5.293   2.474  1.6465 -0.5561 -1.0307
 3949TIP3   OH233261   2.543   2.050  16.857  0.5143 -0.1464 -1.0874
 3949TIP3    H133262   2.529   2.051  16.952 -1.5535  1.4108 -1.3472
 3949TIP3    H233263   2.638   2.048  16.847  0.9021  2.0712  1.0873
 3950TIP3   OH233264   1.518   1.390   4.742  0.4390 -0.2089 -0.2014
 3950TIP3    H133265   1.506   1.299   4.714  1.6569 -0.1535 -0.9716
 3950TIP3    H233266   1.482   1.442   4.670  2.2116 -0.0812 -1.0476
 3951TIP3   OH233267   6.103   4.501   3.949  0.2625 -0.0639  0.2614
 3951TIP3    H133268   6.169   4.436   3.925 -0.3958 -0.9752  0.8397
 3951TIP3    H233269   6.150   4.584   3.950  1.3557 -0.6640  0.4683
 3952TIP3   OH233270   1.543   3.203  11.362 -0.3892  0.1270 -0.3643
 3952TIP3    H133271   1.638   3.201  11.361 -0.4049 -0.5259 -0.9559
 3952TIP3    H233272   1.519   3.272  11.300 -0.3136 -0.1342 -0.6832
 3953TIP3   OH233273   6.505   2.966   4.741 -0.6653 -0.0224  0.0543
 3953TIP3    H133274   6.431   2.937   4.687  0.5953 -1.1759 -1.1322
 3953TIP3    H233275   6.564   3.008   4.679 -0.0003  0.2400  0.8568
 3954TIP3   OH233276   1.752   0.859   1.001 -0.0918  0.2772  0.5128
 3954TIP3    H133277   1.672   0.909   1.012 -0.3968 -0.1855  0.4204
 3954TIP3    H233278   1.730   0.771   1.029 -0.8867 -0.9769 -3.4199
 3955TIP3   OH233279   4.038   3.215   1.010 -0.3444 -0.7248  0.1940
 3955TIP3    H133280   4.010   3.220   1.102  1.3150 -0.7824  0.7383
 3955TIP3    H233281   3.974   3.158   0.969 -1.1043 -0.7257  1.3277
 3956TIP3   OH233282   4.827   5.889   2.661  0.6874  0.5062 -0.1420
 3956TIP3    H133283   4.909   5.938   2.669  2.3426 -1.8985 -1.0560
 3956TIP3    H233284   4.818   5.873   2.567 -1.3089  1.3657 -0.1486
 3957TIP3   OH233285   5.466   5.987   2.474 -0.3813  0.3380  0.3214
 3957TIP3    H133286   5.544   5.979   2.529 -1.9712 -0.4009  2.6152
 3957TIP3    H233287   5.452   5.898   2.440  0.2012  0.6466 -0.7797
 3958TIP3   OH233288   1.827   2.567   4.974  0.2227  0.3198 -0.0618
 3958TIP3    H133289   1.763   2.600   5.037  1.1694  2.5642 -0.1535
 3958TIP3    H233290   1.909   2.610   4.999  0.9845 -0.0206 -1.8017
 3959TIP3   OH233291   4.327   3.287  14.790  0.3749 -0.8042 -0.0093
 3959TIP3    H133292   4.376   3.328  14.719  0.5147  0.3878  0.7515
 3959TIP3    H233293   4.394   3.248  14.846  0.4758  0.4323  0.7854
 3960TIP3   OH233294   0.379   3.714  15.291  0.6708 -0.0223  0.5526
 3960TIP3    H133295   0.389   3.807  15.309  2.0653 -0.2214  0.9090
 3960TIP3    H233296   0.298   3.708  15.240 -0.3923  1.1762  1.9948
 3961TIP3   OH233297   0.645   6.306   3.339 -0.3683 -0.6595 -0.0586
 3961TIP3    H133298   0.606   6.222   3.364 -1.1157 -0.1748  0.4442
 3961TIP3    H233299   0.573   6.355   3.300 -0.2604  0.2365  0.8362
 3962TIP3   OH233300   0.671   0.115  12.360  0.1374  0.3575  0.4405
 3962TIP3    H133301   0.611   0.044  12.338 -2.4280  2.0478  1.5376
 3962TIP3    H233302   0.698   0.098  12.450 -1.6863  1.4780  1.2457
 3963TIP3   OH233303   4.872   3.537   0.770  0.3477 -0.2423 -0.0505
 3963TIP3    H133304   4.850   3.446   0.785 -1.6096  0.4263  1.5902
 3963TIP3    H233305   4.916   3.565   0.851  1.3191  0.2030 -0.7012
 3964TIP3   OH233306   6.259   1.465   0.730 -0.0959  0.1472 -0.2382
 3964TIP3    H133307   6.220   1.462   0.817 -0.0785  1.0821 -0.1877
 3964TIP3    H233308   6.188   1.444   0.671 -0.2427  0.0620 -0.0325
 3965TIP3   OH233309   3.586   3.379   4.833 -0.2794 -0.5327 -0.3530
 3965TIP3    H133310   3.640   3.362   4.910 -1.4034 -2.2138  0.1034
 3965TIP3    H233311   3.513   3.431   4.866  0.3469  0.6292 -0.7303
 3966TIP3   OH233312   0.827   2.149  12.394  0.1154  0.5236 -0.3118
 3966TIP3    H133313   0.872   2.073  12.431  0.3813 -0.3137 -2.2173
 3966TIP3    H233314   0.866   2.224  12.438  0.5459 -0.3829  0.9130
 3967TIP3   OH233315   4.885   5.674  14.920 -0.1772  0.0350  0.6345
 3967TIP3    H133316   4.943   5.626  14.979  1.7065 -0.1702 -1.2584
 3967TIP3    H233317   4.823   5.608  14.888  0.0904 -0.3139  0.8293
 3968TIP3   OH233318   1.076   1.528   2.083  0.3019  0.3297 -0.2549
 3968TIP3    H133319   1.117   1.593   2.026 -1.6888  1.5235 -0.4448
 3968TIP3    H233320   1.082   1.566   2.171  0.5358  0.0226 -0.1394
 3969TIP3   OH233321   3.629   1.190   0.139 -0.1105  0.7011 -0.1425
 3969TIP3    H133322   3.706   1.137   0.120  1.8293  2.6031  1.7553
 3969TIP3    H233323   3.610   1.235   0.057 -0.1607 -0.8603 -1.0356
 3970TIP3   OH233324   0.073   5.053   2.166  0.0899  0.2182 -0.0804
 3970TIP3    H133325   0.150   5.028   2.115  1.3596  0.1630  1.7801
 3970TIP3    H233326   0.107   5.073   2.253 -2.0478 -0.1115  0.8900
 3971TIP3   OH233327   3.912   2.750   3.601 -0.0820 -0.0520 -0.6950
 3971TIP3    H133328   3.928   2.832   3.554  0.9127 -1.7051 -3.4871
 3971TIP3    H233329   3.968   2.755   3.678 -0.1227  1.9024 -0.7506
 3972TIP3   OH233330   3.588   5.794   2.427  0.1925 -0.2800  0.2457
 3972TIP3    H133331   3.550   5.747   2.502 -1.3453  2.1928  1.1366
 3972TIP3    H233332   3.609   5.881   2.462 -0.8725  1.0701 -2.2395
 3973TIP3   OH233333   4.694   3.766  11.398  0.2204  0.2001  0.3375
 3973TIP3    H133334   4.714   3.674  11.416 -0.5875 -0.0634 -0.0932
 3973TIP3    H233335   4.680   3.769  11.303  1.7288  1.0564  0.1102
 3974TIP3   OH233336   6.311   1.680   3.311 -0.4504  0.6662  0.5111
 3974TIP3    H133337   6.250   1.633   3.254 -0.3623 -0.7004  1.4844
 3974TIP3    H233338   6.371   1.724   3.251 -1.6414  1.0305 -0.4454
 3975TIP3   OH233339   0.839   0.154  10.711 -0.4737  0.1346 -0.5482
 3975TIP3    H133340   0.878   0.172  10.796 -0.7975 -0.0334 -0.3625
 3975TIP3    H233341   0.744   0.152  10.727 -0.4914 -0.9614 -0.7031
 3976TIP3   OH233342   4.231   6.103  11.645  0.2955  0.0363  0.2437
 3976TIP3    H133343   4.264   6.149  11.722 -0.2290  1.8041 -0.5394
 3976TIP3    H233344   4.136   6.114  11.648  0.2483 -0.1115 -0.5071
 3977TIP3   OH233345   6.132   6.400   5.558 -0.3519  0.2929  0.3606
 3977TIP3    H133346   6.192   6.456   5.607  0.6069 -0.3963  0.0181
 3977TIP3    H233347   6.096   6.340   5.623 -0.8365  0.8411  0.6032
 3978TIP3   OH233348   2.875   6.202   6.499 -0.4522  0.1165 -0.2295
 3978TIP3    H133349   2.929   6.240   6.568  0.9590  0.5231 -1.4802
 3978TIP3    H233350   2.927   6.216   6.419 -1.6977 -0.9561 -1.2606
 3979TIP3   OH233351   6.481   2.732  14.321 -0.5969 -0.3583  0.1913
 3979TIP3    H133352   6.460   2.676  14.396 -0.1785  0.1916  0.7157
 3979TIP3    H233353   6.541   2.679  14.268  0.1871 -0.2237  0.9334
 3980TIP3   OH233354   0.404   1.865   0.591  0.0076  0.5630  0.1908
 3980TIP3    H133355   0.418   1.774   0.617  0.3222  0.3461 -0.7101
 3980TIP3    H233356   0.449   1.916   0.659  0.9998  0.0063 -0.0269
 3981TIP3   OH233357   1.695   4.092   0.987 -0.2096 -0.0081  0.7877
 3981TIP3    H133358   1.729   4.002   0.996  0.0127  0.0344  0.4094
 3981TIP3    H233359   1.754   4.145   1.040  0.5074  0.1041 -0.0837
 3982TIP3   OH233360   5.059   3.279  11.590  0.2164  0.9142 -0.3057
 3982TIP3    H133361   5.062   3.369  11.623  1.2017  0.4744  0.8865
 3982TIP3    H233362   5.141   3.240  11.622 -0.5440 -0.6156 -0.1640
 3983TIP3   OH233363   4.949   0.616   3.271 -0.1774 -0.4500  0.3380
 3983TIP3    H133364   4.971   0.623   3.178 -1.8188 -1.4813 -0.1706
 3983TIP3    H233365   4.855   0.635   3.275  0.2771  1.9055  2.1395
 3984TIP3   OH233366   4.476   3.015  13.526 -0.2124 -0.3993  1.1303
 3984TIP3    H133367   4.409   3.028  13.459  0.3742 -1.8299  0.2037
 3984TIP3    H233368   4.555   2.990  13.477  1.2623  1.9552  2.1349
 3985TIP3   OH233369   6.080   6.304  12.733  0.3534  0.0783  0.0056
 3985TIP3    H133370   6.006   6.336  12.681 -0.2739  0.3330  1.0160
 3985TIP3    H233371   6.145   6.374  12.728  0.9753 -0.5594 -1.7018
 3986TIP3   OH233372   0.655   0.917  16.062 -0.3905  0.1247 -0.2950
 3986TIP3    H133373   0.742   0.917  16.102  0.9893 -1.6064 -3.0207
 3986TIP3    H233374   0.603   0.971  16.121  2.2405  0.4374  1.9990
 3987TIP3   OH233375   6.168   3.759  12.672  0.1344  0.2964  0.5465
 3987TIP3    H133376   6.206   3.764  12.759  1.2334 -1.9113  0.2645
 3987TIP3    H233377   6.135   3.669  12.665 -0.9428  0.7588 -0.9284
 3988TIP3   OH233378   5.663   0.693   2.118  0.0911 -0.5240 -0.0184
 3988TIP3    H133379   5.682   0.608   2.078  0.7945  0.0811 -1.0061
 3988TIP3    H233380   5.719   0.697   2.195 -0.9206 -1.5010  0.8030
 3989TIP3   OH233381   2.960   0.706   3.349  0.0675 -0.0645  0.3253
 3989TIP3    H133382   2.938   0.748   3.266  0.8009  1.8764  1.0703
 3989TIP3    H233383   2.879   0.711   3.400 -0.2536 -0.8643 -0.0779
 3990TIP3   OH233384   1.400   6.611  17.131  0.0158 -0.2695 -0.3106
 3990TIP3    H133385   1.335   6.655  17.075 -2.1681  0.9607  2.8892
 3990TIP3    H233386   1.347   6.561  17.194  2.3159 -1.6895  0.6062
 3991TIP3   OH233387   1.935   3.807  12.392  0.5718 -0.2057  0.5954
 3991TIP3    H133388   1.977   3.877  12.443 -0.5763  1.3571 -0.4804
 3991TIP3    H233389   1.859   3.782  12.444  0.4897 -0.0007  0.5763
 3992TIP3   OH233390   6.170   3.089  15.174 -0.2821 -0.2113 -0.4138
 3992TIP3    H133391   6.254   3.106  15.130  0.2627 -1.2192  0.1815
 3992TIP3    H233392   6.193   3.028  15.244 -1.6131 -0.9682 -0.6102
 3993TIP3   OH233393   4.140   2.429  14.894 -0.3504 -1.1556 -0.1955
 3993TIP3    H133394   4.079   2.478  14.839  1.6169  0.6398 -0.9021
 3993TIP3    H233395   4.211   2.403  14.835  1.8147  0.8133  1.3446
 3994TIP3   OH233396   0.512   2.122  12.807 -0.4520  0.0361 -0.0216
 3994TIP3    H133397   0.529   2.155  12.719  2.3547 -1.6018 -0.2240
 3994TIP3    H233398   0.599   2.113  12.846 -1.6100  0.5530  2.8907
 3995TIP3   OH233399   0.300   0.036   1.308  0.0561  0.0284 -0.0376
 3995TIP3    H133400   0.257   0.003   1.386  0.3618  0.6276  0.3921
 3995TIP3    H233401   0.241   0.013   1.236 -1.4864  1.6637  0.6313
 3996TIP3   OH233402   4.572   4.319  16.392 -0.1164 -0.3315  0.6188
 3996TIP3    H133403   4.615   4.243  16.353 -2.5118 -1.0581 -0.8860
 3996TIP3    H233404   4.526   4.361  16.318 -1.0880  0.9779  1.8985
 3997TIP3   OH233405   4.907   0.141   2.776  0.1653  0.3475  0.0182
 3997TIP3    H133406   4.817   0.116   2.755 -0.1321  0.0306  1.5554
 3997TIP3    H233407   4.959   0.065   2.752  0.2195  0.9526 -1.9769
 3998TIP3   OH233408   3.944   3.570   5.105  0.5362 -0.1291  0.0243
 3998TIP3    H133409   3.922   3.476   5.107  0.4452 -0.1063  0.0925
 3998TIP3    H233410   3.985   3.583   5.020  0.2745 -0.1703 -0.1115
 3999TIP3   OH233411   5.226   1.223   2.093  0.1371  0.2176  0.2160
 3999TIP3    H133412   5.160   1.258   2.034 -0.7572 -0.4263  0.7929
 3999TIP3    H233413   5.198   1.132   2.109  0.5987  0.2352  1.2453
 4000TIP3   OH233414   0.542   0.570  12.698  0.2187 -0.1174 -0.0694
 4000TIP3    H133415   0.459   0.527  12.678  0.5093 -1.3554  1.2192
 4000TIP3    H233416   0.529   0.661  12.672 -3.1858  0.8852  3.9653
 4001TIP3   OH233417   5.901   6.343   5.830  0.6675 -0.0672 -0.1590
 4001TIP3    H133418   5.933   6.422   5.873 -0.5606  0.1671  0.3884
 4001TIP3    H233419   5.962   6.274   5.855  0.6248  0.3067  1.0355
 4002TIP3   OH233420   0.481   2.238   6.710 -0.1281 -0.2257  0.0962
 4002TIP3    H133421   0.392   2.257   6.738 -0.1118 -1.4190  1.0613
 4002TIP3    H233422   0.471   2.181   6.635 -0.1958 -0.7642  0.5059
 4003TIP3   OH233423   6.554   4.249  17.170  0.3025  0.4445 -0.1710
 4003TIP3    H133424   6.584   4.163  17.138  1.7260  0.6635  0.4769
 4003TIP3    H233425   6.519   4.231  17.257  2.0804  0.7132  0.6436
 4004TIP3   OH233426   4.779   0.194  11.945 -0.3675 -0.2569  0.2477
 4004TIP3    H133427   4.719   0.126  11.914  1.1764 -0.7264 -1.9185
 4004TIP3    H233428   4.862   0.148  11.959  0.2824  0.8986  0.2726
 4005TIP3   OH233429   4.437   4.789   3.192 -0.3738  0.3032  0.0509
 4005TIP3    H133430   4.456   4.780   3.099 -0.9282 -0.6015  0.0091
 4005TIP3    H233431   4.349   4.826   3.195 -0.7863 -0.6619  0.1979
 4006TIP3   OH233432   2.737   1.627  14.726 -0.0769  0.0979  0.1014
 4006TIP3    H133433   2.769   1.574  14.799  0.8433 -1.5184 -1.3986
 4006TIP3    H233434   2.782   1.711  14.736  0.6442 -0.3683  0.9569
 4007TIP3   OH233435   0.893   5.989   4.538  0.1294  0.4359 -0.0025
 4007TIP3    H133436   0.846   6.053   4.485 -1.5594 -1.7128 -1.2472
 4007TIP3    H233437   0.846   5.907   4.525  2.1274 -1.0816  1.5952
 4008TIP3   OH233438   0.621   4.870  11.565  0.0201  0.0760 -0.2058
 4008TIP3    H133439   0.637   4.919  11.645 -0.1550  0.9050 -0.6656
 4008TIP3    H233440   0.702   4.823  11.548  0.3499  0.5662 -0.0015
 4009TIP3   OH233441   0.261   4.905  11.894 -0.0273  0.2519  0.1104
 4009TIP3    H133442   0.293   4.979  11.947  1.8357 -0.4739  0.0954
 4009TIP3    H233443   0.183   4.875  11.939  0.8610  0.3809  1.8245
 4010TIP3   OH233444   4.822   5.867  15.368  0.7668  0.2721  0.1821
 4010TIP3    H133445   4.800   5.892  15.278  0.7398  0.1843  0.1637
 4010TIP3    H233446   4.903   5.816  15.360  1.1165  0.8016  0.2733
 4011TIP3   OH233447   2.455   0.077   0.175 -0.3490 -0.3151 -0.1052
 4011TIP3    H133448   2.510   0.094   0.251  1.0512  0.7566 -1.2909
 4011TIP3    H233449   2.514   0.033   0.112 -1.3133 -0.6907 -0.7727
 4012TIP3   OH233450   1.667   0.258   4.533  0.0957  0.0459  0.4400
 4012TIP3    H133451   1.754   0.219   4.542  0.4004  0.9816  1.9888
 4012TIP3    H233452   1.626   0.244   4.618 -0.9473  0.3833  0.0073
 4013TIP3   OH233453   1.139   0.004   3.907 -0.1532 -0.4703 -0.4933
 4013TIP3    H133454   1.071  -0.030   3.965  0.7655  0.0007  0.9142
 4013TIP3    H233455   1.122   0.098   3.903 -0.9324 -0.6544 -1.9981
 4014TIP3   OH233456   6.717   2.290   5.575 -0.3677 -0.0789 -0.2826
 4014TIP3    H133457   6.720   2.195   5.563 -0.5697 -0.2008  0.5213
 4014TIP3    H233458   6.802   2.312   5.613  0.0203  0.1974 -1.2911
 4015TIP3   OH233459   6.045   4.245  12.268 -0.1176  0.0121 -0.0039
 4015TIP3    H133460   6.059   4.335  12.238  1.6527 -0.4839 -0.7908
 4015TIP3    H233461   5.950   4.233  12.265 -0.3205  1.5554 -0.7498
 4016TIP3   OH233462   4.746   1.078   1.384 -0.5429  0.0902 -0.8743
 4016TIP3    H133463   4.801   1.060   1.460 -0.6882 -0.0747 -0.8061
 4016TIP3    H233464   4.661   1.102   1.421  0.0601  2.4661 -0.9169
 4017TIP3   OH233465   2.697   2.794   4.730  0.5733  0.4227  0.4105
 4017TIP3    H133466   2.642   2.763   4.659  0.3038  1.8665 -0.0348
 4017TIP3    H233467   2.752   2.719   4.752  0.7709 -0.0049 -1.4141
 4018TIP3   OH233468   1.908   3.616  15.188  0.2455 -0.7057  0.4613
 4018TIP3    H133469   1.898   3.633  15.282 -0.5820 -1.8312  0.5882
 4018TIP3    H233470   1.899   3.521  15.179 -0.8712 -0.4980 -0.9042
 4019TIP3   OH233471   5.965   5.938   2.714  0.7237  0.2024  0.1065
 4019TIP3    H133472   6.038   5.882   2.739  0.2793 -0.0846  0.7851
 4019TIP3    H233473   5.968   6.010   2.776  0.6896  0.4187 -0.1403
 4020TIP3   OH233474   3.090   0.232   2.669 -0.3182 -0.2633 -1.0728
 4020TIP3    H133475   3.036   0.305   2.698  2.9468  1.8082  0.4009
 4020TIP3    H233476   3.174   0.272   2.645  1.7112 -3.5014 -0.0342
 4021TIP3   OH233477   5.454   6.509   0.727 -0.2869  0.0040  0.5379
 4021TIP3    H133478   5.421   6.429   0.769  2.2272 -2.3932 -1.6628
 4021TIP3    H233479   5.547   6.491   0.712  0.2397  3.1362 -0.6279
 4022TIP3   OH233480   1.424   0.741   1.979 -0.2011  0.0689  0.0657
 4022TIP3    H133481   1.378   0.699   1.907 -1.9588  0.4956  0.8725
 4022TIP3    H233482   1.359   0.799   2.018  1.3916  1.6015  0.5637
 4023TIP3   OH233483   5.103   4.390  15.689 -0.5388 -0.5490  0.1142
 4023TIP3    H133484   5.070   4.408  15.777  1.0800  1.0430  0.4697
 4023TIP3    H233485   5.187   4.347  15.704  0.3142  0.8005 -0.5932
 4024TIP3   OH233486   5.899   0.860   0.119 -0.0968 -0.6415 -0.0696
 4024TIP3    H133487   5.979   0.825   0.078  0.9118 -0.0055  1.2638
 4024TIP3    H233488   5.878   0.796   0.188  0.5663  0.2713  1.0239
 4025TIP3   OH233489   1.336   6.147   0.423 -0.0921  0.2669 -0.1834
 4025TIP3    H133490   1.294   6.066   0.394 -1.6163  1.5221 -1.6668
 4025TIP3    H233491   1.265   6.210   0.430  1.1181  1.6240  0.5274
 4026TIP3   OH233492   5.741   5.657   3.460 -0.4865  0.4731 -0.1833
 4026TIP3    H133493   5.795   5.724   3.501 -0.3630  1.4413 -1.8457
 4026TIP3    H233494   5.717   5.598   3.532  2.0000  0.5121  0.7925
 4027TIP3   OH233495   5.780   3.631  14.148  0.0088  0.2695 -0.4157
 4027TIP3    H133496   5.868   3.665  14.167 -0.2534  1.6752 -1.5503
 4027TIP3    H233497   5.721   3.684  14.201 -0.1564 -1.2890  1.0803
 4028TIP3   OH233498   5.621   2.431  11.387 -0.2169  0.5147  0.1597
 4028TIP3    H133499   5.656   2.355  11.342 -1.0997  0.1052  0.1454
 4028TIP3    H233500   5.559   2.395  11.451 -0.7837  1.2231  0.0249
 4029TIP3   OH233501   2.295   0.654   4.067 -0.0847  0.1327 -0.2377
 4029TIP3    H133502   2.255   0.733   4.104 -1.0029 -0.7504  0.7366
 4029TIP3    H233503   2.380   0.647   4.111 -0.0107  0.5512 -0.3109
 4030TIP3   OH233504   1.884   3.739  11.196  0.3361  0.2266 -0.6283
 4030TIP3    H133505   1.831   3.661  11.209  0.9574 -0.1843 -0.4805
 4030TIP3    H233506   1.896   3.745  11.102 -0.3824  0.6086 -0.7012
 4031TIP3   OH233507   5.508   2.785   3.186  0.5166 -0.0361  0.5943
 4031TIP3    H133508   5.470   2.817   3.268  4.6273  2.0167  2.0156
 4031TIP3    H233509   5.523   2.865   3.135  1.6060 -0.8516 -0.4090
 4032TIP3   OH233510   3.977   4.263   2.930 -0.0470  0.4087 -0.2752
 4032TIP3    H133511   3.959   4.262   3.024  0.7364 -0.9758 -0.1049
 4032TIP3    H233512   3.895   4.237   2.889  0.4536 -2.3760  0.2748
 4033TIP3   OH233513   5.893   6.136   0.304 -0.6955  0.2477  0.5823
 4033TIP3    H133514   5.822   6.105   0.247  0.4571 -0.8818 -0.3101
 4033TIP3    H233515   5.866   6.224   0.330 -1.6267  0.5135 -1.1062
 4034TIP3   OH233516   0.187   4.385   5.745 -0.6160  0.1971  0.3912
 4034TIP3    H133517   0.224   4.310   5.699 -1.1237  0.2463 -0.0952
 4034TIP3    H233518   0.204   4.366   5.838  0.1019 -0.0605  0.2148
 4035TIP3   OH233519   1.055   5.473   0.789 -0.2671  0.2028  0.1549
 4035TIP3    H133520   1.140   5.484   0.833 -0.4029  2.9923 -0.1254
 4035TIP3    H233521   1.055   5.540   0.720 -1.6886 -1.4445 -1.5502
 4036TIP3   OH233522   3.605   2.368   0.888 -0.2365  0.1906 -0.2124
 4036TIP3    H133523   3.692   2.342   0.918 -0.1934  0.3684 -0.1859
 4036TIP3    H233524   3.621   2.417   0.807 -0.2430  1.0488  0.2945
 4037TIP3   OH233525   4.407   0.201   2.768  0.0614  0.2293  0.3548
 4037TIP3    H133526   4.451   0.166   2.846 -0.5901  0.1947  0.7108
 4037TIP3    H233527   4.476   0.204   2.701  0.6348  0.2972  0.9399
 4038TIP3   OH233528   3.249   0.279   4.158  0.7070  0.1268 -0.0782
 4038TIP3    H133529   3.196   0.347   4.199  0.1896  0.1530 -0.7702
 4038TIP3    H233530   3.337   0.317   4.154  0.2749  1.0975 -1.1611
 4039TIP3   OH233531   4.311   4.933   0.862  0.2759 -0.2890 -0.1295
 4039TIP3    H133532   4.303   4.839   0.879 -1.2914  0.0060  0.8760
 4039TIP3    H233533   4.324   4.939   0.767 -0.7744 -1.4673 -0.3689
 4040TIP3   OH233534   3.887   1.709  12.424 -0.6942  0.3077 -0.1088
 4040TIP3    H133535   3.917   1.688  12.512 -0.5589  1.5288  0.1504
 4040TIP3    H233536   3.960   1.682  12.367 -0.8936 -0.7370  0.1027
 4041TIP3   OH233537   6.014   6.731   6.267 -0.1591  0.0346 -0.2639
 4041TIP3    H133538   5.990   6.694   6.182 -1.6711 -1.4002  0.7427
 4041TIP3    H233539   5.947   6.797   6.284  2.2656  3.2037 -1.8454
 4042TIP3   OH233540   3.278   0.600   5.503  0.1804 -0.5363 -0.1120
 4042TIP3    H133541   3.200   0.576   5.552 -0.5286 -2.0339 -1.8556
 4042TIP3    H233542   3.289   0.530   5.438  2.1968  0.3258 -0.8052
 4043TIP3   OH233543   6.727   5.684   2.746 -0.6503 -0.1771  0.4450
 4043TIP3    H133544   6.635   5.699   2.765 -0.9803 -2.0188  0.4848
 4043TIP3    H233545   6.774   5.734   2.812 -1.6186  0.4011  0.7172
 4044TIP3   OH233546   6.620   5.253  11.423  0.0235  0.5569  0.4245
 4044TIP3    H133547   6.613   5.176  11.479  1.8051 -0.8071 -1.1361
 4044TIP3    H233548   6.692   5.303  11.461  0.5676  0.1408 -0.0541
 4045TIP3   OH233549   5.497   3.774   1.312 -0.2044 -0.1962  0.2776
 4045TIP3    H133550   5.422   3.714   1.316  0.1000 -0.5884  0.2234
 4045TIP3    H233551   5.574   3.717   1.320  0.2679 -0.2810 -3.1223
 4046TIP3   OH233552   1.888   4.718  14.287 -0.1128 -0.5124 -0.4431
 4046TIP3    H133553   1.958   4.690  14.227 -0.9104 -1.0181 -1.1640
 4046TIP3    H233554   1.934   4.753  14.363  0.9328 -0.2579 -1.1650
 4047TIP3   OH233555   3.206   4.631   1.957  1.1373  0.8117  0.0371
 4047TIP3    H133556   3.257   4.579   1.895 -1.5170  1.5116 -2.9675
 4047TIP3    H233557   3.237   4.721   1.944 -0.1875  1.1203 -1.1937
 4048TIP3   OH233558   6.673   0.041   2.515 -0.2955  0.0230 -0.2104
 4048TIP3    H133559   6.767   0.046   2.530 -0.4033  0.2014  0.4269
 4048TIP3    H233560   6.663   0.056   2.421  0.2600  0.7274 -0.1660
 4049TIP3   OH233561   6.728   3.754  12.066 -0.3273  0.2657 -0.4327
 4049TIP3    H133562   6.795   3.820  12.048  0.9723 -1.2639 -1.5040
 4049TIP3    H233563   6.691   3.779  12.151  0.8139  1.7829 -0.3538
 4050TIP3   OH233564   6.382   1.812  15.547 -0.0120 -0.0248 -0.1705
 4050TIP3    H133565   6.390   1.719  15.526  0.5483  0.5636 -2.9545
 4050TIP3    H233566   6.411   1.819  15.638  1.1471 -2.3896 -0.2995
 4051TIP3   OH233567   5.582   1.692  17.080  0.2115  0.3782  0.2570
 4051TIP3    H133568   5.518   1.758  17.051  0.1039  0.3230  0.3632
 4051TIP3    H233569   5.550   1.610  17.045  1.8153  0.7160 -2.2337
 4052TIP3   OH233570   1.353   3.975  15.803 -0.0397  0.5466 -0.4362
 4052TIP3    H133571   1.349   3.998  15.896  1.2477 -1.1156  0.0815
 4052TIP3    H233572   1.447   3.972  15.783 -0.2181 -1.2044 -1.2068
 4053TIP3   OH233573   6.739   3.107   1.450  0.1127  0.3289 -0.5759
 4053TIP3    H133574   6.691   3.065   1.379  1.5462 -0.5908 -1.0368
 4053TIP3    H233575   6.692   3.079   1.529 -0.6361  0.1827 -1.0593
 4054TIP3   OH233576   3.558   6.411  16.558 -0.2465 -0.2054 -0.1437
 4054TIP3    H133577   3.587   6.404  16.468  2.2713 -0.0770  0.5847
 4054TIP3    H233578   3.548   6.320  16.587  0.9730 -0.3010  0.0208
 4055TIP3   OH233579   6.772   5.704   4.025  0.3770 -0.0456 -0.3218
 4055TIP3    H133580   6.826   5.693   4.103  2.1531  1.7079 -1.2033
 4055TIP3    H233581   6.751   5.615   3.998  1.7329 -0.7569  0.8195
 4056TIP3   OH233582   5.578   0.963   4.706  0.2662 -0.2453 -0.3697
 4056TIP3    H133583   5.590   0.928   4.617  1.8508 -0.1202 -0.2426
 4056TIP3    H233584   5.553   1.055   4.692  1.5466  0.0791 -0.7216
 4057TIP3   OH233585   6.496   2.932   5.249 -0.5087 -0.2628  0.1801
 4057TIP3    H133586   6.489   3.013   5.299 -1.7887  0.2750 -0.8101
 4057TIP3    H233587   6.484   2.959   5.158 -1.6163 -1.6098 -0.1120
 4058TIP3   OH233588   4.935   3.340  15.738  0.4198 -0.1920  0.2661
 4058TIP3    H133589   5.009   3.283  15.720  0.4963  0.0983 -0.3633
 4058TIP3    H233590   4.973   3.427  15.746  0.1349 -0.0093 -0.2602
 4059TIP3   OH233591   5.136   6.518   3.997 -0.2911 -0.4316 -0.0871
 4059TIP3    H133592   5.108   6.428   3.983  1.4618 -0.9429 -0.5867
 4059TIP3    H233593   5.175   6.545   3.914 -3.8183  2.0824 -1.1794
 4060TIP3   OH233594   6.751   1.106  17.036 -0.0611  0.2703  0.0211
 4060TIP3    H133595   6.795   1.189  17.020 -0.7303  0.5362 -0.4828
 4060TIP3    H233596   6.724   1.076  16.950 -0.6225 -0.0161  0.2898
 4061TIP3   OH233597   4.668   1.909  17.043  0.0416 -0.3406 -0.2317
 4061TIP3    H133598   4.689   1.968  17.116 -0.1510  0.3720 -0.7407
 4061TIP3    H233599   4.625   1.834  17.084 -1.8561  0.9333  0.2019
 4062TIP3   OH233600   4.496   3.150  16.832 -0.7788  0.1777  0.6758
 4062TIP3    H133601   4.440   3.141  16.909  0.1561 -0.5245  1.3076
 4062TIP3    H233602   4.576   3.190  16.866 -0.8991  1.2076 -0.2186
 4063TIP3   OH233603   2.388   1.619  16.948 -0.2485 -0.2309 -0.2872
 4063TIP3    H133604   2.347   1.535  16.930 -1.2424  0.1752  0.0500
 4063TIP3    H233605   2.365   1.638  17.039  1.7740 -0.5922  0.3602
 4064TIP3   OH233606   5.211   5.015   3.015  0.1432 -0.1168  0.2993
 4064TIP3    H133607   5.196   5.067   3.094  1.1824 -1.2865  1.3024
 4064TIP3    H233608   5.203   5.078   2.944  3.0803  1.8984  1.5461
 4065TIP3   OH233609   4.032   3.279  16.103 -0.1327  0.4211  0.1394
 4065TIP3    H133610   4.040   3.374  16.115 -0.1405  0.2517  1.6965
 4065TIP3    H233611   4.121   3.249  16.087  0.6086  0.2263  3.8178
 4066TIP3   OH233612   3.976   1.459   5.715 -0.0119  0.1848  0.0038
 4066TIP3    H133613   4.007   1.407   5.641 -0.5917 -0.6952  0.3649
 4066TIP3    H233614   4.056   1.496   5.753  0.4500 -0.6880 -0.0791
 4067TIP3   OH233615   1.124   4.913  11.759 -0.1575 -0.5085  0.2518
 4067TIP3    H133616   1.142   4.958  11.676 -0.7569  3.2574  1.9574
 4067TIP3    H233617   1.028   4.903  11.760  0.0408 -3.0301 -0.5845
 4068TIP3   OH233618   2.166   1.845  11.393 -0.0563  0.5409  0.2025
 4068TIP3    H133619   2.109   1.912  11.357  1.1702  1.4732 -0.0595
 4068TIP3    H233620   2.233   1.893  11.442  0.0887 -0.5529  1.1492
 4069TIP3   OH233621   3.599   2.028  11.711 -0.3806 -0.4564 -0.3961
 4069TIP3    H133622   3.638   2.046  11.625 -1.6808  0.1223 -0.8803
 4069TIP3    H233623   3.649   1.953  11.745  1.0845  0.2058 -1.0207
 4070TIP3   OH233624   4.406   4.460  13.138 -0.5973  0.6481  0.2975
 4070TIP3    H133625   4.390   4.470  13.045 -2.9939  2.6784  0.8231
 4070TIP3    H233626   4.354   4.384  13.164 -0.7414  0.7100  0.1863
 4071TIP3   OH233627   3.408   3.174  11.616  0.0027 -0.0656  0.2297
 4071TIP3    H133628   3.463   3.129  11.680 -1.1647 -1.7868  0.1200
 4071TIP3    H233629   3.368   3.103  11.565 -3.0461  0.9740  0.9435
 4072TIP3   OH233630   3.829   5.917   0.955  0.2058 -0.4808 -0.3757
 4072TIP3    H133631   3.836   5.997   0.903  0.2927 -0.9003 -1.0171
 4072TIP3    H233632   3.905   5.920   1.013 -0.2502  0.3146  0.2070
 4073TIP3   OH233633   4.320   5.552  13.031 -0.6231 -0.7348  0.6103
 4073TIP3    H133634   4.316   5.488  12.960 -0.0878 -0.3294  0.2059
 4073TIP3    H233635   4.236   5.599  13.025 -0.1538  0.0105 -0.4453
 4074TIP3   OH233636   2.635   2.913   4.976 -0.0807 -0.2372 -0.0542
 4074TIP3    H133637   2.647   2.871   4.891  1.0890 -0.2714  0.1128
 4074TIP3    H233638   2.586   2.993   4.957 -1.2582 -1.0463 -0.5309
 4075TIP3   OH233639   6.401   5.248  15.146  0.1462  0.1920  0.2626
 4075TIP3    H133640   6.369   5.162  15.119  2.3271  0.0802 -2.5125
 4075TIP3    H233641   6.479   5.230  15.199  1.2423  0.3684 -1.2190
 4076TIP3   OH233642   5.274   5.655   0.317 -0.4008 -0.1070 -0.5301
 4076TIP3    H133643   5.241   5.710   0.245 -0.3473  1.5291  0.6260
 4076TIP3    H233644   5.323   5.716   0.372  0.8674 -1.6405  0.0964
 4077TIP3   OH233645   5.066   0.628  15.221 -0.2557 -0.4721  0.1269
 4077TIP3    H133646   5.141   0.638  15.280  0.8988 -1.5661 -1.0575
 4077TIP3    H233647   4.998   0.588  15.275  0.8576 -1.7000  0.6846
 4078TIP3   OH233648   5.269   5.577  12.939  0.3289 -0.1106  0.0654
 4078TIP3    H133649   5.331   5.637  12.982  1.3399  1.1309 -2.8516
 4078TIP3    H233650   5.288   5.492  12.977  2.2334  0.6291  0.9142
 4079TIP3   OH233651   5.366   4.167  16.629 -0.2507 -0.3285 -0.4108
 4079TIP3    H133652   5.299   4.099  16.637 -0.5473  0.1080  1.3946
 4079TIP3    H233653   5.447   4.124  16.655  0.0286 -0.6040 -1.6667
 4080TIP3   OH233654   3.355   0.267   5.654  0.0314  0.1103 -0.4933
 4080TIP3    H133655   3.298   0.218   5.714  2.0473 -2.6164 -0.5870
 4080TIP3    H233656   3.297   0.293   5.582 -1.8030  0.7409  1.1146
 4081TIP3   OH233657   3.042   2.042  13.346  0.8513  0.0086 -0.8497
 4081TIP3    H133658   2.986   2.065  13.272  0.7749 -0.3044 -0.8907
 4081TIP3    H233659   3.001   1.964  13.384 -0.0391  1.0923  0.5176
 4082TIP3   OH233660   0.348   5.920   3.301 -0.1608 -0.3772  0.1415
 4082TIP3    H133661   0.347   5.852   3.369  0.1159 -0.2993  0.2233
 4082TIP3    H233662   0.419   5.979   3.327 -0.0233 -0.3716 -0.2419
 4083TIP3   OH233663   3.416   4.873  16.371 -0.5383 -0.2982 -0.5051
 4083TIP3    H133664   3.354   4.855  16.442  1.3401 -0.0501  1.2860
 4083TIP3    H233665   3.414   4.795  16.317  0.0032 -1.7210  1.4197
 4084TIP3   OH233666   4.124   4.104  12.740  0.3089 -0.3743  0.0761
 4084TIP3    H133667   4.122   4.191  12.698 -2.9705 -0.4323 -0.1557
 4084TIP3    H233668   4.122   4.043  12.666 -1.2543 -0.5276  0.2032
 4085TIP3   OH233669   0.882   1.040   1.718  0.0528  0.7619  0.1892
 4085TIP3    H133670   0.824   0.977   1.761  1.2053 -0.4573 -0.0024
 4085TIP3    H233671   0.937   1.074   1.788  0.6268  0.2154  0.0115
 4086TIP3   OH233672   3.487   5.412   3.348  0.1783  0.5396  0.1423
 4086TIP3    H133673   3.400   5.401   3.309  0.4949 -0.2496 -0.3560
 4086TIP3    H233674   3.539   5.454   3.279  0.8336 -1.1657 -0.4366
 4087TIP3   OH233675   1.073   4.279   5.577  0.1725 -0.4007 -0.1456
 4087TIP3    H133676   1.000   4.317   5.626  1.1320  1.4501 -0.0767
 4087TIP3    H233677   1.121   4.354   5.543  2.3109 -1.5275  0.1952
 4088TIP3   OH233678   1.720   4.264  16.952  0.1325  0.4938  0.2305
 4088TIP3    H133679   1.675   4.237  17.032 -1.7728 -0.2356 -1.0410
 4088TIP3    H233680   1.800   4.307  16.984  0.2088 -1.1147  2.4745
 4089TIP3   OH233681   0.858   2.978   2.564  0.1707 -0.4175  0.1085
 4089TIP3    H133682   0.918   2.907   2.546 -0.4814 -0.8694 -0.3615
 4089TIP3    H233683   0.890   3.051   2.510  1.5654  0.0714  1.5391
 4090TIP3   OH233684   1.901   1.931   5.496  0.0261  0.0795 -0.0069
 4090TIP3    H133685   1.882   1.952   5.405 -1.6459 -0.5536  0.1731
 4090TIP3    H233686   1.817   1.935   5.540  0.5446 -1.2757  1.1751
 4091TIP3   OH233687   3.046   2.235   4.845  0.4923 -0.0830 -0.5625
 4091TIP3    H133688   3.046   2.139   4.849 -0.5446 -0.1167 -0.8665
 4091TIP3    H233689   3.102   2.256   4.771  0.6394 -0.4647 -0.5625
 4092TIP3   OH233690   2.688   5.370   2.933  0.0156  0.3987  0.6143
 4092TIP3    H133691   2.776   5.383   2.899 -0.7491  1.0385 -1.2016
 4092TIP3    H233692   2.677   5.441   2.997  0.3551  1.1348 -0.1224
 4093TIP3   OH233693   0.042   5.099  15.948  0.0614 -0.3329  0.2717
 4093TIP3    H133694   0.083   5.171  15.899 -0.9803 -0.6643 -1.1715
 4093TIP3    H233695   0.034   5.132  16.037  0.2539  1.0852 -0.2034
 4094TIP3   OH233696   0.229   2.615  15.991  0.6021 -0.4127  0.1266
 4094TIP3    H133697   0.322   2.596  16.008  0.7735  1.3127  1.4276
 4094TIP3    H233698   0.227   2.646  15.901  1.3641 -0.0961  0.2098
 4095TIP3   OH233699   1.759   2.551   5.549 -0.3631 -0.0222  0.2687
 4095TIP3    H133700   1.719   2.618   5.605 -1.6495  0.7230 -1.4367
 4095TIP3    H233701   1.831   2.515   5.602 -2.5627 -0.6475  3.0792
 4096TIP3   OH233702   2.368   2.111  12.610 -0.5511  0.0855  0.1581
 4096TIP3    H133703   2.410   2.034  12.647 -1.0495 -0.0330  0.4739
 4096TIP3    H233704   2.395   2.183  12.667 -0.5301  0.0593  0.1810
 4097TIP3   OH233705   1.594   4.598  10.153  0.0991  0.0009 -0.0817
 4097TIP3    H133706   1.509   4.610  10.195 -0.5844 -0.1971 -1.3440
 4097TIP3    H233707   1.606   4.503  10.149  0.0036  0.0050 -0.5921
 4098TIP3   OH233708   0.896   4.951  12.776  0.5309  0.4000 -0.0169
 4098TIP3    H133709   0.925   4.977  12.863  1.5161 -1.0268  0.1173
 4098TIP3    H233710   0.886   4.856  12.781  0.7492  0.2705 -1.4969
 4099TIP3   OH233711   0.880   0.802   1.102 -0.9065 -0.6937 -0.1073
 4099TIP3    H133712   0.941   0.816   1.030 -1.2530 -2.3129 -0.7613
 4099TIP3    H233713   0.934   0.807   1.181 -0.8139  2.9887 -0.2321
 4100TIP3   OH233714   5.372   3.552   5.606  0.6454 -0.4517 -0.6567
 4100TIP3    H133715   5.302   3.535   5.669 -0.3549  0.4115 -1.4847
 4100TIP3    H233716   5.350   3.638   5.569  2.8267  0.4430 -0.0589
 4101TIP3   OH233717   3.957   3.790  13.232  0.0512 -0.5166  1.1035
 4101TIP3    H133718   3.978   3.793  13.138  0.8447 -0.6128  1.2750
 4101TIP3    H233719   3.991   3.705  13.261  0.0299 -0.3807  1.5300
 4102TIP3   OH233720   3.977   3.354   3.370 -0.1609 -0.2047  0.2693
 4102TIP3    H133721   3.889   3.332   3.340 -0.3368 -2.5210  2.2082
 4102TIP3    H233722   3.974   3.449   3.384 -1.8529  0.0036 -1.1684
 4103TIP3   OH233723   5.114   6.616  16.606 -0.1154 -0.1561  0.6626
 4103TIP3    H133724   5.122   6.602  16.512 -0.6827  0.0566  0.5726
 4103TIP3    H233725   5.048   6.685  16.613 -0.0077 -0.1106  1.2107
 4104TIP3   OH233726   5.839   0.626   0.308 -0.1594  0.9019  0.9777
 4104TIP3    H133727   5.777   0.618   0.235 -0.0810 -0.7703  1.0573
 4104TIP3    H233728   5.868   0.537   0.325  1.0958  1.4648  1.9815
 4105TIP3   OH233729   5.529   6.543  13.938  0.4197 -0.3657  0.1574
 4105TIP3    H133730   5.616   6.542  13.978 -0.4236  0.9782  2.1879
 4105TIP3    H233731   5.545   6.553  13.844  2.4549 -1.4869  0.3434
 4106TIP3   OH233732   6.217   5.393  12.272  0.3512  0.3755  0.0566
 4106TIP3    H133733   6.132   5.386  12.229 -1.6154  0.4043  3.5318
 4106TIP3    H233734   6.220   5.484  12.303 -0.2924 -0.5674  3.2684
 4107TIP3   OH233735   6.476   2.605  16.496 -0.5510 -0.2894 -0.1279
 4107TIP3    H133736   6.467   2.606  16.400  3.5107  2.0172 -0.7548
 4107TIP3    H233737   6.415   2.672  16.526  1.6439  2.7507 -1.8674
 4108TIP3   OH233738   3.258   1.729  14.414 -0.6106  0.1301 -0.1109
 4108TIP3    H133739   3.242   1.635  14.425  1.6974 -0.2051  0.9731
 4108TIP3    H233740   3.202   1.754  14.341 -0.9545 -2.2063 -0.7388
 4109TIP3   OH233741   0.314   1.038   0.762 -0.8028 -0.3081 -0.0671
 4109TIP3    H133742   0.245   1.035   0.828 -0.4716 -1.5478  0.2498
 4109TIP3    H233743   0.324   0.947   0.733  1.3572 -0.3564  0.6310
 4110TIP3   OH233744   3.449   1.893  14.548  0.0763  0.0101  0.0577
 4110TIP3    H133745   3.391   1.823  14.518  1.6022 -1.2303 -0.1743
 4110TIP3    H233746   3.433   1.965  14.487 -1.2655 -0.2521  0.0659
 4111TIP3   OH233747   5.283   1.441   4.039  0.2346  0.7489 -0.5319
 4111TIP3    H133748   5.289   1.537   4.047 -0.6180  0.8057 -0.4554
 4111TIP3    H233749   5.354   1.417   3.980  1.2470  1.2923  0.4273
 4112TIP3   OH233750   0.122   1.629  13.771 -0.5848  0.5862  0.2029
 4112TIP3    H133751   0.041   1.668  13.739 -0.8298  0.0027  0.0983
 4112TIP3    H233752   0.110   1.621  13.865 -0.7599  0.2429  0.1509
 4113TIP3   OH233753   1.397   3.102  14.784 -0.3145  0.1138 -0.0609
 4113TIP3    H133754   1.486   3.094  14.818  0.0680 -0.2270 -1.1085
 4113TIP3    H233755   1.397   3.049  14.704 -1.5509 -0.1470  0.1006
 4114TIP3   OH233756   4.056   3.887   4.898  0.4508 -0.3587 -0.1202
 4114TIP3    H133757   4.128   3.916   4.841 -0.7155  0.7848 -1.0968
 4114TIP3    H233758   4.094   3.884   4.985  1.0892  2.9084 -0.1307
 4115TIP3   OH233759   1.539   1.292   0.291 -0.7703 -0.3272  0.3265
 4115TIP3    H133760   1.585   1.255   0.366  0.8704 -0.0843 -0.5156
 4115TIP3    H233761   1.488   1.365   0.327  1.4632  1.0039  0.9948
 4116TIP3   OH233762   3.008   2.069  16.360 -0.1537  0.0013 -0.8467
 4116TIP3    H133763   3.072   2.100  16.424  1.5247 -1.2745 -1.8263
 4116TIP3    H233764   2.966   1.993  16.401  1.5342 -1.3544 -1.5006
 4117TIP3   OH233765   1.315   3.105   5.856  0.0859 -0.2859  0.7383
 4117TIP3    H133766   1.313   3.198   5.876  1.5727 -0.1651  0.4466
 4117TIP3    H233767   1.224   3.081   5.840 -0.5266  0.7579  2.3896
 4118TIP3   OH233768   5.226   1.275  12.894  0.3163 -0.2498  0.6742
 4118TIP3    H133769   5.293   1.324  12.846  0.3634 -0.5839  0.3994
 4118TIP3    H233770   5.166   1.343  12.926  1.8549  0.2822  2.6879
 4119TIP3   OH233771   0.835   0.959  15.051 -0.1607 -0.2017 -0.7509
 4119TIP3    H133772   0.748   0.973  15.088 -0.2621 -2.1883 -0.0994
 4119TIP3    H233773   0.819   0.932  14.961 -0.1246  0.7823 -1.0628
 4120TIP3   OH233774   6.258   3.399   2.474 -0.3241 -0.2131 -0.1473
 4120TIP3    H133775   6.223   3.450   2.548 -0.7566  0.8939 -1.0840
 4120TIP3    H233776   6.324   3.343   2.514 -2.2359 -1.4475  1.4669
 4121TIP3   OH233777   1.601   0.709   5.406 -0.2272  0.8000  0.3714
 4121TIP3    H133778   1.696   0.719   5.415  0.0005 -1.1955  0.8286
 4121TIP3    H233779   1.564   0.780   5.458  1.0214  1.2120  0.7323
 4122TIP3   OH233780   3.049   5.855  14.755 -0.3470 -0.2244  0.2033
 4122TIP3    H133781   3.137   5.842  14.790  0.3764 -0.7103 -1.7240
 4122TIP3    H233782   3.028   5.946  14.778  1.9901  0.9852 -2.0239
 4123TIP3   OH233783   3.038   3.835   2.264 -0.0418  0.6791 -0.7565
 4123TIP3    H133784   3.072   3.753   2.228  0.8728  1.1372 -0.9653
 4123TIP3    H233785   3.112   3.875   2.308 -0.0531  2.1053 -1.9356
 4124TIP3   OH233786   4.932   4.601   3.173  0.7125 -0.5624  0.0609
 4124TIP3    H133787   4.929   4.535   3.242  1.9124 -1.5952 -0.8048
 4124TIP3    H233788   4.913   4.684   3.217  1.2274 -1.2183  1.5908
 4125TIP3   OH233789   6.753   6.126   3.166  0.1251  0.5815  0.5210
 4125TIP3    H133790   6.704   6.192   3.116  1.1638  0.0526 -1.2664
 4125TIP3    H233791   6.690   6.093   3.230 -1.1204  1.6255 -0.1176
 4126TIP3   OH233792   3.634   5.967   6.179  0.9597 -0.6347 -0.1770
 4126TIP3    H133793   3.545   5.937   6.191  0.6268 -0.0097 -0.9512
 4126TIP3    H233794   3.636   6.054   6.217  0.7439  0.0637 -1.6811
 4127TIP3   OH233795   1.071   5.361   3.294 -0.7664  0.1815  0.2758
 4127TIP3    H133796   1.087   5.281   3.344  0.1570 -0.5712 -1.1459
 4127TIP3    H233797   1.127   5.427   3.335  0.6600 -0.6485 -0.2925
 4128TIP3   OH233798   5.985   3.238  15.029  0.3761 -0.1688 -0.2813
 4128TIP3    H133799   6.019   3.197  15.108 -1.7598 -2.3551 -0.3820
 4128TIP3    H233800   6.017   3.183  14.957 -1.8276 -1.3032 -0.4821
 4129TIP3   OH233801   1.244   6.308   5.569  0.0494 -0.3359 -0.0495
 4129TIP3    H133802   1.292   6.352   5.498  0.8631  0.9336  1.2389
 4129TIP3    H233803   1.312   6.279   5.629 -0.7099  0.2526  1.1242
 4130TIP3   OH233804   4.998   1.564  11.605 -0.3553  0.5332  0.2726
 4130TIP3    H133805   4.948   1.619  11.664  0.1519  2.0100 -0.6121
 4130TIP3    H233806   5.053   1.625  11.555 -0.0636 -0.7289 -1.0469
 4131TIP3   OH233807   4.192   5.458   1.643  0.5174 -0.0553  0.3524
 4131TIP3    H133808   4.182   5.538   1.695  1.8490 -0.8464  1.8837
 4131TIP3    H233809   4.110   5.411   1.654  0.1552  0.5624  0.3498
 4132TIP3   OH233810   2.274   3.617  15.441  0.4069  0.7478  0.4425
 4132TIP3    H133811   2.342   3.593  15.377  1.6045  1.0309  1.5521
 4132TIP3    H233812   2.237   3.533  15.469 -0.1407  0.6249 -0.6278
 4133TIP3   OH233813   4.672   6.727  12.725 -0.3572  0.7452 -0.6906
 4133TIP3    H133814   4.693   6.782  12.649  0.5941 -0.3517 -1.2653
 4133TIP3    H233815   4.663   6.639  12.688 -0.6556  0.3190  0.3715
 4134TIP3   OH233816   4.048   6.040  16.886 -0.9774 -0.0893  0.0382
 4134TIP3    H133817   4.018   6.108  16.825  1.5597  0.7516 -0.3987
 4134TIP3    H233818   4.100   5.981  16.833 -0.2360 -0.3849  1.0551
 4135TIP3   OH233819   5.292   6.488  13.228  0.0398 -0.5942 -0.3563
 4135TIP3    H133820   5.234   6.414  13.242 -1.5289  0.7359  0.5438
 4135TIP3    H233821   5.233   6.561  13.207  1.5632  0.2696 -1.8669
 4136TIP3   OH233822   2.815   3.776  12.198  0.3444  0.0424  0.1922
 4136TIP3    H133823   2.743   3.786  12.136 -0.1870 -1.4072  0.5352
 4136TIP3    H233824   2.845   3.686  12.186  3.2590  1.0762 -1.1251
 4137TIP3   OH233825   2.622   0.652  10.934  0.0524  0.1744  0.4600
 4137TIP3    H133826   2.571   0.587  10.885  1.3948  0.4109 -1.3572
 4137TIP3    H233827   2.689   0.600  10.980 -0.0128  0.1251  0.5001
 4138TIP3   OH233828   1.358   4.272  11.610  0.0638  0.5307  0.2110
 4138TIP3    H133829   1.328   4.194  11.563  1.3328  0.1348 -0.0017
 4138TIP3    H233830   1.310   4.271  11.693 -1.0668  0.3884 -0.4301
 4139TIP3   OH233831   4.495   6.399   1.973 -1.1150 -0.8076  0.5146
 4139TIP3    H133832   4.578   6.393   2.021 -1.7089 -1.1124  1.5437
 4139TIP3    H233833   4.493   6.320   1.919 -1.1964 -1.3217  1.2577
 4140TIP3   OH233834   6.111   2.487   0.368  0.2927  0.6603  0.2831
 4140TIP3    H133835   6.069   2.475   0.282  0.7963  0.0391  0.1119
 4140TIP3    H233836   6.151   2.574   0.363 -0.1507  0.8598  0.0980
 4141TIP3   OH233837   1.846   2.352   2.675  0.9356 -0.2435  0.1588
 4141TIP3    H133838   1.853   2.436   2.631 -1.1308 -0.3463 -0.4717
 4141TIP3    H233839   1.882   2.289   2.613  0.2276 -0.1014 -0.4061
 4142TIP3   OH233840   4.712   4.776   3.250  0.3346  0.2128 -0.3601
 4142TIP3    H133841   4.703   4.703   3.311 -0.7340  2.0530  1.8476
 4142TIP3    H233842   4.642   4.763   3.186 -0.1824 -0.4318  0.3200
 4143TIP3   OH233843   5.467   3.618  13.176  0.2126 -0.2490 -0.4012
 4143TIP3    H133844   5.379   3.633  13.212 -0.6914 -1.2515 -2.0963
 4143TIP3    H233845   5.493   3.703  13.140 -1.0544 -0.4585 -1.9035
 4144TIP3   OH233846   1.332   4.438   0.236 -0.1657  0.2968 -0.6029
 4144TIP3    H133847   1.365   4.527   0.227  0.2495  0.1735 -0.3260
 4144TIP3    H233848   1.406   4.382   0.212 -0.0047  0.0126  0.4721
 4145TIP3   OH233849   3.612   0.963   0.296 -0.3495 -0.3900  0.6056
 4145TIP3    H133850   3.584   1.040   0.245  0.6901 -0.6643 -0.4249
 4145TIP3    H233851   3.532   0.911   0.306 -0.8753  0.3791  0.5266
 4146TIP3   OH233852   5.837   0.356  14.571  0.2757 -0.2438  0.4288
 4146TIP3    H133853   5.834   0.282  14.631 -2.4229 -0.1137  0.5489
 4146TIP3    H233854   5.747   0.366  14.539  0.5961  2.7604  0.1672
 4147TIP3   OH233855   3.963   1.507   1.125 -0.1763 -0.0247  0.2515
 4147TIP3    H133856   3.890   1.517   1.064 -0.5463 -0.5281  0.5951
 4147TIP3    H233857   3.928   1.538   1.209 -0.6381 -2.0133  0.8425
 4148TIP3   OH233858   3.476   2.295  15.278 -0.0210  0.3316  0.3034
 4148TIP3    H133859   3.432   2.283  15.194 -3.3642  1.7008  1.6677
 4148TIP3    H233860   3.554   2.346  15.257  0.8099 -1.7025 -2.2048
 4149TIP3   OH233861   3.199   1.511  16.055 -0.4656 -0.0149 -0.1086
 4149TIP3    H133862   3.278   1.546  16.015 -1.0597 -0.4894 -1.8405
 4149TIP3    H233863   3.159   1.458  15.985 -1.7557 -0.6476  1.0524
 4150TIP3   OH233864   1.492   5.155   0.268  0.1588 -0.3428 -0.0635
 4150TIP3    H133865   1.419   5.159   0.206 -0.1182 -2.3635  0.0691
 4150TIP3    H233866   1.556   5.217   0.233 -2.3756  3.2294  1.0067
 4151TIP3   OH233867   2.920   2.556   3.272  0.0128  0.0357  0.2652
 4151TIP3    H133868   2.988   2.489   3.276  0.6074  0.6671  1.0608
 4151TIP3    H233869   2.932   2.607   3.352 -0.1211  1.3833 -0.5474
 4152TIP3   OH233870   1.531   4.325   2.298  0.0666 -0.3563  0.5175
 4152TIP3    H133871   1.601   4.362   2.352  0.6782 -1.8774  0.8216
 4152TIP3    H233872   1.560   4.339   2.208  0.8646 -1.1633  0.6475
 4153TIP3   OH233873   1.876   5.513  15.436  0.4193  0.1315  0.0878
 4153TIP3    H133874   1.861   5.574  15.508 -1.6463 -0.7526  0.4796
 4153TIP3    H233875   1.804   5.449  15.443  0.5908 -0.4197 -2.2853
 4154TIP3   OH233876   2.029   6.138  12.177  0.0098 -0.1337  0.3017
 4154TIP3    H133877   2.110   6.145  12.125  0.2813 -1.8713  0.4502
 4154TIP3    H233878   2.002   6.229  12.190  0.3898  0.4115 -2.1720
 4155TIP3   OH233879   1.222   3.823   3.303 -0.1103 -0.3109 -0.1591
 4155TIP3    H133880   1.164   3.865   3.366 -0.9958 -0.8178 -0.6209
 4155TIP3    H233881   1.212   3.729   3.319 -0.6315 -0.4644 -1.2766
 4156TIP3   OH233882   1.369   4.003   3.110 -0.5432  0.0799  0.3568
 4156TIP3    H133883   1.393   3.933   3.170 -1.4007 -1.1314 -0.6481
 4156TIP3    H233884   1.406   4.082   3.148  2.0744 -1.1517  0.5920
 4157TIP3   OH233885   5.973   0.976   4.688  0.0149  0.2083  0.1646
 4157TIP3    H133886   5.946   0.970   4.780 -0.6619  0.0376 -0.0355
 4157TIP3    H233887   5.891   0.977   4.639  0.3060  2.0706 -0.3589
 4158TIP3   OH233888   4.902   2.839  13.215  0.1169 -0.1729  0.5233
 4158TIP3    H133889   4.860   2.909  13.166 -0.1155 -0.2849  0.5606
 4158TIP3    H233890   4.968   2.804  13.155 -0.8612 -0.9991 -0.1163
 4159TIP3   OH233891   3.840   2.356   0.141  0.0153 -0.5427  0.3486
 4159TIP3    H133892   3.862   2.426   0.080 -1.1208 -0.0612  0.4728
 4159TIP3    H233893   3.746   2.344   0.132 -0.2464 -0.2348  2.2057
 4160TIP3   OH233894   3.381   0.551  14.775 -0.1039  0.2987 -0.1886
 4160TIP3    H133895   3.315   0.488  14.745 -1.7613  1.5123  0.7602
 4160TIP3    H233896   3.404   0.600  14.696 -0.3271 -0.1412 -0.5323
 4161TIP3   OH233897   0.875   3.189  12.074  0.2700 -0.3770 -0.4987
 4161TIP3    H133898   0.924   3.124  12.024  0.7271  0.2313 -0.8492
 4161TIP3    H233899   0.933   3.265  12.079  2.5551 -1.9577  5.3502
 4162TIP3   OH233900   2.309   4.732  10.736  0.6416  0.0093 -0.2265
 4162TIP3    H133901   2.285   4.729  10.828 -0.9657 -1.5776 -0.6437
 4162TIP3    H233902   2.405   4.731  10.736  0.6649  0.0621  1.4136
 4163TIP3   OH233903   1.103   4.044  17.237 -0.0708 -0.5836  0.0695
 4163TIP3    H133904   1.080   3.954  17.259 -0.9955 -0.0105  1.5839
 4163TIP3    H233905   1.022   4.082  17.202  0.9951 -1.0635 -3.2836
 4164TIP3   OH233906   1.833   0.285   3.861  0.3021  0.8831 -0.0837
 4164TIP3    H133907   1.766   0.345   3.828  1.1413  0.7482 -2.2216
 4164TIP3    H233908   1.797   0.198   3.845  0.9482  0.8079 -1.3165
 4165TIP3   OH233909   6.385   1.792  15.154 -0.1527 -0.0418 -0.1679
 4165TIP3    H133910   6.319   1.786  15.085 -0.4482  0.3078  0.0808
 4165TIP3    H233911   6.447   1.721  15.134 -1.1773 -1.0704  0.2085
 4166TIP3   OH233912   2.243   5.878  15.666  0.3793  0.2121  0.4608
 4166TIP3    H133913   2.275   5.952  15.615  0.4935  0.3428  0.7245
 4166TIP3    H233914   2.150   5.871  15.643  0.2328  0.7936  0.8729
 4167TIP3   OH233915   2.315   5.752   0.935  0.3055  0.3190 -0.1064
 4167TIP3    H133916   2.251   5.820   0.954 -1.0145 -0.3580 -1.8707
 4167TIP3    H233917   2.400   5.795   0.948 -0.4639  1.4270  1.6126
 4168TIP3   OH233918   3.023   1.247  15.598 -0.1941 -0.1325  0.4612
 4168TIP3    H133919   2.956   1.302  15.557  2.4959  1.3946 -2.3991
 4168TIP3    H233920   3.092   1.242  15.532  1.3877 -3.8856  2.1253
 4169TIP3   OH233921   1.694   4.725  11.070  0.1847 -0.1359  0.3873
 4169TIP3    H133922   1.702   4.631  11.050 -0.6668 -0.0340 -0.4958
 4169TIP3    H233923   1.750   4.768  11.006 -0.5403  0.0319 -0.1517
 4170TIP3   OH233924   5.813   4.144   5.046 -0.0397  0.5081  0.0868
 4170TIP3    H133925   5.775   4.205   5.109 -0.0510 -0.8021  1.4066
 4170TIP3    H233926   5.787   4.179   4.961 -1.5426  1.3697  0.8469
 4171TIP3   OH233927   5.692   4.307   3.042 -0.6079  0.7881 -0.1158
 4171TIP3    H133928   5.606   4.286   3.079 -0.2637  1.4421  1.1116
 4171TIP3    H233929   5.725   4.222   3.011 -1.2722  0.3573  0.3151
 4172TIP3   OH233930   3.005   5.959  12.729 -0.1502  0.5640  0.1388
 4172TIP3    H133931   2.927   5.917  12.695 -0.0839  0.0302  0.6331
 4172TIP3    H233932   3.007   5.935  12.822 -0.0191  1.5155  0.3987
 4173TIP3   OH233933   0.095   0.159   0.895  0.6145 -0.5844  0.3337
 4173TIP3    H133934   0.187   0.150   0.869  0.1852 -2.3424 -0.7527
 4173TIP3    H233935   0.058   0.218   0.830  0.8571 -0.2337  0.5072
 4174TIP3   OH233936   3.140   2.157   0.882  0.2442 -0.0912  0.0940
 4174TIP3    H133937   3.055   2.132   0.844  0.5476  0.5152 -1.0137
 4174TIP3    H233938   3.117   2.193   0.968 -0.5908 -0.2269 -0.0565
 4175TIP3   OH233939   6.490   3.635  13.955 -0.0426 -0.4692  0.0144
 4175TIP3    H133940   6.569   3.603  13.998 -0.6743 -0.4153  1.2686
 4175TIP3    H233941   6.462   3.709  14.009 -1.2634 -0.8494 -0.0811
 4176TIP3   OH233942   1.267   2.425  16.248 -0.0159 -0.0804  0.0690
 4176TIP3    H133943   1.333   2.386  16.192 -0.4313 -0.0781 -0.4256
 4176TIP3    H233944   1.315   2.490  16.300  0.1186  1.0318 -1.3813
 4177TIP3   OH233945   3.486   5.398  12.207 -0.2027 -0.0299 -0.0865
 4177TIP3    H133946   3.569   5.354  12.224 -0.3546 -0.4442 -0.4133
 4177TIP3    H233947   3.454   5.422  12.294  0.7500  1.0638 -0.0071
 4178TIP3   OH233948   3.854   1.440   1.882  0.1428  0.1132  0.1083
 4178TIP3    H133949   3.808   1.472   1.805 -1.1713 -0.1682  0.7417
 4178TIP3    H233950   3.785   1.398   1.935  1.5069 -2.4682  0.0080
 4179TIP3   OH233951   1.860   6.327   0.079 -0.1268 -0.8337 -0.0690
 4179TIP3    H133952   1.877   6.233   0.069  0.2730 -0.8654  0.8198
 4179TIP3    H233953   1.893   6.348   0.166 -0.4021  0.0953 -0.1806
 4180TIP3   OH233954   3.956   2.172  11.800  0.4075  0.0778  0.1862
 4180TIP3    H133955   3.887   2.182  11.866  1.3057  0.8796  1.0458
 4180TIP3    H233956   3.998   2.089  11.821  0.6733  0.3185  0.6154
 4181TIP3   OH233957   6.373   4.266   0.883 -0.2445 -0.6047 -0.3404
 4181TIP3    H133958   6.390   4.239   0.973  1.0068  0.3797 -0.2538
 4181TIP3    H233959   6.432   4.340   0.868 -0.7229 -0.4812 -1.8394
 4182TIP3   OH233960   2.453   6.413  11.904  0.3650  0.2255 -0.8178
 4182TIP3    H133961   2.371   6.435  11.947  2.0131  2.8851  1.2881
 4182TIP3    H233962   2.442   6.443  11.813 -0.9604  0.5157 -0.5789
 4183TIP3   OH233963   5.699   6.209  15.914  0.1490 -0.5930 -0.0085
 4183TIP3    H133964   5.636   6.236  15.848 -0.0760  1.2246  0.8928
 4183TIP3    H233965   5.646   6.173  15.985  0.2574 -0.7348  0.0014
 4184TIP3   OH233966   5.101   1.673   1.278 -0.2123 -0.1800  0.5921
 4184TIP3    H133967   5.120   1.579   1.272 -1.4572 -0.4629  0.7232
 4184TIP3    H233968   5.054   1.693   1.197 -0.1041  0.2854  0.6447
 4185TIP3   OH233969   2.140   1.692   4.937 -0.4203 -0.3194 -0.3400
 4185TIP3    H133970   2.140   1.663   5.028 -0.6420  0.8659  0.0577
 4185TIP3    H233971   2.131   1.788   4.942  1.4354 -0.0245 -1.5459
 4186TIP3   OH233972   0.799   6.266   2.194  0.6414 -0.0585  0.4199
 4186TIP3    H133973   0.736   6.327   2.157  1.1092  0.3363  0.2611
 4186TIP3    H233974   0.753   6.224   2.267  0.1332  0.0699  0.1713
 4187TIP3   OH233975   4.217   1.858   5.110  0.1444 -0.2419  0.0373
 4187TIP3    H133976   4.167   1.934   5.140  0.4747 -0.2640  0.6775
 4187TIP3    H233977   4.177   1.783   5.155  0.3919 -0.3302  0.1133
 4188TIP3   OH233978   1.426   6.208   0.751 -0.6680 -0.4256  0.8227
 4188TIP3    H133979   1.395   6.281   0.804  1.1412  1.4588 -0.5815
 4188TIP3    H233980   1.411   6.236   0.661  0.1818 -1.7371  0.2501
 4189TIP3   OH233981   4.520   2.989  15.734 -0.2408  0.1508  0.2947
 4189TIP3    H133982   4.530   3.077  15.770  1.4484 -0.4386  1.3870
 4189TIP3    H233983   4.430   2.963  15.756 -1.0417  1.8606 -0.7441
 4190TIP3   OH233984   1.812   0.354   0.021  0.3092 -0.0220 -0.2281
 4190TIP3    H133985   1.798   0.276  -0.033  2.3053 -3.0484  3.2201
 4190TIP3    H233986   1.730   0.364   0.070  0.0040  0.2022 -0.7667
 4191TIP3   OH233987   5.057   6.776   0.995 -0.2941  0.6462 -0.2024
 4191TIP3    H133988   5.124   6.835   1.031  0.8296 -1.7565  1.9433
 4191TIP3    H233989   5.106   6.711   0.945 -1.3742  0.6344 -1.3084
 4192TIP3   OH233990   5.151   6.393  14.241 -0.0819  0.3591  0.1852
 4192TIP3    H133991   5.118   6.482  14.235 -0.1783  0.3013 -0.1594
 4192TIP3    H233992   5.213   6.385  14.168  1.7732  0.9170  1.6199
 4193TIP3   OH233993   4.270   0.244  14.428  0.1223  0.2089  0.5157
 4193TIP3    H133994   4.321   0.187  14.485 -0.1131 -1.0466 -0.4943
 4193TIP3    H233995   4.222   0.301  14.488  1.2676  0.1692  1.5185
 4194TIP3   OH233996   5.337   1.710   4.083  0.3678 -0.3908 -0.1129
 4194TIP3    H133997   5.386   1.777   4.035 -0.7214  1.3445  1.0678
 4194TIP3    H233998   5.245   1.736   4.074 -0.5171 -3.6183 -2.3955
 4195TIP3   OH233999   0.953   3.194   4.903  0.9158 -0.7682 -0.2617
 4195TIP3    H134000   0.979   3.138   4.831  1.7383  1.1321 -1.5194
 4195TIP3    H234001   0.887   3.253   4.866  1.4073  0.2991  0.4820
 4196TIP3   OH234002   5.523   1.550   5.222  0.2856 -0.2647  0.0309
 4196TIP3    H134003   5.510   1.478   5.283  2.3489 -0.2770  0.5353
 4196TIP3    H234004   5.534   1.627   5.277 -0.3814  0.1760 -0.4403
 4197TIP3   OH234005   0.920   3.274   5.692  0.4176  0.4650 -0.0479
 4197TIP3    H134006   0.880   3.221   5.623  0.2428 -0.8032  1.0160
 4197TIP3    H234007   0.870   3.253   5.771  0.1959  2.3880  0.3742
 4198TIP3   OH234008   0.321   2.546  13.620  0.0905 -0.2714  0.1759
 4198TIP3    H134009   0.279   2.611  13.564  2.3707  0.2752 -1.0432
 4198TIP3    H234010   0.308   2.578  13.709 -1.8415 -0.0503 -0.1539
 4199TIP3   OH234011   5.746   2.397   3.712 -0.1843  0.0474 -0.0806
 4199TIP3    H134012   5.666   2.449   3.697 -1.2029 -1.3709  0.2392
 4199TIP3    H234013   5.805   2.457   3.757 -0.6976  1.4287 -1.1513
 4200TIP3   OH234014   0.769   1.836  13.798 -0.1891 -0.0581 -0.1370
 4200TIP3    H134015   0.673   1.833  13.794 -0.3383  1.5519  1.2214
 4200TIP3    H234016   0.796   1.844  13.706 -1.3673 -0.0827 -0.5085
 4201TIP3   OH234017   1.949   2.228  15.672  0.0114  0.5318  0.5392
 4201TIP3    H134018   1.858   2.246  15.697 -0.0768  1.3019 -0.2684
 4201TIP3    H234019   1.981   2.166  15.738 -1.8558 -1.7494 -0.5747
 4202TIP3   OH234020   1.369   0.466   3.822 -0.2257 -0.2423 -0.5511
 4202TIP3    H134021   1.342   0.557   3.805  0.7022 -0.0276 -0.9416
 4202TIP3    H234022   1.342   0.418   3.744 -0.2151 -0.1946 -0.5845
 4203TIP3   OH234023   5.418   3.292  14.347  0.5214 -0.3532 -0.5740
 4203TIP3    H134024   5.356   3.245  14.402  0.4233 -0.4203 -0.7403
 4203TIP3    H234025   5.394   3.385  14.357  1.0585 -0.2907  0.1777
 4204TIP3   OH234026   4.121   4.596  16.580 -0.3777  0.5483 -0.0638
 4204TIP3    H134027   4.179   4.668  16.604  0.3194  0.0480 -0.2256
 4204TIP3    H234028   4.038   4.617  16.624 -0.9069  2.5820 -1.8493
 4205TIP3   OH234029   5.025   4.911  12.714  0.4756 -0.4168  0.4156
 4205TIP3    H134030   4.992   4.873  12.632 -0.7786 -0.8235  1.0836
 4205TIP3    H234031   5.063   4.995  12.688  0.7687 -0.8729 -0.6887
 4206TIP3   OH234032   4.374   0.823   1.142  0.2894 -0.2549  0.0985
 4206TIP3    H134033   4.280   0.809   1.156  0.2237 -0.2385 -0.3084
 4206TIP3    H234034   4.389   0.913   1.171  0.4470 -0.6953  1.4441
 4207TIP3   OH234035   5.639   5.237  12.439 -0.2692 -0.8110  1.0141
 4207TIP3    H134036   5.559   5.224  12.388 -1.7613 -1.6990  3.4058
 4207TIP3    H234037   5.677   5.149  12.446 -0.3905 -0.8083  1.8377
 4208TIP3   OH234038   5.587   6.564  16.008 -0.0634  0.7855 -0.2327
 4208TIP3    H134039   5.552   6.509  15.938  1.3828  0.7645 -0.9945
 4208TIP3    H234040   5.666   6.603  15.969  1.0789  0.3508  1.5435
 4209TIP3   OH234041   2.030   5.252   0.118 -0.2745  0.1970  0.0073
 4209TIP3    H134042   1.976   5.270   0.195 -1.5111 -0.1838 -0.7395
 4209TIP3    H234043   2.009   5.321   0.056  1.2286  0.8942  0.2358
 4210TIP3   OH234044   2.311   3.273  15.342  0.6703  0.2432  0.9048
 4210TIP3    H134045   2.347   3.184  15.352 -2.8938 -1.5399 -0.1665
 4210TIP3    H234046   2.265   3.290  15.424  0.6286  0.7184  0.7835
 4211TIP3   OH234047   2.054   5.268  11.156  0.0873  0.1035  0.1182
 4211TIP3    H134048   2.074   5.236  11.069  2.4371 -0.4573  0.7846
 4211TIP3    H234049   2.109   5.346  11.166 -0.3049  0.2843  1.0155
 4212TIP3   OH234050   1.945   3.666   4.936 -0.3184  0.4605  0.7754
 4212TIP3    H134051   1.973   3.687   5.025  2.2702 -2.4635  0.8147
 4212TIP3    H234052   1.906   3.579   4.942  0.9131 -0.2825 -1.0535
 4213TIP3   OH234053   1.005   5.869   0.142 -0.3225  0.0958 -0.2622
 4213TIP3    H134054   0.994   5.905   0.053 -0.4534  0.1839 -0.2120
 4213TIP3    H234055   0.944   5.795   0.145  0.2147 -0.3572 -0.4860
 4214TIP3   OH234056   6.245   1.019  15.134  0.2122 -0.1443  0.0605
 4214TIP3    H134057   6.299   1.068  15.196  0.5439 -0.0717 -0.2776
 4214TIP3    H234058   6.246   0.929  15.166  0.8375 -0.2166 -0.1370
 4215TIP3   OH234059   0.671   1.276   1.755  0.0704  0.3917 -0.0394
 4215TIP3    H134060   0.620   1.319   1.687 -0.5134  1.2666  0.9166
 4215TIP3    H234061   0.761   1.305   1.738  0.7299 -2.7248 -2.9379
 4216TIP3   OH234062   4.512   0.660   0.697  0.5013 -0.3625  0.5955
 4216TIP3    H134063   4.604   0.647   0.676  0.4835 -2.0822  1.3862
 4216TIP3    H234064   4.465   0.618   0.624  0.2196  2.5581 -1.0716
 4217TIP3   OH234065   4.869   4.752   6.160 -0.1312 -0.1722  0.6315
 4217TIP3    H134066   4.868   4.844   6.187 -1.0768  0.1170 -0.3419
 4217TIP3    H234067   4.787   4.717   6.193 -1.0877  0.0658 -1.3943
 4218TIP3   OH234068   0.262   5.126   0.829 -0.3450 -0.4424  0.2546
 4218TIP3    H134069   0.260   5.051   0.770 -1.7505 -1.2657  1.2976
 4218TIP3    H234070   0.333   5.106   0.891  0.4841 -0.0282 -0.5337
 4219TIP3   OH234071   4.696   5.067   2.443  0.4849  0.5909  0.2926
 4219TIP3    H134072   4.783   5.039   2.470  0.1999 -0.1242  0.5012
 4219TIP3    H234073   4.677   5.144   2.497  0.6686  0.2804  0.8045
 4220TIP3   OH234074   6.486   5.539   0.409  0.3153  0.6910 -0.3915
 4220TIP3    H134075   6.536   5.589   0.473 -1.2765  3.7535 -1.3725
 4220TIP3    H234076   6.489   5.590   0.329 -1.3279 -0.8501 -1.5356
 4221TIP3   OH234077   6.310   2.380  11.428 -0.3076  0.0565  0.1723
 4221TIP3    H134078   6.386   2.409  11.377 -1.4928  2.1905 -0.5352
 4221TIP3    H234079   6.347   2.346  11.509  1.4141  2.2789  0.4466
 4222TIP3   OH234080   2.252   1.751   5.846 -0.0896  0.2369  0.2452
 4222TIP3    H134081   2.321   1.705   5.797  1.0446  1.9788  0.1309
 4222TIP3    H234082   2.174   1.742   5.792 -0.3457 -2.7878  0.9229
 4223TIP3   OH234083   0.791   1.413   5.971  0.0717  0.6131  0.3895
 4223TIP3    H134084   0.836   1.418   6.056 -0.9604  1.0439  0.9225
 4223TIP3    H234085   0.754   1.325   5.969  1.1736  0.1363 -0.1959
 4224TIP3   OH234086   6.285   0.811  16.590 -0.0678 -0.3561  0.3472
 4224TIP3    H134087   6.269   0.905  16.600  2.1388  0.0584  0.5429
 4224TIP3    H234088   6.201   0.775  16.565 -1.3792  1.4301  1.8711
 4225TIP3   OH234089   5.746   4.406   3.894  0.3019  0.4532  0.1929
 4225TIP3    H134090   5.746   4.410   3.990  0.2278 -0.5345  0.2454
 4225TIP3    H234091   5.828   4.448   3.868 -0.1954  1.7477  0.6196
 4226TIP3   OH234092   1.210   6.450   1.297 -0.0038  0.4700 -0.1693
 4226TIP3    H134093   1.248   6.373   1.255 -1.0209  0.2605 -0.7486
 4226TIP3    H234094   1.181   6.419   1.383  0.7597  0.5387  0.1227
 4227TIP3   OH234095   5.512   4.433   2.368  0.5425  0.0747  0.2273
 4227TIP3    H134096   5.553   4.508   2.412 -1.0635  0.8739  0.4310
 4227TIP3    H234097   5.498   4.369   2.437  0.6422  0.1587  0.3249
 4228TIP3   OH234098   0.680   5.356  12.704  0.2416  0.0961 -0.5276
 4228TIP3    H134099   0.603   5.361  12.647 -0.3704 -0.1128  0.2598
 4228TIP3    H234100   0.699   5.447  12.727 -0.4955  0.0748  0.2091
 4229TIP3   OH234101   1.963   2.236  12.167  0.0001  0.2994  0.7589
 4229TIP3    H134102   1.927   2.321  12.144 -3.0075 -1.2353 -0.7749
 4229TIP3    H234103   1.976   2.240  12.261 -0.1895  2.3962  0.7360
 4230TIP3   OH234104   6.596   5.683   0.854 -0.4784 -0.0029 -0.0640
 4230TIP3    H134105   6.538   5.719   0.922  0.0330  0.2224  0.2584
 4230TIP3    H234106   6.594   5.589   0.869 -1.9570 -0.1620 -1.0189
 4231TIP3   OH234107   5.076   0.888   4.416 -0.0194  0.4216 -0.3513
 4231TIP3    H134108   5.146   0.887   4.481 -0.2492 -1.5135 -0.0797
 4231TIP3    H234109   4.996   0.881   4.468 -0.2539 -0.1958 -0.7886
 4232TIP3   OH234110   4.948   0.486   0.476 -0.5773 -0.2630  0.2210
 4232TIP3    H134111   4.936   0.550   0.406 -2.8444 -0.0136  0.7550
 4232TIP3    H234112   4.919   0.403   0.437  0.5295 -0.6347  0.1358
 4233TIP3   OH234113   4.068   0.161  11.210  0.1869 -0.0419  0.3469
 4233TIP3    H134114   4.004   0.091  11.223  2.0084 -1.9456 -0.3688
 4233TIP3    H234115   4.096   0.184  11.299  1.3171 -1.9864  0.5411
 4234TIP3   OH234116   1.427   1.068  14.618 -0.3620  0.1083  0.2171
 4234TIP3    H134117   1.403   1.000  14.680 -1.2138  0.8991  0.7838
 4234TIP3    H234118   1.351   1.127  14.616  0.9685  1.9455  1.0258
 4235TIP3   OH234119   2.467   1.382   5.298 -0.0352  0.1624 -0.2814
 4235TIP3    H134120   2.461   1.409   5.390  1.9834  2.1157 -0.6732
 4235TIP3    H234121   2.385   1.413   5.259  0.0332  1.2612  0.4068
 4236TIP3   OH234122   6.315   4.902   4.603 -0.1733 -0.3453 -0.0169
 4236TIP3    H134123   6.343   4.878   4.692 -0.9538  0.2761  0.4050
 4236TIP3    H234124   6.392   4.885   4.549  1.4272  2.2784  1.2481
 4237TIP3   OH234125   5.082   1.137  13.893 -0.9529 -0.0451  0.2768
 4237TIP3    H134126   5.035   1.104  13.817  0.5869 -0.1347 -0.6970
 4237TIP3    H234127   5.167   1.092  13.890  1.0131  3.3693 -0.7602
 4238TIP3   OH234128   0.971   3.277   6.950  0.8818  0.6234  0.3461
 4238TIP3    H134129   0.891   3.235   6.919  0.7899  0.6942  0.4860
 4238TIP3    H234130   0.942   3.331   7.024  1.3654 -0.8025  1.6286
 4239TIP3   OH234131   6.168   3.177   1.857  0.4460 -0.1186  0.2157
 4239TIP3    H134132   6.255   3.209   1.883  0.7688 -0.6975 -0.1499
 4239TIP3    H234133   6.161   3.091   1.898  0.5086 -0.5649 -0.6972
 4240TIP3   OH234134   1.973   2.746  13.493 -0.0121 -0.0859  0.0807
 4240TIP3    H134135   1.967   2.837  13.466 -1.6491 -0.6206 -1.5400
 4240TIP3    H234136   1.958   2.748  13.588  1.4164  1.4290  0.3221
 4241TIP3   OH234137   2.901   5.649   6.046  0.5751  0.6988 -0.1282
 4241TIP3    H134138   2.942   5.654   5.959  1.5769  1.0015  0.3492
 4241TIP3    H234139   2.883   5.556   6.058  0.0136  0.7070 -0.8469
 4242TIP3   OH234140   5.623   5.455   4.313 -0.0954 -0.0856 -0.2059
 4242TIP3    H134141   5.615   5.367   4.348 -2.1403 -0.5957 -1.7785
 4242TIP3    H234142   5.533   5.486   4.303  0.5373  2.8079  1.6639
 4243TIP3   OH234143   4.786   4.400   5.905 -0.0983  0.5822 -0.8113
 4243TIP3    H134144   4.791   4.404   6.001 -0.3252  2.2299 -0.8449
 4243TIP3    H234145   4.852   4.335   5.881  0.8315  1.0260  0.4103
 4244TIP3   OH234146   4.458   4.609  14.016  0.2422  0.0851 -0.0730
 4244TIP3    H134147   4.551   4.629  14.011 -0.0373  1.6733  0.6113
 4244TIP3    H234148   4.435   4.621  14.108 -0.9643  1.3835 -0.5010
 4245TIP3   OH234149   3.230   2.508   1.575  0.4754  0.3234  0.0311
 4245TIP3    H134150   3.154   2.520   1.633  0.5686  3.2250 -0.3045
 4245TIP3    H234151   3.302   2.551   1.620  1.1066  0.5799 -1.1803
 4246TIP3   OH234152   1.016   4.313  13.346 -0.1595  0.5082  0.0832
 4246TIP3    H134153   1.034   4.278  13.433  0.4258 -0.5162 -0.4298
 4246TIP3    H234154   0.955   4.386  13.361 -1.0917 -0.4638  1.2389
 4247TIP3   OH234155   0.648   2.244  15.409  0.3412  0.6838 -0.0096
 4247TIP3    H134156   0.586   2.317  15.408  1.1589  1.4253  0.6762
 4247TIP3    H234157   0.726   2.280  15.366  0.7535  0.2090  0.3372
 4248TIP3   OH234158   0.024   2.984  16.731  0.3675  0.0450  0.4021
 4248TIP3    H134159  -0.030   2.920  16.776  0.2603 -1.4324 -1.6860
 4248TIP3    H234160   0.106   2.985  16.780 -0.4918  0.1842  1.8992
 4249TIP3   OH234161   1.037   1.887  12.165 -0.0126  0.2560 -0.2418
 4249TIP3    H134162   1.001   1.842  12.089 -0.0900 -0.5980  0.2787
 4249TIP3    H234163   1.067   1.971  12.132 -1.5466  0.5805 -0.9017
 4250TIP3   OH234164   2.152   2.792  16.031  0.5624 -1.0693 -0.3580
 4250TIP3    H134165   2.211   2.786  15.956 -0.9027 -1.0591 -1.5776
 4250TIP3    H234166   2.197   2.746  16.102  3.0035  0.8925 -0.5256
 4251TIP3   OH234167   1.433   1.849  11.808 -0.1730  0.3655 -0.2307
 4251TIP3    H134168   1.346   1.880  11.784 -0.2297  0.2386 -0.1937
 4251TIP3    H234169   1.460   1.905  11.881 -1.3110 -1.2079  1.5238
 4252TIP3   OH234170   2.636   3.009   1.996  0.5371  0.0796  0.3581
 4252TIP3    H134171   2.662   2.952   2.069  3.2356  1.3736  0.5100
 4252TIP3    H234172   2.717   3.048   1.966 -0.6027  0.2498 -2.8660
 4253TIP3   OH234173   6.083   3.986   1.729  0.1834  0.6525  0.1641
 4253TIP3    H134174   6.034   3.983   1.647  1.4013 -0.5013 -0.5530
 4253TIP3    H234175   6.034   3.927   1.787  1.7139 -2.1279 -1.1838
 4254TIP3   OH234176   5.227   0.619  14.426 -0.1673  0.5938  0.1029
 4254TIP3    H134177   5.264   0.611  14.514 -1.4506  1.7244  0.7997
 4254TIP3    H234178   5.148   0.673  14.438 -0.6420  0.3772 -1.6717
 4255TIP3   OH234179   0.162   5.951  15.438  0.0879  0.1438 -0.1901
 4255TIP3    H134180   0.112   5.996  15.506  1.0868 -1.6612  1.8664
 4255TIP3    H234181   0.114   5.870  15.424  0.1213  0.3195 -1.3922
 4256TIP3   OH234182   0.681   2.420   6.671 -0.1889  0.1014  0.2739
 4256TIP3    H134183   0.614   2.352   6.679 -1.1762  1.0808  0.4963
 4256TIP3    H234184   0.735   2.409   6.750  0.6476 -1.4135 -0.4453
 4257TIP3   OH234185   6.395   4.783  16.453 -0.4261  0.0861 -0.0697
 4257TIP3    H134186   6.316   4.835  16.436 -0.7552 -1.0276 -2.3459
 4257TIP3    H234187   6.372   4.695  16.424  1.2561 -0.5325  0.4124
 4258TIP3   OH234188   5.471   4.212   5.422  0.2507  0.4416  0.0810
 4258TIP3    H134189   5.500   4.281   5.482  0.6731  0.2652  0.0887
 4258TIP3    H234190   5.416   4.155   5.476 -0.5166  1.0401 -0.0481
 4259TIP3   OH234191   2.256   3.055  11.511 -0.2002 -0.2667 -0.1096
 4259TIP3    H134192   2.278   3.099  11.593 -1.9696 -1.3720  1.0435
 4259TIP3    H234193   2.173   3.010  11.530 -1.3193  0.4315 -2.8845
 4260TIP3   OH234194   1.420   3.601  14.592 -0.3476 -0.0450  0.0247
 4260TIP3    H134195   1.476   3.566  14.523  0.4931  0.2475  0.5513
 4260TIP3    H234196   1.422   3.696  14.580 -0.4805 -0.0152  0.2284
 4261TIP3   OH234197   2.464   0.035  11.167 -0.6645 -0.0878 -0.3960
 4261TIP3    H134198   2.488   0.123  11.138 -1.1662 -0.3992 -1.8722
 4261TIP3    H234199   2.369   0.036  11.170 -0.6595 -0.4746 -0.0665
 4262TIP3   OH234200   1.841   5.089   1.477  0.5092  0.0424 -0.2477
 4262TIP3    H134201   1.814   5.180   1.487  0.4564 -0.1040  1.1583
 4262TIP3    H234202   1.888   5.069   1.558 -1.4077 -1.8237  0.5100
 4263TIP3   OH234203   2.471   1.232   2.248  0.2683 -0.0089 -0.0178
 4263TIP3    H134204   2.473   1.297   2.317  0.1186  0.5809 -0.5627
 4263TIP3    H234205   2.411   1.267   2.182  1.5332  0.1754 -1.1407
 4264TIP3   OH234206   3.824   0.045  16.140  0.2139 -0.1148 -0.1152
 4264TIP3    H134207   3.821   0.116  16.076  2.1337 -0.9042 -1.1513
 4264TIP3    H234208   3.796   0.086  16.222  0.9872  1.7735 -0.7377
 4265TIP3   OH234209   4.611   1.191   2.352  0.5272 -0.6578  0.2494
 4265TIP3    H134210   4.698   1.191   2.311  0.6173 -0.5285  0.4397
 4265TIP3    H234211   4.602   1.279   2.388  0.2370 -0.6102  0.0617
 4266TIP3   OH234212   2.687   6.036  13.745  0.0440  0.0382  0.1142
 4266TIP3    H134213   2.724   5.949  13.728  0.0446  0.1972 -0.7334
 4266TIP3    H234214   2.764   6.093  13.753  0.1543 -0.3775  2.8611
 4267TIP3   OH234215   1.452   2.961  13.786 -0.0279 -0.1561  0.0067
 4267TIP3    H134216   1.499   2.891  13.739 -1.0492 -0.0429 -1.2233
 4267TIP3    H234217   1.364   2.926  13.798  0.3594 -0.4588  2.5008
 4268TIP3   OH234218   1.492   5.148   1.411 -0.2482 -0.0450  0.0297
 4268TIP3    H134219   1.547   5.129   1.487 -0.0110  3.0204  0.7445
 4268TIP3    H234220   1.404   5.122   1.438  0.4939 -4.1272 -0.7875
 4269TIP3   OH234221   1.010   0.771   1.612  0.7352  0.1861  0.3344
 4269TIP3    H134222   1.005   0.726   1.528  3.5927 -0.2751  0.2849
 4269TIP3    H234223   0.932   0.826   1.616 -1.2541 -2.3498 -1.0216
 4270TIP3   OH234224   1.502   0.394  14.950  0.1520  0.5045  0.6322
 4270TIP3    H134225   1.443   0.462  14.918 -0.6609 -0.7539 -0.6009
 4270TIP3    H234226   1.583   0.407  14.900  0.0034  0.5412  0.4033
 4271TIP3   OH234227   4.904   6.768  17.073  0.0125  0.3437  0.2203
 4271TIP3    H134228   4.845   6.764  17.148 -0.6425  1.6274 -0.2047
 4271TIP3    H234229   4.937   6.678  17.064 -0.4830  0.0045  1.5588
 4272TIP3   OH234230   5.305   2.794  14.715  0.5220  0.0139 -0.4021
 4272TIP3    H134231   5.284   2.858  14.784  2.0510 -0.8243  0.9058
 4272TIP3    H234232   5.332   2.847  14.640 -1.9897  0.9793 -0.7238
 4273TIP3   OH234233   3.426   4.430   3.143  0.5781  0.2078 -0.1469
 4273TIP3    H134234   3.493   4.368   3.114  0.9606 -0.1600  1.4583
 4273TIP3    H234235   3.344   4.381   3.139  0.6401  0.1207 -0.4216
 4274TIP3   OH234236   6.516   1.758   5.896  0.0971 -0.6866  0.1640
 4274TIP3    H134237   6.443   1.697   5.883 -1.0384  0.2112  1.8784
 4274TIP3    H234238   6.549   1.738   5.983 -0.2029  1.0072  0.7009
 4275TIP3   OH234239   3.189   3.194  11.827  0.1705  0.8670 -0.7237
 4275TIP3    H134240   3.128   3.147  11.771  1.8317 -0.9886 -1.0814
 4275TIP3    H234241   3.265   3.211  11.772  2.0282 -1.3696  0.9313
 4276TIP3   OH234242   2.768   6.733   3.989 -0.3477 -0.3466 -0.5610
 4276TIP3    H134243   2.856   6.701   3.970 -0.0707 -1.4358  2.1273
 4276TIP3    H234244   2.753   6.801   3.924  2.2807 -0.4767 -1.4158
 4277TIP3   OH234245   1.825   1.565  15.531  0.1683  0.4462  0.3892
 4277TIP3    H134246   1.778   1.579  15.449  2.1772 -3.0412 -1.6165
 4277TIP3    H234247   1.911   1.606  15.517  1.4794 -2.3311 -0.5004
 4278TIP3   OH234248   0.400   5.627   0.104  0.0806 -0.2392 -0.4795
 4278TIP3    H134249   0.368   5.549   0.149 -0.2830 -0.1255 -0.5388
 4278TIP3    H234250   0.332   5.648   0.040 -0.2134  0.5972  0.0836
 4279TIP3   OH234251   5.766   1.011  17.263  0.6751  0.2964 -0.2798
 4279TIP3    H134252   5.692   1.032  17.321  0.0013 -0.0204 -1.0080
 4279TIP3    H234253   5.823   0.957  17.317  0.5280  0.7912  0.3867
 4280TIP3   OH234254   0.592   2.026  13.608  0.2180 -0.3010 -0.2946
 4280TIP3    H134255   0.678   2.028  13.565 -1.1260  2.1941 -3.3319
 4280TIP3    H234256   0.594   2.101  13.668 -0.4337  1.1447 -1.9823
 4281TIP3   OH234257   5.457   1.625   2.839  0.2356 -0.2224  0.2417
 4281TIP3    H134258   5.459   1.573   2.919 -1.1212 -1.3028 -0.3917
 4281TIP3    H234259   5.389   1.585   2.786  1.5407  0.0446 -1.7467
 4282TIP3   OH234260   6.012   6.566  15.576 -0.4486  0.0397  0.2263
 4282TIP3    H134261   6.077   6.630  15.548  0.1201 -0.8826 -0.6534
 4282TIP3    H234262   5.931   6.616  15.587 -0.3512  0.7060 -1.7238
 4283TIP3   OH234263   4.969   0.792  16.977 -0.2652  0.1608  0.1635
 4283TIP3    H134264   5.029   0.764  16.908  0.3933  1.1635  0.3145
 4283TIP3    H234265   4.995   0.881  16.998 -1.2587  0.3145  0.8447
 4284TIP3   OH234266   6.196   0.714   5.909  0.5512  0.3367  0.2143
 4284TIP3    H134267   6.223   0.716   5.817  0.0122 -0.3131  0.0377
 4284TIP3    H234268   6.264   0.665   5.953  0.2165 -0.3780 -0.0486
 4285TIP3   OH234269   4.138   2.542   2.410  0.0034 -0.6489 -0.2870
 4285TIP3    H134270   4.108   2.630   2.387 -0.1212 -0.7734 -0.6102
 4285TIP3    H234271   4.218   2.530   2.360  0.5263 -0.3718  0.4674
 4286TIP3   OH234272   2.776   2.342  13.803 -0.3322  0.1284  0.2740
 4286TIP3    H134273   2.728   2.326  13.722 -1.5207  0.4427  0.8852
 4286TIP3    H234274   2.828   2.420  13.785 -1.9490  1.2696  0.3517
 4287TIP3   OH234275   0.703   6.073  12.436  0.4891 -0.3597 -0.3607
 4287TIP3    H134276   0.625   6.068  12.490  0.2232  0.2488 -0.6723
 4287TIP3    H234277   0.671   6.100  12.349  1.2630  2.6188  0.1345
 4288TIP3   OH234278   5.168   3.823   1.144 -0.5101  0.1915 -0.5201
 4288TIP3    H134279   5.120   3.800   1.224 -0.5102 -0.3906 -0.6774
 4288TIP3    H234280   5.223   3.747   1.127 -0.2993  0.4308 -0.9177
 4289TIP3   OH234281   2.129   5.965   5.594  0.1475 -0.1394  0.4014
 4289TIP3    H134282   2.114   5.873   5.576 -0.3641  0.2017 -1.0014
 4289TIP3    H234283   2.107   5.976   5.687 -0.3044 -1.3006  0.4349
 4290TIP3   OH234284   2.522   4.700  14.383 -1.1023  0.3572 -0.8004
 4290TIP3    H134285   2.531   4.608  14.360  0.7751  0.3162 -0.0429
 4290TIP3    H234286   2.446   4.703  14.441 -0.5716 -0.8837 -0.0141
 4291TIP3   OH234287   3.879   4.442  15.999 -0.1164  0.1606 -0.6235
 4291TIP3    H134288   3.876   4.517  16.057  1.7609 -0.7978  0.8122
 4291TIP3    H234289   3.919   4.475  15.919  1.7646  0.4806  0.4109
 4292TIP3   OH234290   2.205   1.045   4.376 -0.4276 -0.2164 -0.7623
 4292TIP3    H134291   2.167   1.026   4.461  0.3750 -1.7652 -0.7184
 4292TIP3    H234292   2.199   1.141   4.368 -1.9904 -0.1930  0.3001
 4293TIP3   OH234293   6.723   2.569   1.977 -0.2185  0.2755  0.0093
 4293TIP3    H134294   6.788   2.583   2.046  0.4341  0.4873 -0.6371
 4293TIP3    H234295   6.663   2.643   1.985  0.3998  0.8216 -0.2402
 4294TIP3   OH234296   0.692   5.659  15.031  0.2191  0.0078  0.7333
 4294TIP3    H134297   0.697   5.734  15.090  0.5206 -1.7414  3.1193
 4294TIP3    H234298   0.663   5.587  15.087  0.2348 -1.7315 -1.3643
 4295TIP3   OH234299   1.928   2.222   4.664  0.3617  0.3029  0.0459
 4295TIP3    H134300   2.005   2.272   4.637  1.1195 -0.7758  0.1898
 4295TIP3    H234301   1.911   2.251   4.754  1.9731 -1.0712  0.8416
 4296TIP3   OH234302   2.649   4.302  14.224  0.0262  0.5734  0.1134
 4296TIP3    H134303   2.678   4.370  14.163  2.1343  0.2774  0.7042
 4296TIP3    H234304   2.569   4.338  14.263 -0.7144  1.2845 -1.9107
 4297TIP3   OH234305   6.618   6.779  11.556  0.1195 -0.2055 -0.0600
 4297TIP3    H134306   6.633   6.857  11.610  2.3687  0.0796 -1.0021
 4297TIP3    H234307   6.614   6.707  11.619  1.3896  0.2748  0.6001
 4298TIP3   OH234308   2.614   1.405   5.068 -0.3428  0.0714  0.5266
 4298TIP3    H134309   2.580   1.391   5.156 -1.8377 -0.5882 -0.1286
 4298TIP3    H234310   2.537   1.425   5.015  0.3660 -0.7071 -0.8656
 4299TIP3   OH234311   1.129   3.058   1.094 -0.0437 -0.2350  0.1477
 4299TIP3    H134312   1.135   3.146   1.055  2.7414  0.3880  1.7243
 4299TIP3    H234313   1.054   3.064   1.153  0.5590  1.3547  0.8033
 4300TIP3   OH234314   2.697   3.419  14.520  0.2324  0.0859  0.4674
 4300TIP3    H134315   2.722   3.377  14.438 -1.0369 -0.4891  0.3487
 4300TIP3    H234316   2.689   3.512  14.499  0.4895  0.0195  0.0776
 4301TIP3   OH234317   0.935   4.669  14.559 -0.1917  0.2538 -0.7700
 4301TIP3    H134318   0.852   4.663  14.606  0.1957  0.2725 -0.0754
 4301TIP3    H234319   0.939   4.760  14.530  0.4588  0.7718  0.8476
 4302TIP3   OH234320   0.791   1.469   3.766 -0.0349 -0.0635  0.0799
 4302TIP3    H134321   0.753   1.422   3.840  0.5506  0.4524  0.7225
 4302TIP3    H234322   0.886   1.457   3.776  0.0455 -0.0786 -0.6505
 4303TIP3   OH234323   1.335   3.505   2.001  0.3214  0.4452 -0.0994
 4303TIP3    H134324   1.364   3.420   2.034 -0.8958  0.2499  0.5236
 4303TIP3    H234325   1.288   3.485   1.921  0.3462  0.5739 -0.1466
 4304TIP3   OH234326   2.804   5.538  15.126  0.4525  0.0134  0.5927
 4304TIP3    H134327   2.879   5.480  15.139  0.6866 -0.3422 -1.9991
 4304TIP3    H234328   2.727   5.482  15.144  0.7307 -0.4411  0.3855
 4305TIP3   OH234329   5.969   1.339   0.177  0.2204 -0.1609 -0.0611
 4305TIP3    H134330   5.972   1.370   0.267  0.7167 -0.2390 -0.0496
 4305TIP3    H234331   5.909   1.264   0.180  1.9916 -1.6171  0.6686
 4306TIP3   OH234332   2.250   6.579   3.985  0.1409  0.8925 -0.2703
 4306TIP3    H134333   2.194   6.598   3.909 -0.7860  1.5624  0.5485
 4306TIP3    H234334   2.189   6.577   4.059  0.9709 -0.1700  0.4018
 4307TIP3   OH234335   2.430   2.350   2.990 -0.4939  0.4913  0.1799
 4307TIP3    H134336   2.452   2.339   2.898  0.4736  0.8563  0.3563
 4307TIP3    H234337   2.501   2.402   3.026 -0.0573 -0.9066  1.4717
 4308TIP3   OH234338   0.545   1.934  16.627 -0.3120  0.3490  0.4157
 4308TIP3    H134339   0.612   1.974  16.682  0.2392 -0.8669  0.6617
 4308TIP3    H234340   0.544   1.842  16.654 -1.1499  0.0688 -0.5163
 4309TIP3   OH234341   6.108   3.872   3.242 -0.0407  0.1199 -0.2406
 4309TIP3    H134342   6.153   3.946   3.283 -0.5270  1.0513 -1.3393
 4309TIP3    H234343   6.047   3.912   3.181 -0.8867 -1.1847 -0.2830
 4310TIP3   OH234344   2.231   3.139   0.157 -0.2521 -0.6580  0.0010
 4310TIP3    H134345   2.173   3.195   0.104  0.5534 -1.1061 -1.3988
 4310TIP3    H234346   2.279   3.087   0.093 -0.9688 -2.9945  1.2381
 4311TIP3   OH234347   2.347   6.227   4.877 -0.2138 -0.4009 -0.0041
 4311TIP3    H134348   2.323   6.179   4.956  0.0897  0.4913  0.6552
 4311TIP3    H234349   2.336   6.165   4.806 -0.8827 -1.1042  0.6989
 4312TIP3   OH234350   5.837   5.310  13.601  0.5447  0.2265 -0.1172
 4312TIP3    H134351   5.911   5.361  13.633  0.7115  0.2254 -0.4980
 4312TIP3    H234352   5.860   5.219  13.621  0.3326  0.2784  0.3895
 4313TIP3   OH234353   2.697   2.379  12.631 -0.2145  0.4811 -0.3127
 4313TIP3    H134354   2.791   2.379  12.646  0.0435 -1.9321 -1.5165
 4313TIP3    H234355   2.658   2.375  12.718  0.9203 -1.8827  0.1495
 4314TIP3   OH234356   4.034   6.739   0.275 -0.0266  0.1698  0.2403
 4314TIP3    H134357   3.939   6.730   0.278 -0.0469  0.3010  0.0917
 4314TIP3    H234358   4.061   6.688   0.198 -0.0260  0.4712  0.0341
 4315TIP3   OH234359   1.896   3.899   4.758 -0.1451 -0.5186 -0.2814
 4315TIP3    H134360   1.897   3.823   4.816  0.3049 -0.0493  0.3399
 4315TIP3    H234361   1.804   3.926   4.755 -0.2873 -1.0016 -0.4012
 4316TIP3   OH234362   1.986   6.630   5.459  0.1035 -0.0419  0.1829
 4316TIP3    H134363   1.910   6.685   5.442  0.5817  0.4301 -0.4764
 4316TIP3    H234364   2.059   6.678   5.422  0.3139 -1.9441 -2.1138
 4317TIP3   OH234365   0.427   6.378  15.198  0.2493  0.2794 -0.1025
 4317TIP3    H134366   0.366   6.310  15.170 -0.8318  1.6882 -1.3975
 4317TIP3    H234367   0.395   6.458  15.155  2.2467  1.3446  0.2353
 4318TIP3   OH234368   5.905   4.956   3.594 -0.2868 -0.5707  0.3564
 4318TIP3    H134369   5.841   4.924   3.530 -0.6887  0.6390  0.1209
 4318TIP3    H234370   5.899   4.895   3.667  0.1066 -1.9194 -0.7035
 4319TIP3   OH234371   0.937   6.181  11.695 -0.3951  0.4887  0.2127
 4319TIP3    H134372   0.994   6.111  11.663 -0.7159 -0.8130  2.2670
 4319TIP3    H234373   0.953   6.255  11.636  0.7488 -0.9757 -1.3882
 4320TIP3   OH234374   3.756   0.391  14.299 -0.1703  0.1046 -0.3976
 4320TIP3    H134375   3.800   0.469  14.265  1.5127 -1.1210 -1.1687
 4320TIP3    H234376   3.694   0.366  14.231 -0.7230  0.7601 -0.1423
 4321TIP3   OH234377   3.167   2.574  15.340  0.6369 -1.1221  0.6048
 4321TIP3    H134378   3.075   2.566  15.363 -0.2545  0.3980 -2.0327
 4321TIP3    H234379   3.186   2.667  15.346  1.0417 -0.9721 -1.8952
 4322TIP3   OH234380   0.927   0.827   2.935  0.2984  0.2720 -0.1360
 4322TIP3    H134381   0.920   0.733   2.915 -0.7844  1.0238 -4.3870
 4322TIP3    H234382   1.011   0.853   2.896  0.3622  1.1569  0.5682
 4323TIP3   OH234383   2.806   5.126  12.160 -0.0080  0.2432  0.8918
 4323TIP3    H134384   2.814   5.103  12.067  1.5644  1.4212  0.6675
 4323TIP3    H234385   2.791   5.221  12.159  2.4014  0.7189  1.8090
 4324TIP3   OH234386   3.641   3.445  13.356  0.3272 -0.0875 -0.3463
 4324TIP3    H134387   3.590   3.461  13.435  0.7083 -0.6214  0.0103
 4324TIP3    H234388   3.681   3.530  13.336  1.4970 -0.2917  0.9370
 4325TIP3   OH234389   3.683   1.735  12.131 -0.0575 -0.1444  0.3508
 4325TIP3    H134390   3.590   1.750  12.114  0.0606 -0.5815 -0.7328
 4325TIP3    H234391   3.714   1.818  12.168 -0.5806  0.4581 -0.5376
 4326TIP3   OH234392   3.522   6.593   4.145 -0.2866  0.1240  0.8344
 4326TIP3    H134393   3.562   6.514   4.180 -0.3865 -0.1624  0.3100
 4326TIP3    H234394   3.461   6.621   4.214  1.4806  1.1159  2.0713
 4327TIP3   OH234395   4.881   4.596   4.648 -0.3956 -0.2688 -0.0403
 4327TIP3    H134396   4.824   4.638   4.584 -1.3907 -1.1658  0.2231
 4327TIP3    H234397   4.960   4.575   4.599 -0.4667  0.5997 -0.5305
 4328TIP3   OH234398   6.080   4.936   3.007 -0.4678 -0.2177 -0.3378
 4328TIP3    H134399   6.088   4.975   2.920 -0.0513 -1.1419 -0.7339
 4328TIP3    H234400   5.991   4.902   3.010 -0.7505  0.5350 -0.0851
 4329TIP3   OH234401   2.444   6.562   3.226  0.0485 -0.1634  1.2813
 4329TIP3    H134402   2.461   6.509   3.304 -2.1049 -1.7974  0.7465
 4329TIP3    H234403   2.372   6.620   3.251 -2.4038 -2.4019 -0.0356
 4330TIP3   OH234404   3.785   5.515   4.273 -0.0904  0.3604 -0.6807
 4330TIP3    H134405   3.729   5.543   4.201  1.1472  2.4248 -0.9363
 4330TIP3    H234406   3.734   5.535   4.352 -0.5848  0.1542 -0.9459
 4331TIP3   OH234407   3.780   2.818  11.390 -0.4860  0.3567  0.3082
 4331TIP3    H134408   3.729   2.894  11.361  0.0959  1.0410  1.0379
 4331TIP3    H234409   3.864   2.828  11.345 -0.4249  0.1020  0.3653
 4332TIP3   OH234410   3.682   6.007   3.629  0.0146  0.5626 -0.4791
 4332TIP3    H134411   3.777   6.013   3.636 -0.1422  2.7315  1.0940
 4332TIP3    H234412   3.656   6.087   3.583 -1.0146 -0.4882 -1.7965
 4333TIP3   OH234413   0.047   4.420  15.728 -0.1506 -0.0540  0.3461
 4333TIP3    H134414   0.070   4.507  15.695 -2.1179  0.5210  0.3543
 4333TIP3    H234415   0.130   4.373  15.732  0.7953  1.4221 -0.8250
 4334TIP3   OH234416   4.324   3.286   5.335  0.5382  0.2258 -0.5604
 4334TIP3    H134417   4.271   3.245   5.404 -0.4206 -1.1911 -2.0503
 4334TIP3    H234418   4.374   3.214   5.297  1.3711  1.0510 -1.0851
 4335TIP3   OH234419   6.556   4.452   1.585 -0.1674  0.5567  0.3789
 4335TIP3    H134420   6.586   4.528   1.534 -3.1914  0.1029 -2.3850
 4335TIP3    H234421   6.462   4.445   1.565 -0.3682 -2.9544  1.8503
 4336TIP3   OH234422   3.964   0.015  14.788 -0.0168 -0.6421  0.0295
 4336TIP3    H134423   3.896  -0.036  14.744  1.5803 -2.5650 -0.3687
 4336TIP3    H234424   4.025   0.038  14.718  0.9188 -0.9672  0.7301
 4337TIP3   OH234425   1.341   2.082   5.664  0.0004  0.3356  0.3439
 4337TIP3    H134426   1.419   2.056   5.714  0.3379 -0.2261 -0.4559
 4337TIP3    H234427   1.272   2.090   5.730  0.6933  0.6850  1.0439
 4338TIP3   OH234428   6.720   6.118   4.808 -0.0711 -0.2558  0.0538
 4338TIP3    H134429   6.792   6.137   4.748  0.1010  2.2413  0.9511
 4338TIP3    H234430   6.646   6.167   4.772 -1.2971 -2.5019 -0.6568
 4339TIP3   OH234431   2.226   0.017   5.436 -0.6376 -0.2672  0.0540
 4339TIP3    H134432   2.283   0.086   5.469 -0.4837  0.8529 -2.3357
 4339TIP3    H234433   2.276  -0.026   5.367 -1.2400 -1.9221  0.5885
 4340TIP3   OH234434   2.533   3.666  13.356 -0.7191  0.5184 -0.1802
 4340TIP3    H134435   2.496   3.595  13.304  0.5045 -0.7820  0.6636
 4340TIP3    H234436   2.549   3.736  13.292  0.0132 -0.7432 -1.4352
 4341TIP3   OH234437   5.438   6.463   2.384  0.1417  0.3075  0.3407
 4341TIP3    H134438   5.368   6.465   2.449  2.1915  2.9068  2.7782
 4341TIP3    H234439   5.519   6.465   2.436  2.2238 -3.4230 -2.2575
 4342TIP3   OH234440   1.703   0.814   0.313 -0.5237  0.1943  0.3713
 4342TIP3    H134441   1.750   0.838   0.232 -2.5593  3.3582 -0.0584
 4342TIP3    H234442   1.625   0.768   0.282 -0.3245 -0.3856  0.7176
 4343TIP3   OH234443   6.567   5.274  17.046 -0.7622 -0.8816  0.1783
 4343TIP3    H134444   6.633   5.221  17.090 -0.3505  0.8280  1.7307
 4343TIP3    H234445   6.499   5.288  17.112 -0.5107  1.0833  0.0881
 4344TIP3   OH234446   3.451   0.479   1.241  0.1989 -0.2040  0.1268
 4344TIP3    H134447   3.492   0.532   1.173  0.1343 -0.7921 -0.3839
 4344TIP3    H234448   3.508   0.403   1.249 -1.1163 -1.3796 -1.0826
 4345TIP3   OH234449   6.748   1.337   1.573  0.0131 -0.7959 -0.0928
 4345TIP3    H134450   6.685   1.273   1.607 -0.3971  0.0708  0.8315
 4345TIP3    H234451   6.765   1.309   1.483 -0.4607 -1.9686  0.1658
 4346TIP3   OH234452   5.083   1.106  16.565 -0.3147  0.5195  0.3733
 4346TIP3    H134453   5.068   1.185  16.617 -0.1263 -0.3452  1.7973
 4346TIP3    H234454   5.161   1.067  16.602 -0.6444 -0.5559 -0.0282
 4347TIP3   OH234455   0.286   0.189  17.090  0.3823  0.1975  0.1133
 4347TIP3    H134456   0.332   0.187  17.006 -2.0100  0.8476 -1.3078
 4347TIP3    H234457   0.320   0.266  17.134  0.6025  0.7148 -0.9236
 4348TIP3   OH234458   0.899   4.770  12.301  0.2786  0.2395 -0.4679
 4348TIP3    H134459   0.916   4.839  12.365  1.1194  1.5594 -2.0208
 4348TIP3    H234460   0.814   4.792  12.263  0.7905  0.7653 -1.3433
 4349TIP3   OH234461   4.011   4.363   5.215  0.5703 -0.0514  0.4068
 4349TIP3    H134462   4.086   4.333   5.266  1.7985  1.0458 -0.6645
 4349TIP3    H234463   4.000   4.297   5.147  1.2895  0.3252 -0.0911
 4350TIP3   OH234464   4.835   2.708   4.050 -0.1592 -0.7062 -0.2704
 4350TIP3    H134465   4.805   2.744   4.133  1.1023 -0.0352 -0.0767
 4350TIP3    H234466   4.807   2.772   3.984  1.2117  0.1823 -0.0355
 4351TIP3   OH234467   3.618   6.697   3.155  0.2372 -0.6398 -0.0633
 4351TIP3    H134468   3.532   6.671   3.121  0.3076 -1.3015  0.2603
 4351TIP3    H234469   3.669   6.715   3.076 -0.5050  0.8008 -0.2460
 4352TIP3   OH234470   4.406   4.714  14.626 -0.3847  0.1494  0.1689
 4352TIP3    H134471   4.499   4.735  14.615  0.3912 -1.8323  2.0961
 4352TIP3    H234472   4.369   4.722  14.538  1.2234  2.5069 -0.3819
 4353TIP3   OH234473   4.781   2.142  16.760 -0.7402  0.2686  0.0106
 4353TIP3    H134474   4.841   2.084  16.712 -1.2144  0.6230 -1.0556
 4353TIP3    H234475   4.696   2.098  16.755 -0.8574  0.4654  0.2533
 4354TIP3   OH234476   2.878   1.401  13.117 -0.1944  0.2031  0.1063
 4354TIP3    H134477   2.940   1.471  13.139  1.3069 -0.5216 -1.5338
 4354TIP3    H234478   2.901   1.330  13.176  0.2603  0.0807 -0.2168
 4355TIP3   OH234479   5.419   6.061  17.017  0.0351 -0.2827 -0.3882
 4355TIP3    H134480   5.343   6.002  17.015 -0.0651 -0.3017  1.7567
 4355TIP3    H234481   5.421   6.094  17.107  3.0913 -0.9622 -0.1095
 4356TIP3   OH234482   0.819   4.887   4.216 -0.8496 -0.2545 -0.0874
 4356TIP3    H134483   0.890   4.951   4.210 -0.0887 -1.0751 -0.0888
 4356TIP3    H234484   0.744   4.931   4.176 -0.7238  1.1338  1.1220
 4357TIP3   OH234485   5.326   4.498  17.172  0.1760  0.3608 -0.4687
 4357TIP3    H134486   5.363   4.419  17.131  0.8213  0.6286 -0.4158
 4357TIP3    H234487   5.385   4.568  17.146  1.1039  0.4180  1.5422
 4358TIP3   OH234488   1.407   1.012   4.822  0.7558  0.3283  0.0975
 4358TIP3    H134489   1.390   0.920   4.802 -1.2774  0.5227  0.7024
 4358TIP3    H234490   1.490   1.032   4.777  0.8857 -1.5955 -0.5956
 4359TIP3   OH234491   5.433   2.516   3.439 -0.2355  0.3782  0.0294
 4359TIP3    H134492   5.521   2.533   3.472 -0.1220 -0.2733  0.0760
 4359TIP3    H234493   5.436   2.543   3.347  0.0836  0.1411 -0.0316
 4360TIP3   OH234494   6.090   0.813  12.414 -0.9398 -0.0157  0.0003
 4360TIP3    H134495   6.132   0.819  12.328 -2.1449  1.2292 -0.5435
 4360TIP3    H234496   6.031   0.738  12.407 -0.3640 -0.4838  0.0700
 4361TIP3   OH234497   3.482   4.099   4.327  0.1226 -0.7894  0.0856
 4361TIP3    H134498   3.435   4.081   4.246 -1.1342 -0.5435  0.7298
 4361TIP3    H234499   3.453   4.031   4.387  0.0932 -0.2560  0.6888
 4362TIP3   OH234500   2.827   4.136  15.176  0.3768 -0.5180  0.2770
 4362TIP3    H134501   2.848   4.049  15.210 -2.3608 -0.8088  1.4233
 4362TIP3    H234502   2.782   4.181  15.248 -1.2662  0.6146 -1.3527
 4363TIP3   OH234503   1.956   1.082  11.889 -0.2125  0.0413 -0.1396
 4363TIP3    H134504   1.900   1.134  11.947  1.7398  0.5500  1.4003
 4363TIP3    H234505   1.906   1.002  11.874 -1.4058  0.5088  1.1073
 4364TIP3   OH234506   0.875   2.557  12.988 -0.4412  0.1627 -0.3179
 4364TIP3    H134507   0.828   2.482  13.023  0.1704  0.9266  2.4146
 4364TIP3    H234508   0.968   2.536  13.000 -0.2286  0.6904 -0.9836
 4365TIP3   OH234509   3.339   2.920   0.212 -0.0454 -0.1201  0.2800
 4365TIP3    H134510   3.387   2.931   0.294  0.5319  0.5994 -0.1430
 4365TIP3    H234511   3.404   2.939   0.144 -1.1623  1.8326 -0.3060
 4366TIP3   OH234512   1.135   5.362   1.356 -0.1792 -0.1202  0.0519
 4366TIP3    H134513   1.195   5.413   1.410 -0.3675 -0.9201  1.0626
 4366TIP3    H234514   1.048   5.386   1.387 -0.2639 -1.1912  0.7100
 4367TIP3   OH234515   4.270   2.698   3.273  0.0768 -0.1841 -0.3404
 4367TIP3    H134516   4.270   2.760   3.345 -1.8178 -0.4795 -0.0446
 4367TIP3    H234517   4.200   2.636   3.294 -0.4643 -0.3356 -2.3901
 4368TIP3   OH234518   3.238   5.026  15.249  0.0056 -0.4061  0.1580
 4368TIP3    H134519   3.295   4.952  15.229  0.0407 -0.6344  1.0427
 4368TIP3    H234520   3.254   5.089  15.179  0.6426 -0.8648 -0.1160
 4369TIP3   OH234521   2.097   5.546   5.319  0.0213  0.1395 -0.0936
 4369TIP3    H134522   2.172   5.543   5.378  1.0109 -1.1527 -1.3426
 4369TIP3    H234523   2.055   5.630   5.337  1.4864  0.6829  0.9640
 4370TIP3   OH234524   0.357   0.167   3.883 -0.4159  0.0857 -0.0192
 4370TIP3    H134525   0.283   0.140   3.829 -1.3094 -1.5700  1.8781
 4370TIP3    H234526   0.317   0.221   3.952  0.0273 -1.0781  1.2045
 4371TIP3   OH234527   4.609   4.088  10.885 -0.4631 -0.0623 -0.4205
 4371TIP3    H134528   4.516   4.097  10.866  0.1997  1.0389 -3.8968
 4371TIP3    H234529   4.634   4.005  10.842  0.3348  0.1837 -0.4374
 4372TIP3   OH234530   0.007   5.822   0.463 -0.8515  0.2020  0.0731
 4372TIP3    H134531   0.025   5.741   0.415 -1.2060  0.9242 -1.3012
 4372TIP3    H234532   0.088   5.839   0.512 -0.4272 -0.4702 -0.3706
 4373TIP3   OH234533   3.859   2.953   3.981  0.3939 -0.3459  0.0384
 4373TIP3    H134534   3.952   2.945   4.001  0.4317  0.8730  0.4201
 4373TIP3    H234535   3.850   2.915   3.894  1.4827  0.7209 -0.5647
 4374TIP3   OH234536   4.518   0.774   5.162  0.2347 -0.7481 -0.1153
 4374TIP3    H134537   4.539   0.681   5.151 -1.3239 -1.0977 -0.3864
 4374TIP3    H234538   4.567   0.800   5.240  1.5992 -1.4841 -0.6833
 4375TIP3   OH234539   4.832   2.737  14.437 -0.2454 -0.7530 -0.1759
 4375TIP3    H134540   4.766   2.668  14.445 -1.2918 -0.0618 -2.2942
 4375TIP3    H234541   4.800   2.808  14.493  0.4066 -1.6060  1.3416
 4376TIP3   OH234542   3.489   4.384  16.298  0.3837 -0.0808 -0.2129
 4376TIP3    H134543   3.517   4.296  16.321  2.5926  1.1344  2.2148
 4376TIP3    H234544   3.554   4.413  16.234  0.7132  0.3839  0.3262
 4377TIP3   OH234545   2.073   3.438   2.795 -0.0880  0.0316  0.6610
 4377TIP3    H134546   2.163   3.453   2.822 -0.0745 -0.9904  1.2312
 4377TIP3    H234547   2.044   3.363   2.847 -0.8821 -0.3991 -0.3577
 4378TIP3   OH234548   0.069   4.940   4.445 -0.3608 -0.1394 -0.3406
 4378TIP3    H134549  -0.012   4.915   4.488 -0.3948 -0.1481 -0.4099
 4378TIP3    H234550   0.064   5.036   4.438 -0.4760 -0.1609 -0.5654
 4379TIP3   OH234551   0.777   5.951   4.814  0.0265  0.2158  0.3576
 4379TIP3    H134552   0.693   5.997   4.815  0.4341  1.0434 -0.6765
 4379TIP3    H234553   0.824   5.989   4.739  0.9976 -0.8130  0.4147
 4380TIP3   OH234554   5.238   3.999   5.115 -0.2426  0.1973  0.0713
 4380TIP3    H134555   5.318   4.039   5.149  0.5656 -1.2809 -0.0163
 4380TIP3    H234556   5.268   3.939   5.047 -1.3710 -0.7958  0.4203
 4381TIP3   OH234557   6.159   3.405  15.614 -0.4699  0.2092  0.0703
 4381TIP3    H134558   6.067   3.405  15.643 -0.2438 -1.6256  0.9333
 4381TIP3    H234559   6.165   3.330  15.554  0.4398  0.3781 -0.0565
 4382TIP3   OH234560   5.103   6.518  11.904  0.2220 -0.0062 -0.3610
 4382TIP3    H134561   5.030   6.480  11.951 -0.7480  1.2833 -0.7752
 4382TIP3    H234562   5.083   6.503  11.811 -0.3547  1.7208 -0.5531
 4383TIP3   OH234563   2.290   5.977   6.212 -0.0963 -0.2016  0.0260
 4383TIP3    H134564   2.362   6.032   6.243 -0.5697 -0.1388  1.0620
 4383TIP3    H234565   2.213   6.011   6.257 -0.8429 -0.0678 -1.3005
 4384TIP3   OH234566   2.275   5.007  16.788 -0.4070  0.1086  0.0432
 4384TIP3    H134567   2.259   4.923  16.743  0.1849 -1.0976  1.9780
 4384TIP3    H234568   2.369   5.008  16.803 -0.3571  1.3328 -0.3211
 4385TIP3   OH234569   5.305   6.344   4.839 -0.7034 -0.4774 -0.6415
 4385TIP3    H134570   5.355   6.300   4.770  0.0355  2.0571 -1.8563
 4385TIP3    H234571   5.235   6.390   4.793 -0.5024  0.8629  0.3314
 4386TIP3   OH234572   0.831   1.039   5.355  0.6273  0.8800 -0.2684
 4386TIP3    H134573   0.756   1.077   5.401 -0.9133  1.1434 -2.8359
 4386TIP3    H234574   0.801   0.951   5.330  1.5314  0.6500 -0.5750
 4387TIP3   OH234575   5.418   3.434  16.348  0.2429 -0.1913  0.0914
 4387TIP3    H134576   5.424   3.525  16.317  0.5532 -0.3108 -0.2083
 4387TIP3    H234577   5.410   3.383  16.267  0.2838 -0.4462  0.2485
 4388TIP3   OH234578   5.316   2.761   1.882 -0.4249  0.7208  0.2694
 4388TIP3    H134579   5.379   2.827   1.853  0.3898  0.7116  1.9035
 4388TIP3    H234580   5.274   2.800   1.959 -0.9160 -0.1129  0.4386
 4389TIP3   OH234581   2.108   4.234   1.055 -0.1590  0.0067 -0.2035
 4389TIP3    H134582   2.087   4.239   0.961 -0.7198 -0.3193 -0.1045
 4389TIP3    H234583   2.202   4.250   1.060 -0.1789  0.3584 -0.7917
 4390TIP3   OH234584   2.331   1.265   4.002  0.0720  0.1551 -0.4450
 4390TIP3    H134585   2.424   1.242   4.004  0.0690  0.1493  1.3401
 4390TIP3    H234586   2.330   1.361   4.002  0.1287  0.2023  1.6427
 4391TIP3   OH234587   3.104   1.128  11.638 -0.1341  0.3021 -0.0807
 4391TIP3    H134588   3.076   1.060  11.578 -0.2678 -0.1725  0.5049
 4391TIP3    H234589   3.157   1.082  11.703 -1.4345  0.4662  1.1698
 4392TIP3   OH234590   6.101   5.310  16.955  0.3172  0.2139  0.1378
 4392TIP3    H134591   6.117   5.382  17.017 -0.0638 -0.2943  0.8464
 4392TIP3    H234592   6.007   5.293  16.963  0.6896 -1.5293  1.3140
 4393TIP3   OH234593   0.425   2.512  14.362  0.2699 -0.1597 -0.0322
 4393TIP3    H134594   0.487   2.573  14.403  2.5303 -2.5792  0.3821
 4393TIP3    H234595   0.478   2.462  14.301 -1.4560 -1.8355 -0.2362
 4394TIP3   OH234596   5.451   2.526   4.957 -0.5768 -0.6755  0.0328
 4394TIP3    H134597   5.499   2.563   5.031 -1.9961  0.5601  0.3724
 4394TIP3    H234598   5.404   2.600   4.919 -0.2174 -1.3676 -1.8785
 4395TIP3   OH234599   1.029   3.590  14.705 -0.0285 -0.7609  0.2615
 4395TIP3    H134600   0.963   3.657  14.691  0.2030 -0.5241  0.2840
 4395TIP3    H234601   0.988   3.508  14.677  0.2528 -0.3748 -1.3466
 4396TIP3   OH234602   1.074   2.846   3.743 -0.0768  0.0326  0.3985
 4396TIP3    H134603   1.025   2.778   3.790 -1.7642 -0.7870 -2.3360
 4396TIP3    H234604   1.092   2.808   3.657  4.3376  0.8109  0.7149
 4397TIP3   OH234605   1.690   1.548   4.305 -0.4453 -0.4019 -0.6903
 4397TIP3    H134606   1.634   1.552   4.382  0.9892 -1.2534  0.4750
 4397TIP3    H234607   1.774   1.583   4.335 -0.0458 -0.1049 -2.0798
 4398TIP3   OH234608   5.691   1.399  14.318 -0.3083  0.2046 -0.5793
 4398TIP3    H134609   5.674   1.314  14.359  0.0635  0.2576 -0.3078
 4398TIP3    H234610   5.643   1.396  14.235 -0.0274 -0.3986 -0.7243
 4399TIP3   OH234611   5.934   3.756   0.122  0.1742  0.3760 -0.2837
 4399TIP3    H134612   5.990   3.776   0.047  1.5701  0.2531  0.6788
 4399TIP3    H234613   5.967   3.813   0.192 -0.2784 -0.3916  0.5769
 4400TIP3   OH234614   1.143   3.576   3.335  0.4777 -0.7449 -0.7413
 4400TIP3    H134615   1.049   3.589   3.322  0.0490 -1.9071  0.9943
 4400TIP3    H234616   1.158   3.484   3.316  0.8792 -1.0564  0.9619
 4401TIP3   OH234617   5.180   5.692  13.872 -0.2288  0.2242 -0.0972
 4401TIP3    H134618   5.246   5.752  13.908 -0.1967  0.2146 -0.1397
 4401TIP3    H234619   5.210   5.605  13.898  0.0095  0.1864 -0.4847
 4402TIP3   OH234620   0.923   0.691   6.647 -0.2627 -0.0731  0.3610
 4402TIP3    H134621   0.901   0.599   6.660 -1.7025 -0.0827 -1.7319
 4402TIP3    H234622   0.880   0.736   6.720 -1.3909 -0.8612  0.2137
 4403TIP3   OH234623   1.539   1.529  17.024  0.3825  0.0973 -0.1690
 4403TIP3    H134624   1.473   1.598  17.019  1.6379  1.2453 -2.3501
 4403TIP3    H234625   1.511   1.463  16.961 -0.9027 -1.6045  2.0261
 4404TIP3   OH234626   3.260   4.130   1.631 -0.0626 -0.3856 -0.5497
 4404TIP3    H134627   3.342   4.159   1.591  0.3873 -2.1502 -1.0201
 4404TIP3    H234628   3.207   4.098   1.557  0.2482 -2.4547  0.0425
 4405TIP3   OH234629   6.215   0.922   5.569  0.4755  0.5597  0.0273
 4405TIP3    H134630   6.196   0.937   5.662 -1.0874  1.3656 -0.3938
 4405TIP3    H234631   6.307   0.897   5.568  0.2520 -0.5567  1.9006
 4406TIP3   OH234632   4.649   5.054   2.153  1.1428  0.3453  0.3804
 4406TIP3    H134633   4.609   5.045   2.240  0.0913 -1.5686 -0.2226
 4406TIP3    H234634   4.716   4.986   2.151  1.8458  1.0415  0.0350
 4407TIP3   OH234635   3.231   2.186  13.084 -0.2071 -0.0387  0.3625
 4407TIP3    H134636   3.214   2.219  12.996 -0.5378  1.1832  0.8703
 4407TIP3    H234637   3.190   2.099  13.085  0.6090 -0.4691 -0.9681
 4408TIP3   OH234638   0.288   6.740  16.634 -1.0748 -0.5919  0.1963
 4408TIP3    H134639   0.267   6.684  16.560  0.8932 -1.0895 -0.0482
 4408TIP3    H234640   0.263   6.828  16.605 -0.7456 -0.8425 -0.9037
 4409TIP3   OH234641   6.266   1.407   5.461 -0.7718  0.7532 -0.1511
 4409TIP3    H134642   6.356   1.378   5.479 -0.7704  0.8100 -0.0664
 4409TIP3    H234643   6.245   1.466   5.533 -1.2512 -0.0667  0.3843
 4410TIP3   OH234644   3.107   3.223  16.006 -0.3145 -0.0284  0.2999
 4410TIP3    H134645   3.125   3.299  16.060  0.7359  1.0794 -1.4881
 4410TIP3    H234646   3.118   3.255  15.916 -2.1637 -1.7089 -0.6031
 4411TIP3   OH234647   5.686   2.251   2.204  0.4106  0.0229  0.5966
 4411TIP3    H134648   5.601   2.216   2.179  0.2845  0.4732  0.3956
 4411TIP3    H234649   5.673   2.346   2.209  1.3005  0.2678 -1.0628
 4412TIP3   OH234650   0.877   1.853   4.221 -0.1378  0.5684  0.0972
 4412TIP3    H134651   0.860   1.780   4.281 -0.1477  0.6501  0.1959
 4412TIP3    H234652   0.846   1.823   4.136  0.1657  0.3344  0.0699
 4413TIP3   OH234653   0.420   6.616   2.858  0.0788 -0.0622 -0.5549
 4413TIP3    H134654   0.507   6.598   2.822  0.8785  0.4148  1.0399
 4413TIP3    H234655   0.436   6.675   2.932 -1.6034  0.0229 -0.2099
 4414TIP3   OH234656   2.798   6.493   5.106 -0.1580 -0.1642 -0.0949
 4414TIP3    H134657   2.745   6.539   5.172 -0.7007  0.2536 -0.7977
 4414TIP3    H234658   2.779   6.400   5.120 -1.0246 -0.0233 -0.2749
 4415TIP3   OH234659   5.803   6.404  13.698 -0.0513  0.6551  0.4065
 4415TIP3    H134660   5.819   6.374  13.608  0.5438  1.9365  0.0642
 4415TIP3    H234661   5.891   6.415  13.735 -0.2927  0.0903  1.1754
 4416TIP3   OH234662   3.611   0.631   2.891  0.5412 -0.4321 -0.1059
 4416TIP3    H134663   3.641   0.572   2.960  0.8450  2.0365  2.0037
 4416TIP3    H234664   3.605   0.717   2.933 -0.5310  0.9574 -2.8454
 4417TIP3   OH234665   2.798   2.571   4.910  0.3501  0.2505  0.0209
 4417TIP3    H134666   2.826   2.482   4.893  4.0080  0.8064  2.1292
 4417TIP3    H234667   2.721   2.562   4.967 -1.9680 -1.3897 -3.0768
 4418TIP3   OH234668   4.119   3.457   1.823 -0.4388  0.0317 -0.2230
 4418TIP3    H134669   4.159   3.503   1.896  0.4634  2.0329 -1.8854
 4418TIP3    H234670   4.026   3.481   1.826 -0.7012 -1.0151  1.0100
 4419TIP3   OH234671   6.779   3.564  16.931 -0.0479 -0.3802  0.0091
 4419TIP3    H134672   6.844   3.609  16.877 -1.0034  0.3558 -0.5474
 4419TIP3    H234673   6.783   3.473  16.901  0.3513 -0.2358 -0.3889
 4420TIP3   OH234674   6.554   6.728   0.052 -0.1535 -0.0411  0.3817
 4420TIP3    H134675   6.517   6.640   0.044 -2.2643  0.7305  0.9916
 4420TIP3    H234676   6.610   6.723   0.130  1.0395 -1.2110 -0.4912
 4421TIP3   OH234677   4.111   2.935  13.040  0.3645 -0.0742  0.1583
 4421TIP3    H134678   4.057   2.924  12.962  0.8313 -1.9808  0.0382
 4421TIP3    H234679   4.192   2.887  13.020  1.6971  1.7990  0.7338
 4422TIP3   OH234680   5.561   6.482  14.700 -0.1129 -0.1865  0.4206
 4422TIP3    H134681   5.572   6.569  14.661  2.1712 -0.4296  0.3730
 4422TIP3    H234682   5.478   6.487  14.747 -0.9233  1.4285 -1.0473
 4423TIP3   OH234683   1.239   2.142  14.906 -0.1212  0.4413 -0.2583
 4423TIP3    H134684   1.327   2.134  14.944 -0.4339 -0.6055  0.2841
 4423TIP3    H234685   1.232   2.234  14.883  1.6565  0.2837 -1.6592
 4424TIP3   OH234686   5.764   5.638   4.793 -0.4312 -0.0430  0.6122
 4424TIP3    H134687   5.737   5.705   4.730 -0.8613 -0.5539  0.2406
 4424TIP3    H234688   5.755   5.555   4.745  0.2215 -0.3539  1.0242
 4425TIP3   OH234689   6.014   2.177  11.983  0.5610 -0.1562 -0.5804
 4425TIP3    H134690   6.004   2.107  12.048 -2.4847  0.9946  0.3504
 4425TIP3    H234691   5.975   2.142  11.903  0.6125 -0.1295 -0.6175
 4426TIP3   OH234692   6.520   0.323  17.137  0.0494 -0.1336 -0.4015
 4426TIP3    H134693   6.546   0.343  17.226 -2.9022  1.3634  0.2522
 4426TIP3    H234694   6.589   0.359  17.082  0.7814  1.0276  1.2184
 4427TIP3   OH234695   2.755   2.428   2.025  0.2450  0.0339 -0.5673
 4427TIP3    H134696   2.756   2.350   2.080  1.0525  0.1599 -0.3876
 4427TIP3    H234697   2.669   2.467   2.038 -0.9280 -1.8655 -2.1466
 4428TIP3   OH234698   3.538   0.581  12.843 -0.4447  0.0221 -0.3657
 4428TIP3    H134699   3.575   0.669  12.852 -0.1182 -0.1569  0.0526
 4428TIP3    H234700   3.521   0.572  12.749  0.2914  0.2228 -0.5250
 4429TIP3   OH234701   6.321   2.165   1.947  0.4255  0.1230  0.0295
 4429TIP3    H134702   6.264   2.172   2.023  1.9166 -0.4186  1.2607
 4429TIP3    H234703   6.302   2.243   1.895 -2.9706 -1.0796 -0.8015
 4430TIP3   OH234704   4.894   5.137  13.673  0.3393  0.3861 -0.1809
 4430TIP3    H134705   4.987   5.158  13.682  0.2361  0.7006  0.1954
 4430TIP3    H234706   4.892   5.044  13.651  0.7831  0.6393 -1.3594
 4431TIP3   OH234707   5.397   3.487   5.323 -0.0894 -0.1786 -0.2829
 4431TIP3    H134708   5.378   3.500   5.416  0.1689 -0.1050 -0.2385
 4431TIP3    H234709   5.451   3.408   5.321  1.6711  0.9440 -0.1441
 4432TIP3   OH234710   4.506   3.675  13.941 -0.3169  0.0905  0.0195
 4432TIP3    H134711   4.584   3.717  13.977  0.2329 -1.2171  0.4093
 4432TIP3    H234712   4.459   3.641  14.017 -1.1876  0.7029 -0.2278
 4433TIP3   OH234713   2.813   2.805   4.144 -0.0391 -0.2104  0.2013
 4433TIP3    H134714   2.786   2.831   4.232  0.0866  1.8735 -0.3158
 4433TIP3    H234715   2.869   2.729   4.158  0.8638  0.7138  2.0558
 4434TIP3   OH234716   2.142   4.247  13.147 -0.7549 -0.2169 -0.1072
 4434TIP3    H134717   2.227   4.229  13.105 -0.2539  1.8288 -0.0526
 4434TIP3    H234718   2.120   4.165  13.191  1.2279 -0.7901 -0.0689
 4435TIP3   OH234719   0.071   1.880  15.702 -0.0788  0.0347 -0.1041
 4435TIP3    H134720   0.064   1.898  15.796 -0.1212 -0.5458  0.0032
 4435TIP3    H234721   0.066   1.967  15.662  0.1327  0.3038  0.4379
 4436TIP3   OH234722   2.798   3.010   3.516  0.0805 -0.4815 -0.4764
 4436TIP3    H134723   2.893   3.019   3.519  0.0563 -0.4390  0.6222
 4436TIP3    H234724   2.765   3.099   3.528 -0.0909 -0.7169  1.0520
 4437TIP3   OH234725   1.760   0.665  12.548 -0.0335 -0.2945 -0.1520
 4437TIP3    H134726   1.720   0.727  12.487 -0.9067  1.2913  1.8962
 4437TIP3    H234727   1.814   0.720  12.605  1.5585 -1.8405 -0.0739
 4438TIP3   OH234728   5.396   4.825  16.894  0.2986  0.3532 -0.3182
 4438TIP3    H134729   5.367   4.902  16.942  0.1832 -0.0917  0.3366
 4438TIP3    H234730   5.487   4.813  16.920  0.2703  0.1755 -0.2970
 4439TIP3   OH234731   3.311   6.072   4.693 -1.2731 -0.1277  0.2843
 4439TIP3    H134732   3.395   6.109   4.720 -0.4796 -2.1689  0.8202
 4439TIP3    H234733   3.254   6.083   4.769 -0.9975 -0.1689  0.4959
 4440TIP3   OH234734   4.825   5.425   6.544  0.4968  0.0581 -0.3505
 4440TIP3    H134735   4.852   5.458   6.459  1.3800 -1.4001 -0.6801
 4440TIP3    H234736   4.887   5.354   6.563 -1.7547 -2.0163 -0.1411
 4441TIP3   OH234737   1.569   0.877  12.921 -0.2590  0.4048  0.0489
 4441TIP3    H134738   1.640   0.815  12.903 -0.2828 -0.1859  1.7896
 4441TIP3    H234739   1.547   0.913  12.835 -0.5962 -2.3572 -1.1319
 4442TIP3   OH234740   2.860   5.186   4.886 -0.4370  0.8412  0.1960
 4442TIP3    H134741   2.923   5.253   4.912 -1.0370  2.1229 -1.4835
 4442TIP3    H234742   2.841   5.205   4.795  0.9290 -2.9041 -1.0668
 4443TIP3   OH234743   0.870   1.906   1.851  0.2581 -0.3433  0.2092
 4443TIP3    H134744   0.881   1.817   1.817 -0.2297 -1.8406  3.6014
 4443TIP3    H234745   0.905   1.903   1.940 -0.5223  2.6592  0.7429
 4444TIP3   OH234746   6.743   1.528  12.305 -0.1080 -0.2407  0.3977
 4444TIP3    H134747   6.706   1.449  12.265 -0.0444  0.0724 -0.3031
 4444TIP3    H234748   6.684   1.598  12.278 -0.7800 -0.1918  1.9191
 4445TIP3   OH234749   0.049   3.938   3.849  0.7051 -0.2327  0.8455
 4445TIP3    H134750   0.009   4.025   3.844  1.1790  0.0061  1.1971
 4445TIP3    H234751   0.100   3.931   3.768  2.3585  0.6698  1.7397
 4446TIP3   OH234752   6.582   5.779  15.143  0.2047 -0.4788  0.6449
 4446TIP3    H134753   6.525   5.841  15.098 -1.4815 -1.1610  1.7154
 4446TIP3    H234754   6.662   5.776  15.091 -1.4504 -0.9073 -2.0391
 4447TIP3   OH234755   4.419   4.050  12.549 -0.2432 -0.1072  0.5227
 4447TIP3    H134756   4.389   3.978  12.605  0.9194  0.4085  1.8665
 4447TIP3    H234757   4.401   4.020  12.460 -1.2545 -1.3745  1.1176
 4448TIP3   OH234758   4.855   1.308   4.719  0.4716  0.4276  0.6969
 4448TIP3    H134759   4.870   1.397   4.686 -0.5644  0.8421  1.3072
 4448TIP3    H234760   4.865   1.316   4.814 -2.1807  0.4761  1.0460
 4449TIP3   OH234761   1.303   5.429  13.794 -0.0504 -0.0572  0.1235
 4449TIP3    H134762   1.291   5.501  13.856  0.9210  0.0332  0.2332
 4449TIP3    H234763   1.300   5.350  13.847 -2.3083 -0.2145 -0.1538
 4450TIP3   OH234764   5.644   4.718  16.993  0.1461 -0.2196  0.2975
 4450TIP3    H134765   5.623   4.630  16.962  0.1313  0.3182 -1.3405
 4450TIP3    H234766   5.690   4.704  17.075 -0.0353 -1.7450  0.1733
 4451TIP3   OH234767   6.640   5.336   0.304 -0.4212 -0.1157  0.3723
 4451TIP3    H134768   6.685   5.314   0.386  0.2572 -1.3588 -0.3107
 4451TIP3    H234769   6.572   5.398   0.331  1.7726  2.0207  1.4314
 4452TIP3   OH234770   0.923   6.508  15.578  0.2051 -0.0037  0.1230
 4452TIP3    H134771   0.917   6.414  15.588  0.3414  0.0366  0.6087
 4452TIP3    H234772   0.904   6.524  15.485  0.1542 -0.5007  0.0468
 4453TIP3   OH234773   6.354   5.428  13.690 -0.8084  0.5958  0.2867
 4453TIP3    H134774   6.329   5.450  13.779  1.1646 -2.2975  1.6957
 4453TIP3    H234775   6.430   5.482  13.671  2.3598 -2.5385  2.7159
 4454TIP3   OH234776   0.297   6.727  17.282 -0.0640  0.1467 -0.2252
 4454TIP3    H134777   0.318   6.804  17.229 -0.0698 -0.3142 -0.9234
 4454TIP3    H234778   0.202   6.715  17.270 -0.2409  0.6065  0.6826
 4455TIP3   OH234779   5.770   1.088   1.933  0.3338  0.3613  0.1877
 4455TIP3    H134780   5.848   1.143   1.940  0.3218  0.3426  0.4585
 4455TIP3    H234781   5.792   1.026   1.863  0.2266  0.9023 -0.3300
 4456TIP3   OH234782   1.417   6.422  10.572  0.2870 -0.0978  0.0847
 4456TIP3    H134783   1.403   6.387  10.661  1.2704 -0.5315  0.0926
 4456TIP3    H234784   1.437   6.344  10.520 -1.6581 -0.0199 -0.8451
 4457TIP3   OH234785   3.819   5.132   4.257  0.5762  0.1221 -0.3660
 4457TIP3    H134786   3.828   5.042   4.288  0.3339 -0.0379 -0.7622
 4457TIP3    H234787   3.798   5.182   4.336  0.3264 -0.2296 -0.2070
 4458TIP3   OH234788   2.990   1.992  11.098 -0.0976 -0.5155  0.3815
 4458TIP3    H134789   3.076   2.007  11.059  0.3434  0.7924  1.7495
 4458TIP3    H234790   2.939   1.951  11.028  0.8898  0.9424 -1.2883
 4459TIP3   OH234791   3.208   1.515   3.454 -0.5203  0.0860  0.7265
 4459TIP3    H134792   3.210   1.591   3.397  0.7446  1.1817  2.1450
 4459TIP3    H234793   3.290   1.519   3.503 -0.7143 -1.8363  1.3107
 4460TIP3   OH234794   3.582   2.991   3.824  0.0349  0.3437  0.3450
 4460TIP3    H134795   3.631   3.072   3.808  1.0191 -0.0850  1.0506
 4460TIP3    H234796   3.556   2.961   3.737  2.0877 -0.0350 -0.1924
 4461TIP3   OH234797   4.264   3.918  11.643 -0.4739 -0.1632  0.6263
 4461TIP3    H134798   4.301   3.830  11.645 -0.1008 -0.0732 -0.9812
 4461TIP3    H234799   4.308   3.961  11.570 -0.4626  1.4573  1.5360
 4462TIP3   OH234800   2.028   0.947   6.837  0.5221  0.1247  0.3345
 4462TIP3    H134801   2.083   0.884   6.883 -0.6498 -0.1903  1.3737
 4462TIP3    H234802   2.054   0.939   6.745  0.5655 -1.7228  0.4653
 4463TIP3   OH234803   2.579   2.238   0.506  0.0260 -0.2956 -0.3728
 4463TIP3    H134804   2.673   2.237   0.488 -0.0745 -1.1880 -0.8861
 4463TIP3    H234805   2.555   2.330   0.504  1.4287  0.2649  2.6619
 4464TIP3   OH234806   0.190   1.867   2.442 -0.0974 -0.6259 -0.5591
 4464TIP3    H134807   0.208   1.788   2.391 -1.7248 -0.8016 -0.9006
 4464TIP3    H234808   0.221   1.846   2.530  0.1018 -1.3849 -0.8039
 4465TIP3   OH234809   3.488   5.924   1.111 -0.7313 -0.2844  0.4496
 4465TIP3    H134810   3.533   5.894   1.032 -0.2560  0.9523  0.2344
 4465TIP3    H234811   3.542   5.891   1.183 -0.0769  0.2674  0.2158
 4466TIP3   OH234812   2.497   2.582   4.223  0.2758  0.3914 -0.3928
 4466TIP3    H134813   2.407   2.569   4.252  0.3075 -0.7260 -0.7386
 4466TIP3    H234814   2.550   2.531   4.283  0.5827  0.2252 -0.7961
 4467TIP3   OH234815   5.221   2.973  14.976 -0.1008 -0.1658 -0.7999
 4467TIP3    H134816   5.174   2.891  14.993  1.6854 -1.0253  0.3657
 4467TIP3    H234817   5.274   2.986  15.054 -0.3521  2.1563 -0.9611
 4468TIP3   OH234818   0.450   2.238   0.639 -0.1585 -0.2882 -0.0429
 4468TIP3    H134819   0.520   2.299   0.615 -0.8552  0.4137 -0.3467
 4468TIP3    H234820   0.496   2.159   0.668  0.7696 -0.4580 -1.7984
 4469TIP3   OH234821   6.484   2.130  16.938 -0.0780 -0.2529 -0.1520
 4469TIP3    H134822   6.421   2.079  16.988 -1.3477  1.6587  0.2920
 4469TIP3    H234823   6.431   2.178  16.874  0.9439  1.1863  0.0326
 4470TIP3   OH234824   4.787   6.731   5.811 -0.3237  0.6264  0.3331
 4470TIP3    H134825   4.749   6.771   5.732 -1.7241  1.3271  1.3249
 4470TIP3    H234826   4.774   6.637   5.799  0.5434  0.6241 -0.7852
 4471TIP3   OH234827   1.454   2.398  12.266  0.5240 -0.2849  0.1316
 4471TIP3    H134828   1.544   2.428  12.281  0.0793  1.6274 -0.7841
 4471TIP3    H234829   1.413   2.400  12.352  1.2451 -0.8431  0.5012
 4472TIP3   OH234830   0.831   0.235  16.393  0.4992  0.5944 -0.1468
 4472TIP3    H134831   0.911   0.247  16.342  0.7837  0.7295  0.3224
 4472TIP3    H234832   0.861   0.200  16.476  0.1106  1.0072  0.1732
 4473TIP3   OH234833   2.703   1.303  15.215 -0.2260  0.1292 -0.0674
 4473TIP3    H134834   2.702   1.207  15.210 -0.3422  0.0978  0.5620
 4473TIP3    H234835   2.741   1.330  15.131  1.2453 -0.5190  0.3499
 4474TIP3   OH234836   3.658   2.410   4.448 -0.2431 -0.3281  0.6769
 4474TIP3    H134837   3.639   2.439   4.359 -1.7362  0.8820  1.3549
 4474TIP3    H234838   3.581   2.360   4.475 -0.0995 -0.1331  1.5022
 4475TIP3   OH234839   1.880   2.987   2.960  0.4072 -0.1931 -1.0727
 4475TIP3    H134840   1.899   3.081   2.963 -1.1086  0.1312 -0.4051
 4475TIP3    H234841   1.950   2.947   3.012  0.6793  0.6510 -0.7654
 4476TIP3   OH234842   4.991   4.395  14.578 -0.1408  0.3537 -0.3897
 4476TIP3    H134843   5.039   4.472  14.608 -0.3807  0.5195 -0.4276
 4476TIP3    H234844   4.900   4.425  14.570 -0.2523  0.0421 -0.3070
 4477TIP3   OH234845   1.843   6.117   5.448  0.4081 -0.0808 -0.3333
 4477TIP3    H134846   1.843   6.043   5.386  0.1748  1.0699 -1.7683
 4477TIP3    H234847   1.935   6.144   5.453  0.3434  0.2080 -0.6659
 4478TIP3   OH234848   3.765   1.858   3.510 -0.6278  0.1185  0.6039
 4478TIP3    H134849   3.770   1.930   3.573  1.1990  0.0032  0.6548
 4478TIP3    H234850   3.747   1.900   3.426 -0.2312  0.5655  0.7393
 4479TIP3   OH234851   6.657   6.708  12.240 -0.1127 -0.2014 -0.9118
 4479TIP3    H134852   6.604   6.642  12.286 -0.4054 -0.9981 -2.3175
 4479TIP3    H234853   6.746   6.691  12.268 -0.3974  0.0223  0.1644
 4480TIP3   OH234854   5.104   1.726   0.967 -0.0464 -0.7560 -0.1668
 4480TIP3    H134855   5.166   1.653   0.964 -0.2384 -0.8940 -2.7854
 4480TIP3    H234856   5.023   1.691   0.930 -0.0410  0.8274 -1.8131
 4481TIP3   OH234857   5.827   2.829  16.411 -0.3338 -0.4992 -0.0996
 4481TIP3    H134858   5.756   2.769  16.392 -0.4614 -0.2740 -0.3319
 4481TIP3    H234859   5.807   2.863  16.498 -0.0766 -1.0562  0.1831
 4482TIP3   OH234860   5.703   3.510  12.589 -0.2930  0.2541 -0.5255
 4482TIP3    H134861   5.667   3.421  12.597 -1.2082  0.5327 -1.3840
 4482TIP3    H234862   5.693   3.547  12.677 -3.1323  0.6702 -0.9379
 4483TIP3   OH234863   0.138   1.195  14.921 -0.6030 -0.2622 -0.2279
 4483TIP3    H134864   0.111   1.134  14.989  0.8911 -1.3935 -0.5927
 4483TIP3    H234865   0.065   1.196  14.858 -1.5962  0.0915  0.9049
 4484TIP3   OH234866   1.703   6.034  13.815 -0.1070  0.0866 -0.5793
 4484TIP3    H134867   1.643   5.960  13.831  0.3958 -0.0231  0.9977
 4484TIP3    H234868   1.733   6.022  13.726  0.6380 -2.1412 -0.0874
 4485TIP3   OH234869   4.811   6.222  16.291 -0.2139 -0.1961  0.0505
 4485TIP3    H134870   4.718   6.214  16.270  0.0619 -3.3189 -0.3767
 4485TIP3    H234871   4.812   6.261  16.378 -1.8051  1.7392 -0.7150
 4486TIP3   OH234872   0.606   2.043   0.717 -0.1519 -0.0703 -0.1283
 4486TIP3    H134873   0.700   2.030   0.704 -0.4495 -0.8535 -1.7254
 4486TIP3    H234874   0.578   1.969   0.771  0.2128  0.4301  0.7703
 4487TIP3   OH234875   4.424   3.432  14.576 -0.5510  0.1088  0.1684
 4487TIP3    H134876   4.480   3.494  14.529 -0.3206  0.6631  1.1466
 4487TIP3    H234877   4.341   3.478  14.588 -0.9616 -0.4122 -0.5715
 4488TIP3   OH234878   4.444   5.313   0.314  0.3166  0.5531 -0.1209
 4488TIP3    H134879   4.404   5.310   0.227 -0.8732 -0.9581  0.4272
 4488TIP3    H234880   4.532   5.349   0.299 -1.0047  3.5988 -1.4322
 4489TIP3   OH234881   4.082   5.291  16.298 -0.4982  0.5709 -0.1003
 4489TIP3    H134882   4.145   5.356  16.268 -1.6680  1.4699 -0.6920
 4489TIP3    H234883   4.023   5.279  16.224 -1.1487 -0.0869  0.5133
 4490TIP3   OH234884   4.751   0.330  12.593 -0.2292  0.0968  0.1706
 4490TIP3    H134885   4.778   0.358  12.505  0.7367 -0.1543  0.3781
 4490TIP3    H234886   4.818   0.365  12.651 -1.0851  0.6110  0.8732
 4491TIP3   OH234887   0.857   0.195  13.521  0.1710  0.3006  0.0146
 4491TIP3    H134888   0.791   0.126  13.510  0.1948  0.5432 -1.9194
 4491TIP3    H234889   0.816   0.273  13.484  1.1756  0.6908 -0.2929
 4492TIP3   OH234890   1.800   4.877  11.687  0.0370  0.6146  0.2567
 4492TIP3    H134891   1.804   4.807  11.623 -1.1111  1.4027 -0.7421
 4492TIP3    H234892   1.843   4.842  11.765 -0.2353 -1.0711 -0.3096
 4493TIP3   OH234893   5.634   2.795  13.686 -0.6956 -0.4528 -0.1995
 4493TIP3    H134894   5.604   2.836  13.605 -0.7432 -0.8077 -0.3638
 4493TIP3    H234895   5.576   2.829  13.754 -0.6357 -0.1298 -0.3064
 4494TIP3   OH234896   2.994   4.568   6.215  0.0351  0.6371  0.2101
 4494TIP3    H134897   2.930   4.617   6.268  0.9072  1.6755  0.3347
 4494TIP3    H234898   3.059   4.537   6.278  0.0392  0.1919 -0.0080
 4495TIP3   OH234899   1.097   6.090   5.853 -0.2041  0.2383  0.3507
 4495TIP3    H134900   1.070   6.097   5.762  0.8071  1.6701  0.1398
 4495TIP3    H234901   1.024   6.046   5.897 -1.2271  0.6693 -0.8973
 4496TIP3   OH234902   1.928   4.330  13.002 -0.4490 -0.9035 -0.1452
 4496TIP3    H134903   1.934   4.259  12.938 -0.5852 -0.3724 -0.7597
 4496TIP3    H234904   1.997   4.311  13.065  0.2411 -0.9872 -0.9115
 4497TIP3   OH234905   0.428   6.330  14.720 -0.2693  0.4888 -0.3948
 4497TIP3    H134906   0.486   6.312  14.645 -1.2966 -0.5475 -0.9700
 4497TIP3    H234907   0.488   6.347  14.793  0.7967 -1.5787 -0.7225
 4498TIP3   OH234908   5.641   0.968  12.812 -0.1270 -0.3276  0.6790
 4498TIP3    H134909   5.619   1.042  12.756 -1.5721  0.1846  1.8357
 4498TIP3    H234910   5.621   0.891  12.759  3.6406 -0.0789 -1.4272
 4499TIP3   OH234911   4.758   4.751   5.502 -0.0117  0.1825  0.1001
 4499TIP3    H134912   4.780   4.740   5.595  2.2815 -0.2747 -0.4505
 4499TIP3    H234913   4.685   4.691   5.488  0.1479 -0.3572  1.4007
 4500TIP3   OH234914   0.747   4.565   1.251  0.0658 -0.2073 -0.3901
 4500TIP3    H134915   0.663   4.543   1.293 -0.3420 -0.5182 -1.3506
 4500TIP3    H234916   0.750   4.661   1.254 -0.2321 -0.1997 -0.1828
 4501TIP3   OH234917   5.738   6.103  12.271  0.3816  0.8381  0.3958
 4501TIP3    H134918   5.743   6.112  12.176  2.7229 -1.3392  0.1900
 4501TIP3    H234919   5.719   6.010  12.285  2.2412  0.6437  1.9891
 4502TIP3   OH234920   2.433   1.424   0.148  0.3233 -0.3601  0.5632
 4502TIP3    H134921   2.462   1.424   0.057 -0.1929  0.1633  0.3885
 4502TIP3    H234922   2.363   1.359   0.152 -1.6914  1.6096 -0.1312
 4503TIP3   OH234923   0.129   6.161  17.244  0.1626  0.4995  0.6004
 4503TIP3    H134924   0.167   6.220  17.179 -1.1649  1.0003  0.2459
 4503TIP3    H234925   0.052   6.125  17.201 -0.6584  0.7211  1.8464
 4504TIP3   OH234926   2.330   5.108   6.297  0.0788 -0.0966 -0.0825
 4504TIP3    H134927   2.270   5.075   6.229  0.7015 -1.0943 -0.1736
 4504TIP3    H234928   2.298   5.068   6.378 -1.7416  2.4724  0.5877
 4505TIP3   OH234929   5.853   5.608   4.299  0.1470  0.0189  0.0802
 4505TIP3    H134930   5.814   5.687   4.262  1.9557  1.1877  0.5677
 4505TIP3    H234931   5.779   5.549   4.312 -1.3889  1.9330  0.4965
 4506TIP3   OH234932   1.961   6.017   2.973  0.4083  0.3040  0.0048
 4506TIP3    H134933   2.041   6.010   3.025  0.2772 -0.1697  0.1540
 4506TIP3    H234934   1.928   6.104   2.992  1.7905  1.1701 -1.3897
 4507TIP3   OH234935   0.211   6.326  13.926 -0.5962  0.7014  0.3806
 4507TIP3    H134936   0.159   6.271  13.985  1.4278  1.7271  3.3642
 4507TIP3    H234937   0.293   6.277  13.913 -1.1054  0.3542 -1.9786
 4508TIP3   OH234938   1.315   3.754   4.917 -0.0507  0.2190 -0.1557
 4508TIP3    H134939   1.408   3.750   4.893 -0.6018  1.2757 -2.6644
 4508TIP3    H234940   1.290   3.662   4.929  1.1000 -0.1346 -0.2997
 4509TIP3   OH234941   3.549   1.690   5.522 -0.4270  0.1654  0.1056
 4509TIP3    H134942   3.626   1.719   5.473 -1.4186  2.9716  0.0332
 4509TIP3    H234943   3.558   1.594   5.527  1.8586  0.1941 -1.8469
 4510TIP3   OH234944   2.447   4.094  16.958 -0.0764 -0.2380  0.3189
 4510TIP3    H134945   2.511   4.055  16.898 -1.2236 -1.5186 -0.1345
 4510TIP3    H234946   2.474   4.066  17.045  1.0112  0.7823  0.3458
 4511TIP3   OH234947   2.553   1.294  17.160  0.3583 -0.0247 -0.0806
 4511TIP3    H134948   2.500   1.246  17.096  1.0176 -2.6086  1.1630
 4511TIP3    H234949   2.626   1.236  17.178  1.2737  1.5401  1.5094
 4512TIP3   OH234950   0.939   5.050  13.022  0.3320 -0.8414 -0.6072
 4512TIP3    H134951   0.930   5.008  13.108  0.0213 -0.4229 -0.4299
 4512TIP3    H234952   0.974   5.136  13.042 -2.6596  0.4863 -0.5645
 4513TIP3   OH234953   5.775   1.924   6.097 -0.0588  0.3522 -0.4382
 4513TIP3    H134954   5.813   1.839   6.073 -0.7471 -0.2163  0.4038
 4513TIP3    H234955   5.816   1.945   6.181 -1.6239 -0.3058  0.5169
 4514TIP3   OH234956   3.076   2.760  13.071  0.2756  0.9170 -0.0960
 4514TIP3    H134957   3.080   2.748  13.166 -0.1045  0.6446 -0.1107
 4514TIP3    H234958   3.103   2.851  13.057  0.3808  0.9431  0.2707
 4515TIP3   OH234959   0.232   6.178   3.944  0.0202 -0.4018 -0.0161
 4515TIP3    H134960   0.211   6.093   3.981  0.8531 -1.1295 -1.1414
 4515TIP3    H234961   0.328   6.179   3.940 -0.0193 -0.0353 -1.3747
 4516TIP3   OH234962   3.359   5.215   3.011 -0.6590  0.3798  0.1635
 4516TIP3    H134963   3.453   5.208   2.993 -0.9071 -0.2922 -0.9971
 4516TIP3    H234964   3.341   5.148   3.076 -0.5886 -0.5536 -0.7531
 4517TIP3   OH234965   1.764   2.496  13.369  0.2078 -0.1989  0.5910
 4517TIP3    H134966   1.774   2.590  13.385  0.9878 -0.3483  1.0432
 4517TIP3    H234967   1.801   2.455  13.447  1.4874 -0.9154 -0.3717
 4518TIP3   OH234968   0.446   3.639  15.872 -0.0973 -1.3055 -0.0870
 4518TIP3    H134969   0.539   3.636  15.898 -0.4046  1.0529  1.6269
 4518TIP3    H234970   0.446   3.610  15.781  2.1780 -2.2610  0.1246
 4519TIP3   OH234971   0.608   5.999   2.084  0.4800 -0.1928 -0.1013
 4519TIP3    H134972   0.513   5.988   2.076  0.2654  0.0826  1.7613
 4519TIP3    H234973   0.629   6.071   2.024 -0.8474  1.2513  1.0904
 4520TIP3   OH234974   6.476   3.260  15.249 -0.4764  0.5917 -0.4583
 4520TIP3    H134975   6.532   3.250  15.173 -1.6107  1.3728 -1.4303
 4520TIP3    H234976   6.519   3.208  15.318  0.2070 -0.6839 -1.8018
 4521TIP3   OH234977   1.260   3.808   3.711  0.1573  0.0607 -0.1962
 4521TIP3    H134978   1.344   3.775   3.740  0.2423 -0.9391 -1.4762
 4521TIP3    H234979   1.221   3.849   3.789  0.8228 -1.5051  1.0017
 4522TIP3   OH234980   2.495   4.401  15.285  0.1957 -0.0089 -0.6345
 4522TIP3    H134981   2.475   4.421  15.376 -1.8224  0.1251 -1.0576
 4522TIP3    H234982   2.469   4.310  15.274 -0.5502  0.2827 -1.3301
 4523TIP3   OH234983   5.383   6.711  12.618  0.0530  0.2275  0.0406
 4523TIP3    H134984   5.360   6.754  12.536  2.8242 -0.3272 -1.1419
 4523TIP3    H234985   5.317   6.741  12.681 -1.4805  1.5610 -2.0976
 4524TIP3   OH234986   6.037   0.601  11.246 -0.0067 -0.0980 -0.1390
 4524TIP3    H134987   6.120   0.648  11.233  1.1193 -1.8067  0.4191
 4524TIP3    H234988   5.999   0.594  11.158  0.2164  1.0930 -0.3396
 4525TIP3   OH234989   6.534   4.949  14.124  0.4316  0.6744  0.1125
 4525TIP3    H134990   6.555   4.905  14.042 -2.1026  1.0064 -0.7936
 4525TIP3    H234991   6.601   4.918  14.185  0.7353 -1.7879 -1.3370
 4526TIP3   OH234992   5.025   3.033   3.621 -0.0001 -0.2707  0.1869
 4526TIP3    H134993   5.011   2.939   3.626 -0.3517 -0.3394 -1.4552
 4526TIP3    H234994   5.026   3.052   3.527  2.2738  1.0508  0.4168
 4527TIP3   OH234995   6.037   0.974   1.103  0.8430 -0.0009 -0.2152
 4527TIP3    H134996   6.043   0.971   1.199 -0.1523 -1.9490 -0.1652
 4527TIP3    H234997   6.092   0.901   1.073  1.9223  1.1790 -1.2021
 4528TIP3   OH234998   5.507   0.469  13.370  0.3116  0.9250  0.1254
 4528TIP3    H134999   5.552   0.516  13.300  1.2375 -1.2408 -0.8353
 4528TIP3    H235000   5.513   0.377  13.345 -1.2705  0.2426  1.9752
 4529TIP3   OH235001   0.275   1.528  11.106 -0.3998  0.1368 -0.6300
 4529TIP3    H135002   0.190   1.550  11.067 -0.1417  0.1993 -1.1635
 4529TIP3    H235003   0.319   1.475  11.040 -1.1931 -2.4935  0.8086
 4530TIP3   OH235004   1.224   4.371   4.817  0.0609  0.7983  0.6073
 4530TIP3    H135005   1.230   4.288   4.770 -0.6890  2.0481 -1.8404
 4530TIP3    H235006   1.132   4.380   4.840  0.4271  0.1841  2.4295
 4531TIP3   OH235007   4.764   6.434   6.226  0.3348 -0.2908 -0.3440
 4531TIP3    H135008   4.826   6.379   6.273  2.0604  0.5281 -1.5317
 4531TIP3    H235009   4.716   6.373   6.170  1.7418 -0.7376 -1.1381
 4532TIP3   OH235010   4.608   3.975   3.563  0.1736 -0.5169  0.4476
 4532TIP3    H135011   4.703   3.987   3.561  0.2101 -0.8030 -1.9505
 4532TIP3    H235012   4.595   3.903   3.625  1.4305 -0.0902  1.2709
 4533TIP3   OH235013   2.255   5.208   0.467 -0.4524  0.3234  0.7547
 4533TIP3    H135014   2.235   5.296   0.437  1.3651  1.1070  1.6480
 4533TIP3    H235015   2.199   5.195   0.543 -0.4215  0.9059  0.8844
 4534TIP3   OH235016   5.551   5.185  12.711 -0.1296 -0.1605 -0.0025
 4534TIP3    H135017   5.485   5.250  12.689  0.3787  0.6123  0.7341
 4534TIP3    H235018   5.609   5.184  12.635  1.8709  2.8187  1.3189
 4535TIP3   OH235019   2.623   5.786  13.059 -0.2931 -0.0685 -0.3584
 4535TIP3    H135020   2.577   5.704  13.041 -1.4284  0.6709 -0.9057
 4535TIP3    H235021   2.578   5.852  13.006  0.8699  0.8402 -0.2581
 4536TIP3   OH235022   1.312   3.358  15.848  0.1534 -0.0453 -0.3779
 4536TIP3    H135023   1.279   3.384  15.934  3.1333  1.2127  0.5046
 4536TIP3    H235024   1.316   3.439  15.798 -0.4809 -0.5913 -1.3633
 4537TIP3   OH235025   5.420   4.635   3.976 -0.0415  0.1538  0.1930
 4537TIP3    H135026   5.378   4.625   4.061 -1.0476  0.5795 -0.2434
 4537TIP3    H235027   5.485   4.565   3.973  1.2677  1.2058  2.0452
 4538TIP3   OH235028   4.573   2.350  14.973 -0.0527  0.0196 -0.6356
 4538TIP3    H135029   4.525   2.381  14.896  1.7585  2.2356 -0.9768
 4538TIP3    H235030   4.658   2.324  14.940 -0.1481 -1.6229  0.2926
 4539TIP3   OH235031   5.590   0.463  12.669 -0.0944  0.3166 -0.2040
 4539TIP3    H135032   5.628   0.380  12.699  1.9526  0.4674 -2.1406
 4539TIP3    H235033   5.500   0.441  12.645 -0.1104 -0.9459  0.9486
 4540TIP3   OH235034   1.465   2.004  15.217 -0.4202  0.4835 -0.4265
 4540TIP3    H135035   1.484   1.991  15.310  0.6616  1.2532 -0.5145
 4540TIP3    H235036   1.520   2.078  15.192  3.1328 -2.6021 -2.8292
 4541TIP3   OH235037   5.690   1.417  17.046  0.0908  0.5590  0.0575
 4541TIP3    H135038   5.785   1.429  17.034  0.3234 -0.9425  0.2314
 4541TIP3    H235039   5.683   1.373  17.131 -0.7571  0.4329 -0.0758
 4542TIP3   OH235040   4.211   3.101  16.534  0.5349  0.5260 -0.3813
 4542TIP3    H135041   4.194   3.191  16.504  1.1437  0.8689  0.2964
 4542TIP3    H235042   4.306   3.091  16.528  1.0471  1.4715  3.7620
 4543TIP3   OH235043   3.548   4.954  14.019 -0.0931 -0.3113  0.6232
 4543TIP3    H135044   3.495   4.997  14.086 -0.1680 -0.8035  0.8858
 4543TIP3    H235045   3.548   4.861  14.044 -0.8187 -0.6438 -0.5110
 4544TIP3   OH235046   6.509   4.093  14.727 -0.1601 -0.6424 -0.1258
 4544TIP3    H135047   6.528   4.098  14.821  2.2984 -1.3285 -0.5173
 4544TIP3    H235048   6.534   4.178  14.693  0.6675 -0.9938 -0.4112
 4545TIP3   OH235049   3.425   5.089   3.258 -1.0067 -0.1580  0.6077
 4545TIP3    H135050   3.425   5.066   3.351 -0.6562 -1.3244  0.3361
 4545TIP3    H235051   3.476   5.019   3.216  0.1860  1.1837 -0.2634
 4546TIP3   OH235052   5.251   3.507   1.797 -0.3880 -0.0133  0.1206
 4546TIP3    H135053   5.282   3.450   1.726  1.0738 -0.5934  1.1740
 4546TIP3    H235054   5.192   3.451   1.848  0.0723 -0.2239  0.4377
 4547TIP3   OH235055   3.046   1.642  16.646  0.0399 -0.3278 -0.5453
 4547TIP3    H135056   3.068   1.580  16.577 -0.9630 -1.2336 -0.0807
 4547TIP3    H235057   2.992   1.708  16.603 -0.5510 -0.8689 -0.6575
 4548TIP3   OH235058   3.435   2.388  14.460  0.0396 -0.5764  0.2870
 4548TIP3    H135059   3.502   2.434  14.511 -1.0087 -1.0520  2.1629
 4548TIP3    H235060   3.482   2.356  14.383  1.8137 -0.2520  1.1767
 4549TIP3   OH235061   0.781   1.645   6.638 -0.4401  1.1203  0.5281
 4549TIP3    H135062   0.862   1.624   6.592 -1.6289 -1.2616 -0.7000
 4549TIP3    H235063   0.784   1.593   6.718 -0.9005  0.7282  0.2949
 4550TIP3   OH235064   1.382   0.762  14.754 -0.0019 -0.0522 -0.0153
 4550TIP3    H135065   1.314   0.696  14.763 -1.5450  1.6713  2.4947
 4550TIP3    H235066   1.400   0.789  14.844  0.4270  2.9645 -0.8962
 4551TIP3   OH235067   2.052   0.482  11.210  0.1581  0.0632  0.3245
 4551TIP3    H135068   2.095   0.413  11.160  0.7871 -0.6362  1.7520
 4551TIP3    H235069   2.095   0.563  11.182  0.8784 -0.3757  0.1398
 4552TIP3   OH235070   6.378   2.570   3.190 -0.4046 -0.5101  0.0242
 4552TIP3    H135071   6.308   2.603   3.134 -0.9464 -3.0252 -0.8967
 4552TIP3    H235072   6.338   2.561   3.277 -0.4613  0.4709  0.1050
 4553TIP3   OH235073   6.200   3.793   3.559  0.3334 -0.2689 -0.1611
 4553TIP3    H135074   6.242   3.782   3.474  1.9397  0.1622  0.5379
 4553TIP3    H235075   6.141   3.868   3.547 -0.4104 -0.9996 -1.2113
 4554TIP3   OH235076   1.900   1.164   4.020 -0.4964  0.1130 -0.3477
 4554TIP3    H135077   1.987   1.133   4.045 -1.2420 -1.1567  0.8530
 4554TIP3    H235078   1.868   1.210   4.098 -1.2789 -0.3389 -0.3851
 4555TIP3   OH235079   2.296   5.150  11.752 -0.8017 -0.5795  0.5247
 4555TIP3    H135080   2.343   5.234  11.753  0.0260 -0.9590 -1.2730
 4555TIP3    H235081   2.284   5.131  11.659 -2.6806 -1.5566  0.9205
 4556TIP3   OH235082   1.265   2.725   5.691 -0.0162  0.1737 -0.3726
 4556TIP3    H135083   1.229   2.763   5.772  0.9116  2.9092 -1.1410
 4556TIP3    H235084   1.335   2.667   5.721  0.1530  0.9473  0.8041
 4557TIP3   OH235085   1.882   6.606   6.071  0.1830 -0.5344  0.4080
 4557TIP3    H135086   1.797   6.598   6.116 -0.1623 -0.1237 -0.1477
 4557TIP3    H235087   1.869   6.561   5.988  0.6965 -0.9655  0.5617
 4558TIP3   OH235088   5.496   2.550   1.824 -0.1599 -0.0651 -0.6423
 4558TIP3    H135089   5.433   2.621   1.824 -1.6010 -1.2854 -0.1802
 4558TIP3    H235090   5.520   2.538   1.732  0.6795  1.4702 -0.6473
 4559TIP3   OH235091   4.508   4.368   4.196  0.5421 -0.1261 -0.3309
 4559TIP3    H135092   4.464   4.372   4.111  0.7425  0.4536 -0.4083
 4559TIP3    H235093   4.564   4.446   4.199  1.9340 -1.0716 -0.4326
 4560TIP3   OH235094   3.771   1.960  12.378 -0.1655  0.4530  0.1851
 4560TIP3    H135095   3.800   1.870  12.396  0.1264  0.2862 -0.9844
 4560TIP3    H235096   3.851   2.013  12.387  0.0488  0.3256 -0.8137
 4561TIP3   OH235097   5.467   1.626   0.712  0.0080  0.5886 -0.2520
 4561TIP3    H135098   5.442   1.707   0.757 -0.2949  0.6088 -0.4616
 4561TIP3    H235099   5.547   1.649   0.664 -1.3528  1.4312 -2.2406
 4562TIP3   OH235100   6.359   4.108  13.059  0.1074 -0.3007  0.0323
 4562TIP3    H135101   6.415   4.064  13.123 -0.2609 -0.7792  0.0357
 4562TIP3    H235102   6.276   4.122  13.106  0.0949  0.0382 -0.0965
 4563TIP3   OH235103   5.545   2.168  16.185 -0.0104  0.0535 -0.0232
 4563TIP3    H135104   5.492   2.178  16.264  0.2548  0.3958  0.1161
 4563TIP3    H235105   5.510   2.234  16.125 -0.4437 -0.4461 -0.3209
 4564TIP3   OH235106   6.652   0.655   2.576 -0.0060  0.1020 -0.4492
 4564TIP3    H135107   6.671   0.580   2.519  0.9558  0.8009 -1.0806
 4564TIP3    H235108   6.699   0.635   2.657  1.0415  0.4283 -0.9513
 4565TIP3   OH235109   1.390   1.661   3.432  0.1825  0.2423  0.5514
 4565TIP3    H135110   1.466   1.638   3.485 -0.0288  1.6107  1.5018
 4565TIP3    H235111   1.387   1.594   3.364  1.7934 -0.2640  0.9340
 4566TIP3   OH235112   4.236   1.109   5.747  0.3596  0.0207 -0.5359
 4566TIP3    H135113   4.201   1.147   5.827  0.2639 -0.8208 -0.1628
 4566TIP3    H235114   4.292   1.177   5.710 -1.7454  1.4733 -1.2404
 4567TIP3   OH235115   1.328   2.155  13.374  0.1924  0.7249  0.3781
 4567TIP3    H135116   1.309   2.127  13.284  1.3168  0.5636  0.1856
 4567TIP3    H235117   1.270   2.231  13.388  0.2420  0.9527 -0.5886
 4568TIP3   OH235118   4.051   1.662   0.303 -0.1265  0.1892  0.2573
 4568TIP3    H135119   4.121   1.725   0.320  0.2179  0.0016 -0.4436
 4568TIP3    H235120   3.971   1.713   0.303  0.2023  0.7374 -0.9111
 4569TIP3   OH235121   2.492   6.750   0.804 -0.2182  0.2954  0.2348
 4569TIP3    H135122   2.442   6.700   0.868 -1.4863  0.9183 -0.2473
 4569TIP3    H235123   2.584   6.734   0.827 -0.6461  0.0097  1.8039
 4570TIP3   OH235124   2.308   0.014  13.280  0.1983 -0.0918 -0.1418
 4570TIP3    H135125   2.228  -0.035  13.302 -0.4712  0.0148 -2.1555
 4570TIP3    H235126   2.282   0.106  13.286  0.9042  0.0248  1.6668
 4571TIP3   OH235127   6.603   6.141   3.882 -0.0707  0.7534 -0.1893
 4571TIP3    H135128   6.581   6.049   3.867  1.8594 -0.0771  1.6119
 4571TIP3    H235129   6.526   6.178   3.924 -0.5976 -0.2133 -0.2766
 4572TIP3   OH235130   4.979   6.570   2.982 -0.2962  0.6200  0.3134
 4572TIP3    H135131   4.984   6.509   3.056 -0.3248 -0.0257 -0.2056
 4572TIP3    H235132   5.023   6.649   3.013  1.0347 -0.1629  0.5136
 4573TIP3   OH235133   5.261   2.013  16.678 -0.1893  0.1426 -0.3344
 4573TIP3    H135134   5.321   2.036  16.608  0.2981 -0.6812 -0.1961
 4573TIP3    H235135   5.203   2.089  16.686  1.2126  1.2297 -0.0548
 4574TIP3   OH235136   5.637   0.928  13.867  0.6895 -0.4623 -0.6525
 4574TIP3    H135137   5.559   0.891  13.825  0.3035 -0.0895 -0.2754
 4574TIP3    H235138   5.606   0.959  13.952  1.2137 -0.1571 -0.5672
 4575TIP3   OH235139   0.813   3.135   1.100 -0.1081 -0.5424  0.3995
 4575TIP3    H135140   0.833   3.102   1.188  0.9291  0.1360  0.4433
 4575TIP3    H235141   0.737   3.192   1.113 -0.5147 -1.1429  0.7002
 4576TIP3   OH235142   1.875   5.248  12.608 -0.4301  0.3673  0.1590
 4576TIP3    H135143   1.922   5.324  12.645 -3.6605  2.1473  0.9850
 4576TIP3    H235144   1.868   5.187  12.681  1.8920 -0.7145 -0.4201
 4577TIP3   OH235145   0.705   2.447   0.111  0.0639 -0.9817 -0.0200
 4577TIP3    H135146   0.737   2.524   0.065 -0.6087 -2.8017 -3.9488
 4577TIP3    H235147   0.778   2.385   0.108 -0.8940 -2.1162 -1.2668
 4578TIP3   OH235148   5.128   3.679   5.951 -0.2759 -0.6686 -0.6554
 4578TIP3    H135149   5.125   3.775   5.954  0.5712 -0.6274 -0.6826
 4578TIP3    H235150   5.124   3.657   5.858  1.2807 -0.5569 -0.7791
 4579TIP3   OH235151   2.560   0.316  16.291 -0.0484  0.0359  0.2574
 4579TIP3    H135152   2.623   0.384  16.315  0.4663  0.6469 -2.5220
 4579TIP3    H235153   2.614   0.243  16.259 -0.7131 -0.4302  0.1753
 4580TIP3   OH235154   1.875   0.084   4.151  0.5261 -0.4515 -0.1967
 4580TIP3    H135155   1.851   0.166   4.194  1.2788 -0.5615  0.4602
 4580TIP3    H235156   1.800   0.063   4.095  0.7563  1.2416 -1.2022
 4581TIP3   OH235157   2.397   1.607   2.041 -0.7384  0.0775 -0.0991
 4581TIP3    H135158   2.355   1.653   2.114 -1.9140 -0.3879 -0.4668
 4581TIP3    H235159   2.484   1.585   2.074 -1.5148 -0.8137  1.4479
 4582TIP3   OH235160   1.881   1.296  16.541 -0.1443  1.0907  0.3648
 4582TIP3    H135161   1.837   1.258  16.617 -0.2876  1.2118  0.3422
 4582TIP3    H235162   1.832   1.376  16.522 -1.7956 -0.2629 -1.4894
 4583TIP3   OH235163   3.123   1.254   3.475  0.6727  0.0175  0.0344
 4583TIP3    H135164   3.033   1.283   3.487  0.9162  1.2649 -0.8510
 4583TIP3    H235165   3.173   1.336   3.465  1.7130 -0.6727 -0.6612
 4584TIP3   OH235166   1.069   0.610   0.581 -0.2126  0.1135  0.3600
 4584TIP3    H135167   1.031   0.638   0.498  0.6790 -1.0747 -0.4805
 4584TIP3    H235168   1.148   0.663   0.591 -0.7447  0.8290  0.8728
 4585TIP3   OH235169   6.563   4.757   0.685  0.0293 -0.4036 -0.1257
 4585TIP3    H135170   6.548   4.738   0.592  1.1634  0.5555 -0.5400
 4585TIP3    H235171   6.487   4.722   0.730 -1.2213  0.3287 -1.5779
 4586TIP3   OH235172   0.345   3.644  11.667  0.7117 -0.3574  0.1758
 4586TIP3    H135173   0.359   3.739  11.666 -0.8544 -0.0903  0.3329
 4586TIP3    H235174   0.421   3.608  11.621  3.2600  0.6484  3.2503
 4587TIP3   OH235175   4.411   2.434   4.101  0.1856 -0.3021 -0.2673
 4587TIP3    H135176   4.439   2.381   4.176 -0.7985 -1.3838 -0.6375
 4587TIP3    H235177   4.493   2.455   4.055  0.7287 -0.2111  0.7097
 4588TIP3   OH235178   0.314   3.920  12.936 -0.0391  0.6051 -0.3941
 4588TIP3    H135179   0.405   3.891  12.927 -0.3949 -1.6836  1.9623
 4588TIP3    H235180   0.282   3.929  12.847  1.5088 -2.1687 -1.3415
 4589TIP3   OH235181   5.326   5.111  12.123  0.0996  0.0071 -0.0455
 4589TIP3    H135182   5.388   5.041  12.144  0.9511  0.5355 -0.7024
 4589TIP3    H235183   5.308   5.101  12.030  1.8187  1.8257 -0.6497
 4590TIP3   OH235184   0.897   4.036  16.364  0.0037  0.1998 -0.2069
 4590TIP3    H135185   0.863   4.101  16.302 -1.2436 -0.5450 -0.3330
 4590TIP3    H235186   0.935   3.967  16.308  1.6725  0.9641 -0.0693
 4591TIP3   OH235187   1.640   0.908   6.618 -0.1570  0.5662 -0.2549
 4591TIP3    H135188   1.699   0.861   6.559  0.4006  1.5412 -0.4941
 4591TIP3    H235189   1.672   0.887   6.706  0.2927  0.7355 -0.3714
 4592TIP3   OH235190   4.709   3.379   5.285 -0.0354  0.2048  0.5965
 4592TIP3    H135191   4.752   3.461   5.261 -0.3935 -0.0662 -1.0950
 4592TIP3    H235192   4.655   3.402   5.361  1.1210  1.1351  1.1689
 4593TIP3   OH235193   1.731   0.414  17.042 -0.4975 -0.2166  0.2453
 4593TIP3    H135194   1.765   0.426  16.953 -0.7590 -1.0642  0.0215
 4593TIP3    H235195   1.728   0.319  17.053  0.7451 -0.1308  1.6310
 4594TIP3   OH235196   3.395   3.277  16.600 -0.7396  0.1817 -0.2694
 4594TIP3    H135197   3.355   3.191  16.589 -0.5187  0.1707 -1.0385
 4594TIP3    H235198   3.334   3.337  16.557 -0.3517  0.2629 -0.7184
 4595TIP3   OH235199   4.664   4.806  14.596 -0.1140 -0.6873  0.0719
 4595TIP3    H135200   4.724   4.818  14.670 -0.3778 -0.7099  0.2889
 4595TIP3    H235201   4.709   4.849  14.523  0.4595 -1.2464  0.0796
 4596TIP3   OH235202   5.256   0.487   2.559 -0.1235 -0.0636  0.5772
 4596TIP3    H135203   5.352   0.495   2.565 -0.0889 -0.7481  1.1254
 4596TIP3    H235204   5.237   0.487   2.465  0.4113  0.1323  0.4666
 4597TIP3   OH235205   2.304   3.779  16.512  0.2819 -0.1039 -0.6691
 4597TIP3    H135206   2.332   3.819  16.594 -0.7825 -0.2725 -0.2018
 4597TIP3    H235207   2.376   3.795  16.451  0.4482  1.3586 -0.1292
 4598TIP3   OH235208   2.332   3.736   6.421  0.1858  0.2714 -0.3098
 4598TIP3    H135209   2.283   3.705   6.497  0.9584 -2.0934 -0.6875
 4598TIP3    H235210   2.423   3.737   6.450  0.2425  2.0031 -0.4348
 4599TIP3   OH235211   6.718   0.032   4.144  0.2800 -0.1440  0.0666
 4599TIP3    H135212   6.760   0.011   4.060  1.4853 -1.9922  1.0589
 4599TIP3    H235213   6.789   0.063   4.200  0.0226 -1.4502  1.1767
 4600TIP3   OH235214   0.739   1.470  16.489 -0.3696 -0.0559 -0.3500
 4600TIP3    H135215   0.694   1.468  16.574 -1.8002  0.8132 -1.0375
 4600TIP3    H235216   0.824   1.431  16.506 -1.1242 -1.1473  1.1979
 4601TIP3   OH235217   6.645   6.088   1.254 -0.3520 -0.2168  0.1902
 4601TIP3    H135218   6.622   6.022   1.188 -1.2946  0.6826 -0.3954
 4601TIP3    H235219   6.572   6.150   1.253  0.6251  0.9766  0.5614
 4602TIP3   OH235220   6.257   6.506  12.669  0.3256  0.3929 -0.3403
 4602TIP3    H135221   6.279   6.502  12.576 -0.0331 -0.8548 -0.3905
 4602TIP3    H235222   6.303   6.583  12.701  0.5541  0.7729 -1.5261
 4603TIP3   OH235223   4.781   1.839   6.297  0.4867  0.5605  0.2818
 4603TIP3    H135224   4.786   1.744   6.287 -0.0063  0.2018  2.8620
 4603TIP3    H235225   4.688   1.860   6.290  0.1728  0.3536  2.8381
 4604TIP3   OH235226   3.677   2.201  11.475  0.0776 -0.0198 -0.0151
 4604TIP3    H135227   3.764   2.232  11.498  0.2161  1.1078 -1.8103
 4604TIP3    H235228   3.690   2.110  11.447  0.3001 -0.5422  1.6791
 4605TIP3   OH235229   4.919   0.134   2.094 -0.2681 -0.3292  0.0075
 4605TIP3    H135230   4.826   0.114   2.086 -0.4558  0.5242 -0.1449
 4605TIP3    H235231   4.960   0.051   2.118 -1.3172 -0.3490  2.0139
 4606TIP3   OH235232   5.519   4.788  16.114  0.1745  0.0369  0.1730
 4606TIP3    H135233   5.597   4.825  16.071 -0.6284  1.4740 -0.1331
 4606TIP3    H235234   5.445   4.830  16.068 -0.8068 -1.7124  0.0704
 4607TIP3   OH235235   6.379   1.307   3.605 -0.5333  0.3260  0.1390
 4607TIP3    H135236   6.341   1.296   3.692 -0.4784  2.4540  0.4915
 4607TIP3    H235237   6.428   1.390   3.611  2.2047 -1.0973 -0.9737
 4608TIP3   OH235238   1.121   6.017  14.725  0.0598  0.2098 -0.5701
 4608TIP3    H135239   1.150   5.929  14.750 -0.2183  0.2692 -0.0293
 4608TIP3    H235240   1.128   6.018  14.629 -0.0837 -0.4529 -0.5933
 4609TIP3   OH235241   1.025   6.059  11.277  0.4487  0.4788 -0.6651
 4609TIP3    H135242   1.062   6.144  11.254  0.5854  0.1246 -1.7892
 4609TIP3    H235243   0.938   6.079  11.310  0.9629  1.1637  0.3446
 4610TIP3   OH235244   3.095   4.952  15.956 -0.0104  0.7343  0.0618
 4610TIP3    H135245   3.000   4.945  15.966  0.0731 -0.5164  0.1061
 4610TIP3    H235246   3.125   4.984  16.041 -0.1814 -1.1536  0.8659
 4611TIP3   OH235247   3.504   5.116  14.626 -0.2942  0.0591  0.1789
 4611TIP3    H135248   3.488   5.049  14.560  0.4516 -1.3725  1.3716
 4611TIP3    H235249   3.593   5.097  14.658 -1.3851 -0.6914  3.0542
 4612TIP3   OH235250   3.839   6.488   3.972 -0.0906 -0.3009  0.8216
 4612TIP3    H135251   3.836   6.549   4.046  1.5834 -0.0702  0.7492
 4612TIP3    H235252   3.844   6.401   4.014  2.0159 -0.1198  1.0781
 4613TIP3   OH235253   1.592   0.343   3.364  0.0651  0.1120  0.5434
 4613TIP3    H135254   1.568   0.252   3.348  0.4798 -0.1815  1.4980
 4613TIP3    H235255   1.522   0.394   3.323 -0.2607 -0.6331  0.1504
 4614TIP3   OH235256   4.571   4.979  13.444  0.2281  0.5483 -0.0910
 4614TIP3    H135257   4.582   4.894  13.400 -1.0316  0.8471 -1.0412
 4614TIP3    H235258   4.538   4.957  13.531  1.1041  0.0186  0.1184
 4615TIP3   OH235259   6.079   2.855   5.859  0.1359  0.7612  0.0537
 4615TIP3    H135260   6.050   2.942   5.835 -1.1965 -0.1660 -1.9485
 4615TIP3    H235261   6.019   2.828   5.928  0.4897  1.3697  0.6089
 4616TIP3   OH235262   1.920   5.366  17.188 -0.5448 -0.3049 -0.0926
 4616TIP3    H135263   1.985   5.435  17.174  0.2764 -1.2547 -1.3138
 4616TIP3    H235264   1.836   5.410  17.185 -0.0268  0.6767 -0.6332
 4617TIP3   OH235265   6.625   5.396   5.609  0.1765  0.2343 -0.1716
 4617TIP3    H135266   6.531   5.398   5.595  0.2069  0.0706 -0.4005
 4617TIP3    H235267   6.639   5.321   5.666  0.1414  0.4194  0.0858
 4618TIP3   OH235268   0.771   3.393   2.437 -0.2503 -0.0227  0.7216
 4618TIP3    H135269   0.838   3.445   2.481  0.8891  0.4102 -1.3909
 4618TIP3    H235270   0.704   3.457   2.412  0.3320  0.1846 -0.3689
 4619TIP3   OH235271   5.709   2.540  11.956  0.2264  0.5605  0.2764
 4619TIP3    H135272   5.640   2.603  11.975  0.6729  0.9956  0.4627
 4619TIP3    H235273   5.700   2.473  12.024 -0.1268  0.5145  0.1884
 4620TIP3   OH235274   3.569   3.169  15.544 -0.5926  0.1457 -0.2097
 4620TIP3    H135275   3.626   3.143  15.472 -1.5499  0.3823 -1.0826
 4620TIP3    H235276   3.627   3.177  15.620  0.1555 -1.8684 -0.5192
 4621TIP3   OH235277   2.101   1.861   2.887  0.0425  0.2580  0.4536
 4621TIP3    H135278   2.188   1.826   2.910 -0.0315 -0.0544  0.2667
 4621TIP3    H235279   2.101   1.949   2.923  0.2937  0.1217  0.8030
 4622TIP3   OH235280   0.140   4.155  14.127  0.2746 -0.0723 -0.1353
 4622TIP3    H135281   0.233   4.138  14.108  0.3212 -1.3885  1.1128
 4622TIP3    H235282   0.098   4.158  14.041  1.2532 -0.8327 -0.6606
 4623TIP3   OH235283   2.531   1.558   1.082  0.2870  0.4745 -0.0663
 4623TIP3    H135284   2.439   1.585   1.076  0.4445  0.9675 -0.3156
 4623TIP3    H235285   2.537   1.510   1.165 -0.0928  0.8482  0.1785
 4624TIP3   OH235286   6.306   5.918   5.886 -0.0500 -0.3085  0.2300
 4624TIP3    H135287   6.338   5.963   5.964  1.2434  2.4683 -1.7262
 4624TIP3    H235288   6.384   5.874   5.851 -0.6998 -1.8387  0.6344
 4625TIP3   OH235289   0.837   0.607  14.966  0.4107  0.2513  0.0779
 4625TIP3    H135290   0.799   0.612  14.878 -1.1585  0.3194  0.7330
 4625TIP3    H235291   0.897   0.682  14.970 -0.0934  0.7103 -0.6674
 4626TIP3   OH235292   3.428   3.129   1.615 -0.3328 -0.1363  0.0624
 4626TIP3    H135293   3.433   3.094   1.526 -0.3571  0.0175 -0.0006
 4626TIP3    H235294   3.359   3.079   1.658  1.5992 -2.2414  0.9109
 4627TIP3   OH235295   5.631   5.526   5.647  0.2009 -0.2830 -0.1794
 4627TIP3    H135296   5.576   5.602   5.666  1.8610  0.9840 -0.1256
 4627TIP3    H235297   5.571   5.461   5.610 -1.5466  0.4455  1.2317
 4628TIP3   OH235298   1.204   5.938   1.306  0.6844 -0.1151  0.1494
 4628TIP3    H135299   1.271   5.873   1.326 -0.6847 -1.7677 -0.3524
 4628TIP3    H235300   1.134   5.888   1.263 -0.1382  1.8152 -0.8980
 4629TIP3   OH235301   5.698   0.066  16.144 -0.2375 -0.9244 -0.1690
 4629TIP3    H135302   5.789   0.070  16.114 -0.6684 -1.2814 -1.5438
 4629TIP3    H235303   5.705   0.039  16.236  1.0351 -1.1891 -0.3256
 4630TIP3   OH235304   2.563   3.610  14.883  0.1587 -0.0163  0.4900
 4630TIP3    H135305   2.527   3.530  14.844  0.9375 -0.9795  1.6806
 4630TIP3    H235306   2.551   3.676  14.815 -1.3665 -0.9034 -0.1802
 4631TIP3   OH235307   2.569   5.283   0.924  0.1571  0.0992  0.5660
 4631TIP3    H135308   2.575   5.271   1.018  0.6544 -0.2406  0.4904
 4631TIP3    H235309   2.658   5.269   0.891 -0.0188  0.1712  0.0417
 4632TIP3   OH235310   1.386   2.501   0.491  0.5118 -0.2385 -0.0162
 4632TIP3    H135311   1.458   2.438   0.485 -0.9609 -2.3865  2.5196
 4632TIP3    H235312   1.370   2.511   0.585 -0.1073  3.1454 -0.3274
 4633TIP3   OH235313   0.799   5.057   5.126  0.5210 -0.1384  0.1491
 4633TIP3    H135314   0.877   5.080   5.077  0.9078 -0.5880  0.5365
 4633TIP3    H235315   0.729   5.054   5.061  0.6678  1.0174 -0.0754
 4634TIP3   OH235316   6.155   5.978   4.587  0.1506  0.0506  0.1385
 4634TIP3    H135317   6.093   5.911   4.559 -0.2797 -0.9318  3.0253
 4634TIP3    H235318   6.105   6.059   4.588 -0.4943 -0.3446  0.4032
 4635TIP3   OH235319   5.813   1.117   0.268 -0.0751 -0.1823  0.5596
 4635TIP3    H135320   5.749   1.175   0.308  0.3053  1.6933 -1.3877
 4635TIP3    H235321   5.763   1.037   0.248 -1.3846  0.5896  0.6136
 4636TIP3   OH235322   3.703   3.514   3.710  0.0002  0.9546  0.3792
 4636TIP3    H135323   3.798   3.520   3.698  0.0247 -1.8183 -1.7879
 4636TIP3    H235324   3.670   3.602   3.689  1.8743  1.2313 -1.7766
 4637TIP3   OH235325   5.726   3.667  17.052 -0.8246  0.0818  0.1180
 4637TIP3    H135326   5.694   3.692  17.139 -0.5732  0.3302  0.1436
 4637TIP3    H235327   5.810   3.625  17.069 -0.4321  0.7808 -0.0545
 4638TIP3   OH235328   2.903   6.224  13.674  0.1140 -0.2747  0.4242
 4638TIP3    H135329   2.998   6.213  13.686  0.0762  0.1545  1.2181
 4638TIP3    H235330   2.894   6.311  13.635  0.0415 -0.2509  0.4934
 4639TIP3   OH235331   2.048   0.315  14.325  0.0476  0.0466 -0.3310
 4639TIP3    H135332   2.011   0.300  14.238  0.5761  2.4307 -1.0301
 4639TIP3    H235333   1.987   0.377  14.366  0.7377  0.2978  0.3311
 4640TIP3   OH235334   2.452   0.828   3.255 -0.6968  0.0781 -0.5731
 4640TIP3    H135335   2.422   0.919   3.248 -0.4171  0.2900  0.6798
 4640TIP3    H235336   2.372   0.776   3.254 -1.1952  0.6085  2.3309
 4641TIP3   OH235337   3.198   5.999   5.357 -0.1539  0.0260  0.3513
 4641TIP3    H135338   3.257   5.924   5.362 -1.0167 -0.6168  1.3575
 4641TIP3    H235339   3.159   6.005   5.444 -0.3883  1.4201  0.1788
 4642TIP3   OH235340   3.188   0.509   1.140 -0.3396 -0.1083 -0.4699
 4642TIP3    H135341   3.151   0.442   1.083 -0.0581  0.5634 -1.4720
 4642TIP3    H235342   3.274   0.474   1.164 -0.7543 -0.7250  0.1615
 4643TIP3   OH235343   2.972   2.923  14.705  0.2610 -0.5117 -0.3071
 4643TIP3    H135344   2.878   2.909  14.691  0.2044 -0.7317  0.2739
 4643TIP3    H235345   3.008   2.835  14.713  0.7165 -0.4818 -1.7249
 4644TIP3   OH235346   5.579   0.005   4.084  0.8289 -0.2132  0.9890
 4644TIP3    H135347   5.627  -0.003   4.002  1.4722 -0.2201  1.3600
 4644TIP3    H235348   5.638   0.052   4.143  0.3169 -0.0743  1.4043
 4645TIP3   OH235349   4.684   4.447   4.427  0.3213  0.1115 -0.1579
 4645TIP3    H135350   4.595   4.481   4.438  0.5008  0.1728  1.2597
 4645TIP3    H235351   4.717   4.437   4.516  1.6269 -0.2260 -0.6609
 4646TIP3   OH235352   5.153   1.266  10.679 -0.2569 -0.3903 -0.0916
 4646TIP3    H135353   5.196   1.351  10.687  2.6072 -1.7688  0.3585
 4646TIP3    H235354   5.081   1.269  10.742 -0.7265  1.9124 -0.6426
 4647TIP3   OH235355   4.004   0.281  16.811  0.0024 -0.6433 -0.7873
 4647TIP3    H135356   4.015   0.186  16.816  0.2797 -0.5716  0.2450
 4647TIP3    H235357   4.026   0.312  16.899  0.8492  0.4753 -1.3621
 4648TIP3   OH235358   4.862   0.237   1.017 -0.0722  0.5187 -0.6346
 4648TIP3    H135359   4.775   0.201   0.996  0.4522  0.8386 -3.8228
 4648TIP3    H235360   4.922   0.163   1.006  0.3679  0.9743 -1.3437
 4649TIP3   OH235361   6.281   4.591   2.837 -0.3101 -0.1918  0.1053
 4649TIP3    H135362   6.246   4.609   2.925  0.8442 -0.2256  0.5880
 4649TIP3    H235363   6.376   4.598   2.847 -0.1398 -0.6520 -1.0441
 4650TIP3   OH235364   5.195   2.437  12.765  0.8489 -0.5005 -0.2173
 4650TIP3    H135365   5.123   2.398  12.816  1.1360  1.1200  1.5134
 4650TIP3    H235366   5.196   2.386  12.684 -0.0001 -2.8356  1.1365
 4651TIP3   OH235367   4.147   4.841  16.832 -0.0856  0.3180 -0.7271
 4651TIP3    H135368   4.225   4.808  16.786  0.7776 -0.1254  0.9820
 4651TIP3    H235369   4.111   4.764  16.876  0.7207  1.1849  1.5728
 4652TIP3   OH235370   1.112   0.639  11.915  0.3455 -0.7757  0.1106
 4652TIP3    H135371   1.126   0.707  11.980  1.5217 -1.0447  0.1654
 4652TIP3    H235372   1.198   0.599  11.903 -0.1423 -1.6733 -0.5620
 4653TIP3   OH235373   1.623   0.435   5.012  0.0152  0.0065 -0.3311
 4653TIP3    H135374   1.586   0.496   5.075  1.4299  0.6271 -0.0564
 4653TIP3    H235375   1.623   0.483   4.929  0.6549  0.2136 -0.2203
 4654TIP3   OH235376   2.675   0.427   0.590 -0.2019 -0.2338  0.1267
 4654TIP3    H135377   2.648   0.511   0.626  0.4786 -0.2075  0.6064
 4654TIP3    H235378   2.682   0.442   0.495 -0.5115  0.1249  0.1607
 4655TIP3   OH235379   2.189   0.748   4.369 -0.4625  0.4484 -0.0943
 4655TIP3    H135380   2.270   0.698   4.379 -0.4347  0.2559 -1.1332
 4655TIP3    H235381   2.216   0.839   4.375 -0.2885  0.3751  0.3108
 4656TIP3   OH235382   2.313   4.355   3.608  0.2256  0.1792 -0.0967
 4656TIP3    H135383   2.234   4.391   3.649  0.3313 -1.2880  1.5069
 4656TIP3    H235384   2.281   4.291   3.545  0.1227 -0.5603  0.6977
 4657TIP3   OH235385   1.606   1.921  13.198  0.0487 -0.4511 -0.8352
 4657TIP3    H135386   1.525   1.964  13.170  0.2135  0.1507 -0.4178
 4657TIP3    H235387   1.578   1.856  13.262  0.1124  2.1753  2.1352
 4658TIP3   OH235388   4.687   2.876  13.408  0.2989  0.6148 -0.1058
 4658TIP3    H135389   4.748   2.868  13.334 -0.7339 -0.9870 -0.8320
 4658TIP3    H235390   4.677   2.786  13.440 -0.8075  1.0180  0.7100
 4659TIP3   OH235391   3.880   1.217  15.088 -0.4103 -0.1634  0.0515
 4659TIP3    H135392   3.940   1.144  15.075  1.3486  1.6302 -3.4731
 4659TIP3    H235393   3.933   1.284  15.130 -1.5098 -0.2535  1.6604
 4660TIP3   OH235394   1.872   6.632   2.309  0.1007  0.2886  0.2656
 4660TIP3    H135395   1.865   6.617   2.215 -0.2930 -1.0608  0.4936
 4660TIP3    H235396   1.966   6.640   2.325  0.3181 -1.4444  0.0172
 4661TIP3   OH235397   0.745   5.141   1.018  0.2171 -0.2853 -0.0304
 4661TIP3    H135398   0.813   5.207   1.006 -1.4420  1.3341 -1.1559
 4661TIP3    H235399   0.710   5.158   1.106 -0.6943  0.8840 -0.5905
 4662TIP3   OH235400   0.587   2.149  16.986 -0.6901  0.1166  0.1828
 4662TIP3    H135401   0.677   2.180  16.999  0.5604 -1.7923 -2.9066
 4662TIP3    H235402   0.535   2.229  16.987  1.4399  1.6302 -0.5620
 4663TIP3   OH235403   3.337   1.432   0.603 -0.7919  0.0853  0.2570
 4663TIP3    H135404   3.357   1.390   0.687  0.3122 -0.9616 -0.4920
 4663TIP3    H235405   3.349   1.526   0.620 -1.3715 -0.0383  1.4662
 4664TIP3   OH235406   0.929   0.092  17.183 -0.3574 -0.0264 -0.1130
 4664TIP3    H135407   0.898   0.046  17.261 -0.8749 -1.6528 -1.2133
 4664TIP3    H235408   0.850   0.133  17.147  0.1446  2.0516  1.0037
 4665TIP3   OH235409   5.208   3.921   0.239 -0.4843  0.8024 -0.0164
 4665TIP3    H135410   5.148   3.984   0.199 -1.7596 -2.4477 -3.8646
 4665TIP3    H235411   5.154   3.871   0.301 -1.0129 -0.1449 -1.2167
 4666TIP3   OH235412   3.240   3.361  14.023 -0.1189  0.3695 -0.0575
 4666TIP3    H135413   3.283   3.296  14.078  1.9505  0.6665 -1.1858
 4666TIP3    H235414   3.217   3.432  14.083  1.3138  0.3275  0.5808
 4667TIP3   OH235415   1.554   4.204  15.932 -0.3016  0.0874  0.3325
 4667TIP3    H135416   1.556   4.128  15.874  3.1562 -0.1738  0.6069
 4667TIP3    H235417   1.505   4.270  15.883 -2.2913 -1.8518 -0.4336
 4668TIP3   OH235418   5.343   5.593   3.362 -0.0220  0.1924  0.1514
 4668TIP3    H135419   5.416   5.614   3.303  1.5980 -1.8053  1.3190
 4668TIP3    H235420   5.336   5.498   3.359 -2.2528  0.2816  0.5438
 4669TIP3   OH235421   1.689   5.370   1.840  0.3825 -0.4411  0.2483
 4669TIP3    H135422   1.722   5.459   1.833 -0.4032 -0.1994 -0.6196
 4669TIP3    H235423   1.599   5.380   1.872  0.6223 -0.9903  1.1306
 4670TIP3   OH235424   2.862   0.958   1.005  0.5447  0.6107 -0.3518
 4670TIP3    H135425   2.867   1.053   0.997  0.0154  0.7940  1.1021
 4670TIP3    H235426   2.847   0.926   0.916  2.1875  1.7621 -1.0858
 4671TIP3   OH235427   0.173   1.785  12.391  0.0912 -0.6152  0.9563
 4671TIP3    H135428   0.100   1.777  12.330  0.7398  2.8585 -0.4999
 4671TIP3    H235429   0.241   1.729  12.355 -0.1698  0.0087 -0.5831
 4672TIP3   OH235430   5.760   0.264  17.206  0.9036 -0.2480 -0.0544
 4672TIP3    H135431   5.820   0.292  17.137 -1.9058  4.7358 -1.0026
 4672TIP3    H235432   5.709   0.193  17.168  0.5588  1.2380 -2.5676
 4673TIP3   OH235433   0.413   0.858  11.527 -0.2122 -0.2505 -0.1656
 4673TIP3    H135434   0.465   0.934  11.502 -0.8665  0.4689  0.5910
 4673TIP3    H235435   0.471   0.806  11.581 -0.3561  0.7346  0.9888
 4674TIP3   OH235436   2.547   4.255   5.704  0.7103 -0.3496 -0.3622
 4674TIP3    H135437   2.574   4.284   5.791 -1.8726 -2.1458  1.1706
 4674TIP3    H235438   2.561   4.160   5.705 -1.3524 -0.7142 -1.0274
 4675TIP3   OH235439   0.149   6.701   3.295 -0.0140 -0.0334  0.7087
 4675TIP3    H135440   0.151   6.641   3.220  0.1284  0.1021  0.6049
 4675TIP3    H235441   0.235   6.742   3.295  0.2631 -0.6005  1.4067
 4676TIP3   OH235442   3.674   2.747  16.173 -0.1005 -0.4836  0.0977
 4676TIP3    H135443   3.739   2.815  16.157 -0.6304 -0.0167 -0.0721
 4676TIP3    H235444   3.593   2.781  16.136 -0.6799 -0.6265  1.2091
 4677TIP3   OH235445   0.322   4.189   3.024  0.2312 -0.4092  0.0384
 4677TIP3    H135446   0.310   4.159   2.934  0.7116  2.0195 -0.9294
 4677TIP3    H235447   0.236   4.222   3.050  0.4618  0.3395 -0.1323
 4678TIP3   OH235448   4.838   2.149  12.041 -0.6179 -0.1047  0.9489
 4678TIP3    H135449   4.879   2.103  12.114 -0.8050 -0.8990  0.5637
 4678TIP3    H235450   4.906   2.155  11.974 -1.0713 -1.3551  0.3405
 4679TIP3   OH235451   3.445   0.851  16.042  0.7304  0.2029 -0.7869
 4679TIP3    H135452   3.353   0.837  16.063  0.4120  0.4807 -1.9193
 4679TIP3    H235453   3.446   0.932  15.991  1.9083  1.4780  1.1605
 4680TIP3   OH235454   4.255   3.732   3.452  0.3523 -0.8410 -0.6437
 4680TIP3    H135455   4.299   3.670   3.394  1.4563 -0.0849 -0.6480
 4680TIP3    H235456   4.163   3.706   3.450  0.7078 -2.1694 -1.0244
 4681TIP3   OH235457   3.375   4.086  14.670  0.2227 -0.0831  0.3970
 4681TIP3    H135458   3.421   4.099  14.587 -0.3606  1.2827  0.2606
 4681TIP3    H235459   3.427   4.135  14.734  0.2800 -0.5419  0.7060
 4682TIP3   OH235460   0.347   2.207  11.325  0.2915  0.3072  0.8797
 4682TIP3    H135461   0.358   2.251  11.240  0.0755 -0.2930  0.5334
 4682TIP3    H235462   0.385   2.268  11.388 -0.1255  1.0568  0.4326
 4683TIP3   OH235463   1.327   5.177  14.479  0.3733  0.5093  0.7220
 4683TIP3    H135464   1.272   5.180  14.400 -1.1206  1.4389  1.7495
 4683TIP3    H235465   1.398   5.118  14.455 -0.6001 -0.0744 -0.9722
 4684TIP3   OH235466   4.417   0.184   1.896  0.0229  0.8325  0.2356
 4684TIP3    H135467   4.364   0.136   1.833 -1.9627  1.1509  1.5584
 4684TIP3    H235468   4.437   0.267   1.853 -0.8888  0.8557 -0.1572
 4685TIP3   OH235469   3.737   1.920   5.154 -0.2479  0.0499 -0.1816
 4685TIP3    H135470   3.661   1.974   5.132 -0.1557  0.5164  0.5949
 4685TIP3    H235471   3.749   1.933   5.248  1.2108  0.5194 -0.4058
 4686TIP3   OH235472   1.373   1.373  13.766  0.5142 -0.1695  0.3344
 4686TIP3    H135473   1.366   1.394  13.859 -1.2880  0.9945 -0.0054
 4686TIP3    H235474   1.435   1.300  13.762  1.3144  0.3390  2.3384
 4687TIP3   OH235475   0.217   2.261  15.052  0.0492 -0.3626  0.0951
 4687TIP3    H135476   0.164   2.311  15.114 -1.0407  0.3836 -1.3766
 4687TIP3    H235477   0.298   2.311  15.044  0.2249 -0.4957  0.9295
 4688TIP3   OH235478   0.397   6.341  13.478  0.4967 -0.1873 -0.3765
 4688TIP3    H135479   0.381   6.371  13.567  0.5205 -0.0686 -0.4116
 4688TIP3    H235480   0.311   6.321  13.443  0.5605 -1.1865  0.0057
 4689TIP3   OH235481   6.071   1.658   3.633  0.7507 -0.1151 -0.1162
 4689TIP3    H135482   6.162   1.672   3.660  0.8336 -0.2141 -0.3398
 4689TIP3    H235483   6.072   1.571   3.591  0.7106  0.2157 -0.8107
 4690TIP3   OH235484   0.055   0.046   1.750 -0.1926  0.0195 -0.0020
 4690TIP3    H135485   0.109   0.106   1.698 -0.4846  0.5153  0.2618
 4690TIP3    H235486  -0.015   0.019   1.690 -0.1702  0.0970 -0.0633
 4691TIP3   OH235487   5.117   4.866   0.670 -0.6654 -0.4537 -0.0138
 4691TIP3    H135488   5.075   4.816   0.600  1.0157 -0.0538 -1.3938
 4691TIP3    H235489   5.192   4.907   0.627 -1.4903  2.6147  1.2516
 4692TIP3   OH235490   6.324   1.175  12.046  0.6330  0.0604  0.0731
 4692TIP3    H135491   6.385   1.126  12.101  0.6467  0.0755  0.0719
 4692TIP3    H235492   6.377   1.246  12.009  1.0320 -0.8522 -1.2126
 4693TIP3   OH235493   5.643   2.849   4.363  0.2571  0.1592  0.2691
 4693TIP3    H135494   5.577   2.812   4.303 -2.1688  0.4279  2.5902
 4693TIP3    H235495   5.688   2.773   4.399  0.0179 -0.1236 -0.0222
 4694TIP3   OH235496   3.639   0.509   5.784 -0.4018 -0.2522  0.0788
 4694TIP3    H135497   3.723   0.545   5.812 -1.0955  0.0461  1.9909
 4694TIP3    H235498   3.593   0.583   5.744 -0.6308  0.2382  1.1936
 4695TIP3   OH235499   3.749   1.149   2.627  0.2325  0.4461  0.3322
 4695TIP3    H135500   3.844   1.138   2.621  0.9089  4.1329  1.4951
 4695TIP3    H235501   3.728   1.131   2.718 -0.3133 -0.8577 -0.0357
 4696TIP3   OH235502   2.490   4.887  11.005  0.4907  0.2678  0.1901
 4696TIP3    H135503   2.549   4.909  10.933 -1.6837  2.0306 -1.1712
 4696TIP3    H235504   2.484   4.966  11.058 -1.9389  0.7636 -0.7071
 4697TIP3   OH235505   4.683   2.829  16.006  0.2324 -0.1688 -0.8861
 4697TIP3    H135506   4.589   2.844  16.019  0.4777  0.6908 -0.0243
 4697TIP3    H235507   4.726   2.894  16.061  1.3509 -1.9328  0.4515
 4698TIP3   OH235508   6.203   0.118   2.993  0.1513  0.9272 -0.1567
 4698TIP3    H135509   6.250   0.198   3.017 -1.7543  1.6808  1.2525
 4698TIP3    H235510   6.118   0.148   2.962  0.1063 -0.4814 -1.5362
 4699TIP3   OH235511   0.365   1.659  17.281 -0.0385  0.0621 -0.5260
 4699TIP3    H135512   0.288   1.715  17.273 -0.7702 -0.8452 -0.0069
 4699TIP3    H235513   0.388   1.663  17.374 -0.5239 -1.0348 -0.3478
 4700TIP3   OH235514   6.287   0.157   4.093 -0.3844  0.4104  0.2147
 4700TIP3    H135515   6.196   0.182   4.077 -0.8098 -0.9833  0.2786
 4700TIP3    H235516   6.338   0.236   4.075 -1.8585  2.3826  3.6210
 4701TIP3   OH235517   0.551   1.904   3.048 -0.0609 -0.0819 -0.3169
 4701TIP3    H135518   0.591   1.923   2.963 -0.7756  0.4911 -0.5398
 4701TIP3    H235519   0.539   1.809   3.048  2.1008 -0.4028  0.1414
 4702TIP3   OH235520   3.208   5.674  16.634 -0.1772  0.1845  0.2766
 4702TIP3    H135521   3.179   5.632  16.553 -3.8053  2.0757  0.4191
 4702TIP3    H235522   3.213   5.603  16.697 -0.7953 -0.8068 -0.7516
 4703TIP3   OH235523   3.850   3.497  17.028 -0.8952  0.4334  0.5194
 4703TIP3    H135524   3.778   3.442  17.059 -1.2318  0.3482 -0.3885
 4703TIP3    H235525   3.848   3.489  16.933  2.5894 -2.5130  0.4680
 4704TIP3   OH235526   2.286   1.310   3.001  0.9971 -0.0979 -0.5123
 4704TIP3    H135527   2.274   1.250   2.928  0.2853 -0.2045 -0.3144
 4704TIP3    H235528   2.247   1.393   2.971  1.5921  0.1448 -0.6246
 4705TIP3   OH235529   6.339   0.896   0.163  0.1327 -0.0846 -1.3156
 4705TIP3    H135530   6.275   0.964   0.186  0.1951 -0.1015 -1.0868
 4705TIP3    H235531   6.411   0.910   0.225  0.2870 -0.1548 -1.4813
 4706TIP3   OH235532   0.882   1.062  13.738 -0.2402 -0.5249 -0.2537
 4706TIP3    H135533   0.833   1.131  13.782 -1.0230 -1.3549  0.2133
 4706TIP3    H235534   0.965   1.103  13.713 -1.3662  1.0819 -1.5654
 4707TIP3   OH235535   1.384   1.117   5.970 -0.0409  0.0263  0.1444
 4707TIP3    H135536   1.354   1.116   6.061  2.3471  6.1437  1.4940
 4707TIP3    H235537   1.306   1.139   5.919 -0.5998  1.2563  1.4733
 4708TIP3   OH235538   3.551   3.833  13.123  0.0781 -0.7077 -0.6040
 4708TIP3    H135539   3.532   3.755  13.071 -0.7431 -1.2235  0.4398
 4708TIP3    H235540   3.473   3.888  13.115  0.5683 -0.0648 -1.1579
 4709TIP3   OH235541   0.171   3.373  13.018  0.2313  0.6997 -0.4384
 4709TIP3    H135542   0.169   3.440  13.086  2.2444  1.9567 -1.4987
 4709TIP3    H235543   0.086   3.378  12.976 -0.2301  1.4500  0.5527
 4710TIP3   OH235544   0.221   3.106   3.332 -0.3429  0.0377 -0.4509
 4710TIP3    H135545   0.216   3.180   3.392 -1.1753  0.9471 -1.5914
 4710TIP3    H235546   0.315   3.094   3.317  0.0700 -1.6674  2.6846
 4711TIP3   OH235547   0.896   1.552   0.360 -0.0609 -0.7417 -0.1442
 4711TIP3    H135548   0.843   1.500   0.301 -2.2868 -1.1559  2.0734
 4711TIP3    H235549   0.842   1.564   0.438  0.8629  3.6583  0.1023
 4712TIP3   OH235550   0.646   2.809   0.931  0.2540 -0.0631  0.3549
 4712TIP3    H135551   0.584   2.869   0.890 -3.8815 -4.2923 -0.4532
 4712TIP3    H235552   0.690   2.767   0.857 -1.8843 -2.5304  0.3191
 4713TIP3   OH235553   2.172   1.423   1.780  0.1962  0.4327 -0.4233
 4713TIP3    H135554   2.085   1.384   1.767  0.1001  0.7040 -0.6114
 4713TIP3    H235555   2.216   1.365   1.841 -0.0846  0.2383 -0.4060
 4714TIP3   OH235556   0.896   1.680  15.383 -0.7208 -0.1615  0.4993
 4714TIP3    H135557   0.888   1.640  15.297 -2.1188  0.1477  0.4575
 4714TIP3    H235558   0.898   1.605  15.444  0.3613 -0.3815  0.2130
 4715TIP3   OH235559   6.058   0.480  14.666  0.0068  0.0418  0.2020
 4715TIP3    H135560   6.100   0.420  14.604 -0.2104  0.6241 -0.5271
 4715TIP3    H235561   5.966   0.483  14.639 -0.1925 -0.0706  0.8562
 4716TIP3   OH235562   4.251   5.915  15.438 -0.1620 -0.0729 -0.4802
 4716TIP3    H135563   4.260   5.961  15.355 -0.1941  1.5079  0.3465
 4716TIP3    H235564   4.334   5.868  15.449  0.7471  1.4649 -0.4090
 4717TIP3   OH235565   5.489   2.024   2.078 -0.0076  0.0949 -0.3574
 4717TIP3    H135566   5.423   2.080   2.117  1.4139  1.0684  0.7295
 4717TIP3    H235567   5.501   1.953   2.141  0.9462  0.6628  0.1227
 4718TIP3   OH235568   4.471   5.651   5.073 -0.2918  0.1483  0.1962
 4718TIP3    H135569   4.393   5.633   5.021  0.3193  1.3639 -1.2170
 4718TIP3    H235570   4.495   5.566   5.109 -3.0548 -0.0437  1.8942
 4719TIP3   OH235571   2.298   1.135   1.248 -0.0164 -0.3833 -0.0317
 4719TIP3    H135572   2.325   1.137   1.157 -0.2227 -1.3793 -0.1247
 4719TIP3    H235573   2.230   1.202   1.255  2.2319  2.0179  0.1594
 4720TIP3   OH235574   3.957   5.344   2.137  0.0260 -0.5048 -0.2164
 4720TIP3    H135575   4.001   5.259   2.146 -2.0912 -1.7571 -1.0614
 4720TIP3    H235576   3.864   5.323   2.138 -0.5468  1.7350 -1.2560
 4721TIP3   OH235577   2.162   0.395   1.678 -0.1719  0.4322 -0.0587
 4721TIP3    H135578   2.249   0.409   1.640  0.3838  0.3615  1.1540
 4721TIP3    H235579   2.131   0.482   1.700 -1.3870  0.7071 -2.4714
 4722TIP3   OH235580   5.406   4.253   1.677  0.0031 -0.0242  0.3223
 4722TIP3    H135581   5.365   4.235   1.761 -2.7897 -0.9527 -1.1158
 4722TIP3    H235582   5.361   4.331   1.645  3.0856  2.1659  0.8527
 4723TIP3   OH235583   5.128   0.572  12.357 -0.0142  0.1122 -0.2033
 4723TIP3    H135584   5.214   0.613  12.350 -0.2467  0.7860  0.7522
 4723TIP3    H235585   5.091   0.578  12.269  1.3532 -1.1973 -0.9077
 4724TIP3   OH235586   0.471   0.591  11.166 -0.4619 -0.2315 -0.0640
 4724TIP3    H135587   0.419   0.611  11.243 -1.2277  1.7931 -1.0074
 4724TIP3    H235588   0.457   0.498  11.150 -1.0756 -0.4589  1.6418
 4725TIP3   OH235589   5.238   0.097   2.244  0.1150  0.3414  0.0060
 4725TIP3    H135590   5.275   0.010   2.257 -1.2836 -0.1193  1.2420
 4725TIP3    H235591   5.218   0.128   2.333 -2.9444  0.2818 -0.5510
 4726TIP3   OH235592   4.868   0.849   3.925 -0.4175  0.3644 -0.4972
 4726TIP3    H135593   4.924   0.799   3.985 -0.7579  2.0007  1.2917
 4726TIP3    H235594   4.920   0.928   3.904 -1.4596  1.2284  0.0707
 4727TIP3   OH235595   2.003   2.013  12.697 -0.0669  0.2356  0.4392
 4727TIP3    H135596   1.948   1.973  12.764  0.3605 -0.4610  0.3780
 4727TIP3    H235597   1.944   2.029  12.624 -0.7148  1.7020  1.2352
 4728TIP3   OH235598   1.807   4.784   1.909  0.1412  0.0290 -0.3144
 4728TIP3    H135599   1.741   4.790   1.840  1.3599  3.5142 -1.3838
 4728TIP3    H235600   1.769   4.832   1.983  1.0251  1.2340 -0.6088
 4729TIP3   OH235601   1.180   3.791   4.350 -0.1035  0.3310  0.0434
 4729TIP3    H135602   1.251   3.809   4.289  0.8866 -3.1415 -0.0397
 4729TIP3    H235603   1.104   3.776   4.294  0.4422 -1.3139 -0.3112
 4730TIP3   OH235604   2.056   5.090  11.854  0.3028  0.1323 -0.0747
 4730TIP3    H135605   2.068   5.049  11.939 -0.6121  0.4178  0.2052
 4730TIP3    H235606   2.141   5.130  11.835  0.5116  0.0823  0.7098
 4731TIP3   OH235607   6.068   3.494  10.697  0.1996  0.0791 -0.5471
 4731TIP3    H135608   6.140   3.466  10.639  0.0279 -1.8168  0.0865
 4731TIP3    H235609   6.044   3.415  10.745 -0.4004  1.3434  1.3432
 4732TIP3   OH235610   0.331   4.603  16.420  0.0967 -0.2905  0.1405
 4732TIP3    H135611   0.298   4.684  16.382  0.5882  0.1857  0.6908
 4732TIP3    H235612   0.398   4.573  16.359  0.9700  0.5353  0.6582
 4733TIP3   OH235613   0.464   5.898  14.724 -0.4259  0.0776 -0.4651
 4733TIP3    H135614   0.489   5.813  14.760 -1.2086  0.1127  0.1898
 4733TIP3    H235615   0.492   5.962  14.790 -0.5380  0.2676 -0.5986
 4734TIP3   OH235616   3.307   5.889  12.554 -0.1541  0.7417 -0.7133
 4734TIP3    H135617   3.375   5.869  12.491 -0.7866 -0.0946 -1.1532
 4734TIP3    H235618   3.252   5.810  12.556  1.0786 -0.1988  2.5032
 4735TIP3   OH235619   2.963   3.322   0.726  0.0664  0.2355  0.6884
 4735TIP3    H135620   3.024   3.260   0.764  0.0479 -0.5913 -0.5638
 4735TIP3    H235621   3.005   3.408   0.736  1.7639 -0.3774 -0.7167
 4736TIP3   OH235622   4.382   6.469  11.133  0.1984 -0.0260  0.6719
 4736TIP3    H135623   4.288   6.453  11.125  0.5711 -2.3403  0.0284
 4736TIP3    H235624   4.411   6.407  11.200  1.2635  0.7062  0.9077
 4737TIP3   OH235625   4.700   1.505   3.088  0.3651 -0.0192  0.0592
 4737TIP3    H135626   4.766   1.552   3.037  1.2213 -1.3896 -0.1671
 4737TIP3    H235627   4.635   1.571   3.111  2.2162  1.5770  0.9890
 4738TIP3   OH235628   1.847   0.473  15.631 -0.1988  0.5846 -0.4918
 4738TIP3    H135629   1.885   0.511  15.552 -0.8539 -0.0271 -1.1248
 4738TIP3    H235630   1.754   0.462  15.609 -0.3359  0.1726  0.2746
 4739TIP3   OH235631   3.647   4.659   5.461  0.0851 -0.3640 -0.1841
 4739TIP3    H135632   3.614   4.660   5.551  0.1891 -1.4827 -0.1215
 4739TIP3    H235633   3.654   4.567   5.439  2.9706 -0.2052 -0.2894
 4740TIP3   OH235634   3.255   2.033   6.186  0.3744  0.2361  0.2037
 4740TIP3    H135635   3.224   2.082   6.111  0.9569  1.3240  0.6598
 4740TIP3    H235636   3.343   2.066   6.202  0.2534  0.0307  1.3685
 4741TIP3   OH235637   4.410   4.909   3.881 -0.1429  0.5400 -0.4315
 4741TIP3    H135638   4.323   4.892   3.844  0.7684 -1.2024 -1.9443
 4741TIP3    H235639   4.451   4.969   3.820  0.7265 -0.9316 -1.3386
 4742TIP3   OH235640   2.538   2.169  15.615  0.5390  0.1595  0.0716
 4742TIP3    H135641   2.623   2.192  15.577  0.2059 -1.6394 -1.9792
 4742TIP3    H235642   2.511   2.090  15.567 -1.3008 -0.5943  2.1515
 4743TIP3   OH235643   6.530   1.684   2.935  0.1848  0.1046 -0.4567
 4743TIP3    H135644   6.542   1.601   2.888 -2.2401 -1.0741  0.7697
 4743TIP3    H235645   6.559   1.664   3.024 -1.6912  0.0314  0.2025
 4744TIP3   OH235646   5.367   0.159  13.316 -0.3648  0.4822  0.4054
 4744TIP3    H135647   5.427   0.183  13.245 -0.3701  1.3333  0.6689
 4744TIP3    H235648   5.422   0.112  13.379 -0.6895 -1.7169 -0.8585
 4745TIP3   OH235649   1.717   1.938  12.215  0.1317 -0.6585  0.6540
 4745TIP3    H135650   1.641   1.902  12.169  0.9645 -2.1144  0.3622
 4745TIP3    H235651   1.783   1.947  12.147  0.6786 -0.7633  1.1660
 4746TIP3   OH235652   5.371   6.643   4.784 -0.3920  0.1318 -0.3075
 4746TIP3    H135653   5.394   6.555   4.756 -1.8434 -0.6491  0.8088
 4746TIP3    H235654   5.453   6.680   4.816  0.1639 -0.9474 -0.4362
 4747TIP3   OH235655   0.973   3.882   6.556  0.2872 -0.1075  0.5055
 4747TIP3    H135656   0.965   3.920   6.468  1.5027 -0.2849  0.2970
 4747TIP3    H235657   1.032   3.808   6.545  0.1744 -0.3474  1.4172
 4748TIP3   OH235658   5.438   2.130  12.130 -0.0832 -0.2785 -0.0887
 4748TIP3    H135659   5.519   2.085  12.109 -0.0112 -1.3556  2.2105
 4748TIP3    H235660   5.369   2.064  12.120 -0.1107 -0.6772  2.1882
 4749TIP3   OH235661   3.645   1.732   1.861 -0.3954  0.2357  0.2008
 4749TIP3    H135662   3.657   1.693   1.947 -0.9644 -1.2547 -0.3592
 4749TIP3    H235663   3.654   1.659   1.800  0.2483  1.3029 -1.0316
 4750TIP3   OH235664   6.278   5.114   3.441  0.2779  0.2058 -0.1493
 4750TIP3    H135665   6.213   5.092   3.374 -0.4703 -1.1206  0.9435
 4750TIP3    H235666   6.227   5.145   3.515  0.8373 -0.9380  0.7636
 4751TIP3   OH235667   0.432   6.450   3.239  0.1179 -0.0132  0.1942
 4751TIP3    H135668   0.465   6.518   3.298 -2.0263  1.5332 -0.2410
 4751TIP3    H235669   0.413   6.497   3.158 -1.8315 -1.0152  0.0160
 4752TIP3   OH235670   0.234   2.092  15.879 -0.5386 -0.6868  0.0214
 4752TIP3    H135671   0.162   2.155  15.875  0.5756  0.5622 -1.6547
 4752TIP3    H235672   0.309   2.144  15.909 -0.0466 -1.6918  0.5788
 4753TIP3   OH235673   2.824   6.534  13.848 -0.6796  0.5990 -0.3166
 4753TIP3    H135674   2.767   6.456  13.849 -2.0942  1.5892 -0.3954
 4753TIP3    H235675   2.883   6.519  13.774 -1.2160 -0.2106 -0.6033
 4754TIP3   OH235676   6.246   1.918   5.905 -0.2833  0.0992 -0.2414
 4754TIP3    H135677   6.212   1.956   5.986  1.1434 -1.3813  1.1479
 4754TIP3    H235678   6.181   1.854   5.879 -0.8359  0.7075 -0.3798
 4755TIP3   OH235679   2.807   2.643  13.918 -0.3394 -0.0470 -0.0850
 4755TIP3    H135680   2.860   2.618  13.843 -0.6526  0.0651 -0.3475
 4755TIP3    H235681   2.820   2.573  13.981 -2.2749 -1.6065 -1.3257
 4756TIP3   OH235682   6.575   2.013   6.032 -0.0251  0.1021  0.4239
 4756TIP3    H135683   6.668   2.002   6.053  0.0378 -0.6171 -0.1965
 4756TIP3    H235684   6.529   1.983   6.111  0.2508 -0.8339  0.2460
 4757TIP3   OH235685   1.387   2.909  16.040 -0.0801 -0.0591 -0.3764
 4757TIP3    H135686   1.472   2.877  16.013  0.1936 -1.0853  1.4786
 4757TIP3    H235687   1.389   2.905  16.136 -1.1984  2.5982 -0.1432
 4758TIP3   OH235688   5.660   1.756   1.148 -0.7893  0.5378  0.0506
 4758TIP3    H135689   5.595   1.686   1.161 -0.6311  0.2331 -0.7261
 4758TIP3    H235690   5.632   1.799   1.067  0.3922 -0.0801 -0.7120
 4759TIP3   OH235691   6.138   3.940   5.163  0.1212  0.1664  0.2371
 4759TIP3    H135692   6.141   4.036   5.161  0.5837  0.2143  1.8483
 4759TIP3    H235693   6.058   3.917   5.116  0.1746  1.3232 -0.4510
 4760TIP3   OH235694   5.446   0.924   5.321  0.4368  0.1918  0.1029
 4760TIP3    H135695   5.450   0.844   5.373  0.9956  0.1696  0.0387
 4760TIP3    H235696   5.496   0.903   5.242 -0.5731  0.1555 -0.5477
 4761TIP3   OH235697   4.880   0.020  13.156 -0.3418 -0.1106 -0.5322
 4761TIP3    H135698   4.835  -0.047  13.208  0.1135  0.5215  0.7126
 4761TIP3    H235699   4.968   0.025  13.194 -0.5545  1.6119 -0.1769
 4762TIP3   OH235700   1.059   5.182   4.075 -0.8418 -0.2325  0.3276
 4762TIP3    H135701   1.117   5.138   4.013 -0.5895  1.4534 -0.7041
 4762TIP3    H235702   1.105   5.177   4.158 -0.8015 -1.8171  0.2425
 4763TIP3   OH235703   5.613   1.447  11.787  0.0194 -0.6566  0.3154
 4763TIP3    H135704   5.551   1.490  11.846  0.0159  0.5759 -0.5370
 4763TIP3    H235705   5.566   1.371  11.753 -1.5332  0.8840 -1.2131
 4764TIP3   OH235706   6.358   1.032   4.916 -0.0451  0.1367  0.1147
 4764TIP3    H135707   6.448   1.033   4.884  0.9661  0.7298  2.7746
 4764TIP3    H235708   6.315   1.103   4.867  2.2925  3.1893  2.1296
 4765TIP3   OH235709   6.042   6.645   4.709 -0.0654  0.3096  0.0336
 4765TIP3    H135710   6.107   6.581   4.680 -1.2091 -0.1257 -1.7857
 4765TIP3    H235711   5.971   6.593   4.746  0.6128  0.7835  2.1050
 4766TIP3   OH235712   1.140   6.428   0.163 -0.5699  0.5131  0.2136
 4766TIP3    H135713   1.209   6.432   0.230 -1.8020  1.2138  1.4871
 4766TIP3    H235714   1.067   6.476   0.201 -1.5919  0.2474 -1.3366
 4767TIP3   OH235715   6.177   2.413   5.692 -0.3490 -0.7731  0.2814
 4767TIP3    H135716   6.187   2.500   5.652 -0.1872  0.2253  2.3311
 4767TIP3    H235717   6.141   2.432   5.779 -1.0339 -2.8422  0.4880
 4768TIP3   OH235718   1.070   2.182   1.697 -0.0410  0.0903  0.3629
 4768TIP3    H135719   1.026   2.238   1.762  0.9010 -1.1084  2.1328
 4768TIP3    H235720   1.135   2.133   1.748  0.2960 -1.4124 -1.4054
 4769TIP3   OH235721   4.824   2.391  10.900  0.2982  0.3967  0.1890
 4769TIP3    H135722   4.872   2.348  10.829  0.5379  0.3821  0.3595
 4769TIP3    H235723   4.881   2.382  10.976 -0.8200 -1.3682  0.8764
 4770TIP3   OH235724   3.911   2.383  15.800 -0.4981  0.8282 -0.6659
 4770TIP3    H135725   3.853   2.335  15.741 -0.2944  0.1516 -0.3301
 4770TIP3    H235726   3.852   2.424  15.863 -0.6004 -0.9603  0.4985
 4771TIP3   OH235727   1.511   0.624   2.211 -0.3777  0.5261 -0.3257
 4771TIP3    H135728   1.476   0.664   2.131 -2.6084 -1.7640 -0.6528
 4771TIP3    H235729   1.541   0.537   2.183  0.4699  0.3531  1.0363
 4772TIP3   OH235730   2.957   4.513  14.366 -0.1643  0.4943  0.1182
 4772TIP3    H135731   2.898   4.525  14.292  0.1082  0.3342 -0.1265
 4772TIP3    H235732   2.928   4.430  14.405  0.8241 -0.3416 -0.8778
 4773TIP3   OH235733   0.087   3.269   5.517 -0.1283  0.3187 -0.2084
 4773TIP3    H135734   0.094   3.185   5.472 -0.4738 -1.1865  2.3398
 4773TIP3    H235735   0.116   3.333   5.452  1.9794 -1.9271 -1.6621
 4774TIP3   OH235736   1.541   0.892  16.760  0.2913 -0.2471  0.3552
 4774TIP3    H135737   1.626   0.920  16.726  0.1825  0.0766  0.3515
 4774TIP3    H235738   1.521   0.812  16.711 -1.2220  1.6975 -2.4628
 4775TIP3   OH235739   4.682   2.970  11.845  0.4136  0.0797  0.0401
 4775TIP3    H135740   4.745   3.042  11.841 -0.3696  0.7597 -0.5198
 4775TIP3    H235741   4.664   2.958  11.938  0.4563  0.7071  0.1341
 4776TIP3   OH235742   4.591   0.634   2.656  0.1576 -0.7611 -0.0881
 4776TIP3    H135743   4.658   0.640   2.724 -0.1376  1.2303  0.0884
 4776TIP3    H235744   4.512   0.606   2.703  0.1090  0.0008  0.3049
 4777TIP3   OH235745   4.546   1.632   1.943  0.1917  0.1576 -0.3936
 4777TIP3    H135746   4.621   1.690   1.960 -0.6195  1.4822 -1.1420
 4777TIP3    H235747   4.515   1.658   1.856 -0.0800 -1.5861 -0.8543
 4778TIP3   OH235748   1.463   0.850   3.208 -0.0592 -0.1015  0.0893
 4778TIP3    H135749   1.368   0.842   3.204 -0.0732  0.2061 -0.3332
 4778TIP3    H235750   1.496   0.761   3.197 -0.2955 -0.1844  0.0597
 4779TIP3   OH235751   1.770   6.323   3.589 -0.5585 -0.1978  0.3165
 4779TIP3    H135752   1.693   6.268   3.572  0.2380 -1.5356  0.8395
 4779TIP3    H235753   1.744   6.379   3.662 -2.3403  2.1924 -1.9786
 4780TIP3   OH235754   0.438   3.445  11.994 -0.4965  0.2073  0.3726
 4780TIP3    H135755   0.477   3.493  11.920 -1.0692  0.3905  0.1858
 4780TIP3    H235756   0.511   3.395  12.031 -0.1719  0.2273 -0.2252
 4781TIP3   OH235757   0.241   0.292   2.248  0.5704 -0.4425 -0.0424
 4781TIP3    H135758   0.289   0.355   2.194  0.4200 -2.0954 -2.2715
 4781TIP3    H235759   0.309   0.235   2.285  0.5417 -1.5231 -1.5351
 4782TIP3   OH235760   6.291   0.914   5.157  0.0671 -0.1099  0.4133
 4782TIP3    H135761   6.325   0.950   5.075 -0.2679 -0.8362 -0.0555
 4782TIP3    H235762   6.243   0.986   5.198  0.2618  0.2614 -0.0109
 4783TIP3   OH235763   3.555   0.342  14.119 -0.4636  1.4159  0.6025
 4783TIP3    H135764   3.547   0.253  14.082 -2.0904  0.7601  2.3965
 4783TIP3    H235765   3.498   0.396  14.064  0.2424  1.3140 -0.2660
 4784TIP3   OH235766   3.055   6.563   3.689  0.4748  0.0765 -0.9273
 4784TIP3    H135767   3.027   6.650   3.661  0.5744  0.0985 -0.9595
 4784TIP3    H235768   3.144   6.576   3.722  0.1682  0.1441 -0.1087
 4785TIP3   OH235769   4.109   6.559   2.556 -0.0834  0.1150  0.2916
 4785TIP3    H135770   4.025   6.602   2.570 -0.5544  0.6195 -3.1934
 4785TIP3    H235771   4.172   6.616   2.600 -1.2378  1.6473  0.0538
 4786TIP3   OH235772   1.487   0.694  16.457  0.1532 -0.1298 -0.0194
 4786TIP3    H135773   1.397   0.661  16.459  0.0588  0.1600  1.5162
 4786TIP3    H235774   1.478   0.789  16.449  0.3223 -0.1223 -0.1179
 4787TIP3   OH235775   1.175   1.541  17.192  0.0044  0.4968  0.1166
 4787TIP3    H135776   1.105   1.506  17.137  0.9828 -0.5283 -0.5302
 4787TIP3    H235777   1.130   1.582  17.266 -1.2472 -1.0053  0.2399
 4788TIP3   OH235778   4.911   2.627   6.160 -0.1693  0.1476  0.1875
 4788TIP3    H135779   4.842   2.693   6.163 -2.0732 -1.7623  0.5293
 4788TIP3    H235780   4.944   2.623   6.250 -0.2228  0.4245  0.2217
 4789TIP3   OH235781   1.593   1.872   5.207  0.3141 -0.3176 -0.1892
 4789TIP3    H135782   1.511   1.922   5.212  0.0681 -0.6255 -0.9116
 4789TIP3    H235783   1.598   1.825   5.290  0.2700  0.4712  0.2721
 4790TIP3   OH235784   3.287   1.097  14.850 -0.2631 -0.0544  0.2162
 4790TIP3    H135785   3.323   1.011  14.826  0.9492 -0.2650  2.5881
 4790TIP3    H235786   3.220   1.077  14.915  0.3658  0.8163  1.1493
 4791TIP3   OH235787   0.529   1.514   4.259 -0.1505  0.8694 -0.5387
 4791TIP3    H135788   0.440   1.503   4.292  0.4242 -0.6690  0.6266
 4791TIP3    H235789   0.529   1.468   4.175 -0.8560  2.2896 -1.3477
 4792TIP3   OH235790   1.911   1.520  15.829  0.8071 -1.0359  0.1287
 4792TIP3    H135791   1.836   1.519  15.770  1.0259 -0.3639 -0.1651
 4792TIP3    H235792   1.985   1.547  15.774  0.6658  1.5784  1.1066
 4793TIP3   OH235793   0.939   6.027  17.233  0.4590  0.3604 -0.1137
 4793TIP3    H135794   1.017   6.004  17.183 -0.2725 -1.1125 -0.6189
 4793TIP3    H235795   0.936   6.123  17.229  2.3932  0.4751  0.1909
 4794TIP3   OH235796   4.445   5.652   4.616  0.1314  0.9014  0.2117
 4794TIP3    H135797   4.505   5.674   4.544 -0.5200 -1.5199 -1.1617
 4794TIP3    H235798   4.360   5.683   4.585 -0.1304 -0.0504 -0.0368
 4795TIP3   OH235799   0.562   5.894  15.974  0.2535 -0.3233 -0.5729
 4795TIP3    H135800   0.537   5.816  16.023  0.3044  0.9743  1.6736
 4795TIP3    H235801   0.495   5.902  15.906  0.9839 -2.9802 -1.7553
 4796TIP3   OH235802   6.256   4.335   2.746 -0.3233 -0.4655  0.1326
 4796TIP3    H135803   6.180   4.341   2.688 -1.6721 -0.7781  1.7979
 4796TIP3    H235804   6.261   4.421   2.788  2.4018  0.7992 -2.4212
 4797TIP3   OH235805   1.285   6.694  11.713  0.7143 -0.4714 -0.0290
 4797TIP3    H135806   1.340   6.649  11.777 -0.3016 -0.6859  0.7131
 4797TIP3    H235807   1.208   6.638  11.704  0.3946  0.0584 -0.7033
 4798TIP3   OH235808   2.764   2.207   2.173 -0.2234  0.5861 -0.0344
 4798TIP3    H135809   2.855   2.206   2.202  0.0636 -0.7479 -0.8842
 4798TIP3    H235810   2.713   2.222   2.253  0.6209 -1.2914  0.9091
 4799TIP3   OH235811   1.319   3.913  13.731  0.2320 -0.3333 -0.2977
 4799TIP3    H135812   1.234   3.951  13.753  0.6004  0.1247  0.3819
 4799TIP3    H235813   1.371   3.922  13.811  1.1862  0.1717 -0.9501
 4800TIP3   OH235814   5.273   6.767  13.940 -0.7140  0.4356  0.0835
 4800TIP3    H135815   5.315   6.744  13.857  0.0600 -0.2898  0.6450
 4800TIP3    H235816   5.328   6.725  14.006 -0.7148  1.8731  1.0330
 4801TIP3   OH235817   1.446   3.031   3.177 -0.0231 -0.4894 -0.0783
 4801TIP3    H135818   1.527   3.073   3.148 -0.2673  0.7952  1.0403
 4801TIP3    H235819   1.475   2.947   3.213  1.1045  0.7941  2.2008
 4802TIP3   OH235820   0.259   5.035   5.250  0.3538 -0.0352  0.3419
 4802TIP3    H135821   0.228   5.055   5.162 -0.0156 -0.7346  0.3072
 4802TIP3    H235822   0.232   5.111   5.302 -2.3469 -1.0170  0.5349
 4803TIP3   OH235823   6.002   2.208  16.064  0.0432 -0.3318 -0.1462
 4803TIP3    H135824   6.044   2.253  15.990 -0.3615 -1.9370 -1.4097
 4803TIP3    H235825   6.074   2.188  16.124  0.5912 -0.2456 -0.7614
 4804TIP3   OH235826   1.302   1.055   2.107 -0.6944 -0.1604 -0.1240
 4804TIP3    H135827   1.284   1.043   2.200  1.0402  0.1973  0.3061
 4804TIP3    H235828   1.247   1.128   2.081 -0.5006  0.3534  0.8619
 4805TIP3   OH235829   0.590   2.351  14.221  0.5259 -0.3113 -0.0775
 4805TIP3    H135830   0.619   2.383  14.135 -0.8927 -1.4672 -1.0226
 4805TIP3    H235831   0.618   2.260  14.223  0.5269 -0.2969  0.6942
 4806TIP3   OH235832   3.280   2.917   0.898  0.0384 -0.4853  0.5244
 4806TIP3    H135833   3.289   2.911   0.803  0.0026  1.3942  0.3636
 4806TIP3    H235834   3.369   2.904   0.931  0.2730  0.0810  0.1330
 4807TIP3   OH235835   5.681   1.383   0.021 -0.5226  0.5613  0.5730
 4807TIP3    H135836   5.772   1.394   0.048 -0.2495 -1.3499  0.5580
 4807TIP3    H235837   5.635   1.456   0.063  0.5939  0.1487  2.6626
 4808TIP3   OH235838   5.837   3.590  11.517  0.2357  0.2348 -0.5885
 4808TIP3    H135839   5.759   3.539  11.537  0.3901  0.5344  0.9186
 4808TIP3    H235840   5.902   3.559  11.580  1.1914  0.3418 -1.4946
 4809TIP3   OH235841   3.702   1.257   3.930 -0.0946  0.2489 -0.2411
 4809TIP3    H135842   3.718   1.300   3.846  0.3327  2.2418  0.7928
 4809TIP3    H235843   3.607   1.262   3.942  0.0146  1.6942  0.2168
 4810TIP3   OH235844   4.715   4.545   3.419  0.2262  0.2098 -0.1076
 4810TIP3    H135845   4.731   4.451   3.408  1.1057  0.2501  0.7340
 4810TIP3    H235846   4.623   4.550   3.447 -0.0114 -0.3491 -0.7689
 4811TIP3   OH235847   4.322   2.484   0.892 -0.5932  0.1393 -0.2839
 4811TIP3    H135848   4.358   2.573   0.888 -2.3703  0.8723 -0.9000
 4811TIP3    H235849   4.391   2.429   0.857  0.6710  1.2274  0.3905
 4812TIP3   OH235850   2.842   4.210  12.145 -0.5190  0.0042  0.3208
 4812TIP3    H135851   2.887   4.255  12.217 -1.3172 -1.2123  1.6433
 4812TIP3    H235852   2.764   4.263  12.129  0.6489  1.4060 -1.1026
 4813TIP3   OH235853   6.388   2.300   0.112 -0.5266  0.2945  0.2314
 4813TIP3    H135854   6.305   2.302   0.159 -1.3902  0.4439 -1.2310
 4813TIP3    H235855   6.455   2.304   0.180 -1.7191  1.5677  1.3738
 4814TIP3   OH235856   3.166   0.470   1.965 -0.0058 -0.2835 -0.8256
 4814TIP3    H135857   3.174   0.463   1.870  2.3563  0.2170 -0.7402
 4814TIP3    H235858   3.249   0.509   1.993 -1.2922  1.1486  1.3013
 4815TIP3   OH235859   0.432   2.011   2.234 -0.0770  0.3537  0.5323
 4815TIP3    H135860   0.406   2.004   2.142 -1.0347  0.2323  0.7987
 4815TIP3    H235861   0.371   2.076   2.270  1.3387  1.6152  0.7129
 4816TIP3   OH235862   2.334   1.284   1.005  1.2230 -0.0825  0.0472
 4816TIP3    H135863   2.411   1.308   0.953  1.0305 -0.7615 -0.5756
 4816TIP3    H235864   2.265   1.270   0.940  0.7213 -0.0270  0.5588
 4817TIP3   OH235865   0.598   1.082  15.160  0.4156 -0.2301 -0.4535
 4817TIP3    H135866   0.586   1.097  15.253 -0.0702  1.1489 -0.7174
 4817TIP3    H235867   0.522   1.123  15.118  0.1652 -1.5775 -1.4187
 4818TIP3   OH235868   6.614   4.354  14.299 -0.7904 -0.4189  0.5492
 4818TIP3    H135869   6.620   4.300  14.221  0.9236 -0.0027  0.3470
 4818TIP3    H235870   6.550   4.309  14.355 -1.1284 -1.3748 -0.5702
 4819TIP3   OH235871   6.338   0.905  16.933 -0.0989  0.4501 -0.2052
 4819TIP3    H135872   6.303   0.816  16.939  0.5281  0.1490 -0.8499
 4819TIP3    H235873   6.375   0.922  17.020  1.8816 -0.8424 -0.7103
 4820TIP3   OH235874   2.048   4.421  16.406  0.3779  0.1070 -0.1408
 4820TIP3    H135875   1.982   4.352  16.410  0.3957 -0.0050 -1.5000
 4820TIP3    H235876   2.132   4.374  16.409  0.3902  0.0520 -1.1902
 4821TIP3   OH235877   4.665   4.562  14.839 -0.0248 -0.4142  0.2840
 4821TIP3    H135878   4.581   4.602  14.864 -1.5488 -2.4392 -1.2090
 4821TIP3    H235879   4.690   4.509  14.914 -1.1915 -1.3835  0.0225
 4822TIP3   OH235880   5.283   4.269   1.919 -0.4348  0.0791  0.0302
 4822TIP3    H135881   5.330   4.335   1.970  0.3370 -1.4589  1.4355
 4822TIP3    H235882   5.224   4.228   1.983 -0.4571 -0.9870 -0.6500
 4823TIP3   OH235883   5.024   3.372   4.446 -0.3037 -0.1984  0.4434
 4823TIP3    H135884   5.109   3.395   4.407 -1.1699  0.6679 -1.0339
 4823TIP3    H235885   5.034   3.393   4.539  0.8608  0.6291  0.1584
 4824TIP3   OH235886   2.181   5.078   3.432 -0.1987 -0.0521  0.4053
 4824TIP3    H135887   2.205   5.049   3.519 -1.6677 -3.0521 -0.0811
 4824TIP3    H235888   2.251   5.043   3.375 -0.9751 -1.0412  0.0331
 4825TIP3   OH235889   2.127   4.571  12.002  0.1156  0.1284  0.4030
 4825TIP3    H135890   2.214   4.539  11.979 -0.0748 -1.0728  1.2590
 4825TIP3    H235891   2.123   4.565  12.098 -0.1692  2.1716  0.5650
 4826TIP3   OH235892   3.477   3.277   1.863 -0.6197 -0.3025  0.1625
 4826TIP3    H135893   3.411   3.346   1.870  0.0441  0.3800 -0.2168
 4826TIP3    H235894   3.456   3.231   1.782  0.7012  1.3703 -1.2084
 4827TIP3   OH235895   2.591   4.011   4.293 -0.1476  0.1995  0.2576
 4827TIP3    H135896   2.634   4.052   4.367  0.0839 -0.5070  0.5250
 4827TIP3    H235897   2.543   3.937   4.331 -0.1074 -0.1093 -0.2733
 4828TIP3   OH235898   5.940   3.920  12.398 -0.1851 -0.9412 -0.3747
 4828TIP3    H135899   5.866   3.867  12.429 -2.5139  2.0039 -0.5078
 4828TIP3    H235900   5.959   3.886  12.310 -1.8832 -1.3037 -0.6321
 4829TIP3   OH235901   0.271   2.951  12.277 -0.2441 -0.8796 -0.6533
 4829TIP3    H135902   0.296   3.005  12.203  0.8207  1.6248  1.3720
 4829TIP3    H235903   0.353   2.911  12.307 -0.1602  0.1560  0.6096
 4830TIP3   OH235904   5.328   2.400  13.060  0.0226 -0.4285  0.2840
 4830TIP3    H135905   5.329   2.448  12.978 -0.7021 -1.0219 -0.0860
 4830TIP3    H235906   5.267   2.448  13.116  0.5559  0.0047  0.4916
 4831TIP3   OH235907   5.050   4.733   5.514  0.2813 -0.2194 -0.5153
 4831TIP3    H135908   5.016   4.652   5.476 -2.0197  1.4431 -2.3787
 4831TIP3    H235909   4.975   4.793   5.510  1.7302  1.8460  1.3181
 4832TIP3   OH235910   2.711   0.763  15.750  0.6279 -0.2739 -0.1413
 4832TIP3    H135911   2.667   0.812  15.680  0.0624  0.5640  0.7687
 4832TIP3    H235912   2.644   0.752  15.818  0.7487 -2.3219 -0.2935
 4833TIP3   OH235913   0.613   1.345  12.661 -0.0343  0.0411  0.0968
 4833TIP3    H135914   0.695   1.377  12.700  0.0184  0.0320 -0.0056
 4833TIP3    H235915   0.555   1.421  12.662 -0.1497 -0.0548  0.5139
 4834TIP3   OH235916   4.792   1.706  14.747  0.1751 -0.3962  0.1169
 4834TIP3    H135917   4.833   1.793  14.750  1.5400 -0.9887 -0.5211
 4834TIP3    H235918   4.862   1.648  14.719 -1.0516 -1.5098 -0.7474
 4835TIP3   OH235919   6.768   2.942   2.307 -0.4651  0.0945  0.5859
 4835TIP3    H135920   6.696   2.902   2.258 -0.4684  1.9434 -1.0783
 4835TIP3    H235921   6.785   3.025   2.261  3.6196 -0.8178  0.0233
 4836TIP3   OH235922   1.999   4.674   3.624  0.1123  0.7160  0.1427
 4836TIP3    H135923   1.952   4.650   3.544 -0.3296 -1.5699  1.0036
 4836TIP3    H235924   1.941   4.736   3.668 -1.2445 -0.5737  0.2535
 4837TIP3   OH235925   1.126   0.016   4.293 -1.0180  0.0132 -0.5547
 4837TIP3    H135926   1.086   0.060   4.368 -1.2505  0.0897 -0.7247
 4837TIP3    H235927   1.210   0.061   4.281 -0.9377 -0.0622 -0.2815
 4838TIP3   OH235928   2.971   2.866   0.460  0.2918 -0.0218 -0.2021
 4838TIP3    H135929   2.939   2.870   0.550  0.0800  0.0856 -0.2844
 4838TIP3    H235930   2.898   2.832   0.410  0.1976  0.5268 -0.4424
 4839TIP3   OH235931   4.459   0.448   1.158 -0.4039  0.5264 -0.1281
 4839TIP3    H135932   4.440   0.431   1.065  0.1496  0.0978 -0.1690
 4839TIP3    H235933   4.546   0.487   1.157 -0.8215  1.4782  0.1355
 4840TIP3   OH235934   4.058   4.814   6.184 -0.3136  0.0687  0.3447
 4840TIP3    H135935   4.085   4.725   6.161 -0.6552  0.2455 -0.7673
 4840TIP3    H235936   4.069   4.818   6.279 -0.1549 -1.1146  0.3907
 4841TIP3   OH235937   4.968   5.720   0.161  0.2825 -0.1298  0.3808
 4841TIP3    H135938   5.044   5.763   0.121 -1.5262  1.7073 -1.3101
 4841TIP3    H235939   4.914   5.792   0.193 -1.0371 -1.3522  1.0006
 4842TIP3   OH235940   2.878   5.486   5.064  0.0472  0.1348 -0.0099
 4842TIP3    H135941   2.789   5.521   5.076  0.2562  0.9050 -0.6454
 4842TIP3    H235942   2.916   5.541   4.996  0.9288 -0.3602  0.0779
 4843TIP3   OH235943   0.536   4.238  16.308  0.3943 -0.0355 -0.1081
 4843TIP3    H135944   0.543   4.332  16.322  1.7168 -0.2309  0.8122
 4843TIP3    H235945   0.486   4.229  16.227 -0.0469  1.4366 -0.0255
 4844TIP3   OH235946   4.640   2.824   2.755 -0.0566  0.0060  0.2809
 4844TIP3    H135947   4.664   2.840   2.664 -0.6227  0.9723  0.2949
 4844TIP3    H235948   4.661   2.731   2.769 -0.0044 -0.1622 -0.8367
 4845TIP3   OH235949   2.434   5.739   3.386 -0.6223  0.5224  0.4623
 4845TIP3    H135950   2.488   5.818   3.385 -0.3515  0.3389 -0.0736
 4845TIP3    H235951   2.362   5.759   3.446 -0.1492  0.9013  0.9156
 4846TIP3   OH235952   4.884   1.272  14.430  0.7511  0.2169 -0.0686
 4846TIP3    H135953   4.859   1.182  14.410 -0.0475  0.6184 -0.9313
 4846TIP3    H235954   4.801   1.315  14.451  0.9800  1.0513 -0.8637
 4847TIP3   OH235955   3.197   6.410   5.197 -0.1991  0.1762  0.1553
 4847TIP3    H135956   3.145   6.393   5.118  1.0019 -2.1752 -0.2308
 4847TIP3    H235957   3.168   6.344   5.259  0.9738  0.0460  0.5888
 4848TIP3   OH235958   0.322   4.015  13.199 -0.4760  0.8621 -0.0871
 4848TIP3    H135959   0.414   3.993  13.214 -1.5299 -3.8222  1.3550
 4848TIP3    H235960   0.301   3.971  13.117 -1.7671  0.3902  0.4740
 4849TIP3   OH235961   4.289   3.422   0.423  0.2164  0.4135  0.2304
 4849TIP3    H135962   4.265   3.472   0.501  3.8344 -1.0880  2.5348
 4849TIP3    H235963   4.275   3.330   0.447 -0.2505 -0.0446 -1.5811
 4850TIP3   OH235964   6.088   1.765   2.774 -0.4915 -0.1270 -0.1150
 4850TIP3    H135965   6.153   1.695   2.778  0.4088  0.7675  2.1255
 4850TIP3    H235966   6.025   1.744   2.843 -0.5199  0.9453  0.2132
 4851TIP3   OH235967   0.190   1.247   2.483  1.2847 -0.1560 -0.1440
 4851TIP3    H135968   0.217   1.249   2.575  0.4097 -2.2383  0.1998
 4851TIP3    H235969   0.260   1.199   2.439  2.3340  1.8826 -0.8776
 4852TIP3   OH235970   6.234   5.821  17.259  0.6060  0.7444  0.0134
 4852TIP3    H135971   6.175   5.891  17.231 -0.0668  0.5373  0.8789
 4852TIP3    H235972   6.274   5.854  17.340 -0.7757 -0.3923  1.2284
 4853TIP3   OH235973   1.747   6.158  12.418 -0.4414 -0.3028 -0.5032
 4853TIP3    H135974   1.737   6.133  12.326 -0.9723  0.2845 -0.6119
 4853TIP3    H235975   1.685   6.101  12.464 -0.3824 -0.3996 -0.5421
 4854TIP3   OH235976   1.901   4.523   1.758 -0.4558  0.5104 -0.1756
 4854TIP3    H135977   1.916   4.570   1.676  1.2665  1.0431  0.3889
 4854TIP3    H235978   1.873   4.592   1.819 -0.7774  0.2885 -0.0727
 4855TIP3   OH235979   5.301   4.751  16.318  0.2278  0.7539 -0.1414
 4855TIP3    H135980   5.276   4.833  16.361 -1.5711  1.1406 -1.7864
 4855TIP3    H235981   5.381   4.773  16.270  0.4339  1.2022  0.3945
 4856TIP3   OH235982   4.544   2.669  14.474  0.3365 -0.0714 -0.9007
 4856TIP3    H135983   4.511   2.597  14.420  0.3504  0.9815 -2.3952
 4856TIP3    H235984   4.566   2.738  14.411  0.3098  1.2515  0.4706
 4857TIP3   OH235985   6.471   1.541   3.485 -0.0344 -0.0027  0.2160
 4857TIP3    H135986   6.494   1.461   3.437 -0.0273 -0.8502  1.5878
 4857TIP3    H235987   6.400   1.580   3.433 -2.4568 -2.7155  1.2222
 4858TIP3   OH235988   1.491   2.776   6.561  0.2588 -0.0273 -0.0266
 4858TIP3    H135989   1.451   2.690   6.552 -1.0718  0.4614  0.9063
 4858TIP3    H235990   1.480   2.798   6.653  0.2003  1.3133 -0.3326
 4859TIP3   OH235991   3.499   4.359   4.251  0.3548  0.0421  0.0980
 4859TIP3    H135992   3.499   4.400   4.337  0.5778 -0.4865  0.3535
 4859TIP3    H235993   3.481   4.267   4.268 -1.8146  0.2762 -0.6087
 4860TIP3   OH235994   5.665   3.200  15.494 -0.1455  0.5109 -0.4652
 4860TIP3    H135995   5.646   3.177  15.403 -0.3945 -1.7212  0.1051
 4860TIP3    H235996   5.760   3.199  15.500 -0.1499 -0.9070 -0.3594
 4861TIP3   OH235997   0.700   1.902   2.794  0.4101  0.3506  0.4929
 4861TIP3    H135998   0.676   1.893   2.701 -2.0902  0.6045  1.0305
 4861TIP3    H235999   0.780   1.850   2.803  1.0160  0.7226 -1.8876
 4862TIP3   OH236000   0.902   0.593   3.125  1.1873  0.4748 -0.1035
 4862TIP3    H136001   0.902   0.498   3.127 -1.4078  0.3336 -2.1412
 4862TIP3    H236002   0.860   0.618   3.208 -0.3701 -0.2989 -0.6198
 4863TIP3   OH236003   5.554   3.165  16.610 -0.0389 -0.3140  0.6631
 4863TIP3    H136004   5.611   3.091  16.592  1.3890  0.3243  2.2440
 4863TIP3    H236005   5.528   3.155  16.701  1.1352  1.6857  1.2856
 4864TIP3   OH236006   0.143   1.248  13.930 -0.2724  0.3333 -0.2986
 4864TIP3    H136007   0.158   1.164  13.974 -0.3504 -0.4859 -1.7487
 4864TIP3    H236008   0.231   1.280  13.909 -0.2328 -0.9607 -2.4755
 4865TIP3   OH236009   3.133   0.439   4.391 -0.0190 -0.2175  0.2993
 4865TIP3    H136010   3.151   0.358   4.439 -0.5608 -0.7667 -0.4070
 4865TIP3    H236011   3.041   0.432   4.366  0.1341  0.2667 -0.4279
 4866TIP3   OH236012   4.705   2.571   5.017 -0.2442 -0.1176  0.4963
 4866TIP3    H136013   4.782   2.587   5.071  0.5753  0.3547 -0.7705
 4866TIP3    H236014   4.722   2.487   4.974  0.4805  0.8418 -1.2212
 4867TIP3   OH236015   2.858   0.419   3.245  0.5824 -0.0408  0.7743
 4867TIP3    H136016   2.809   0.419   3.163 -1.0028 -2.2650  1.6200
 4867TIP3    H236017   2.929   0.356   3.231  0.2173 -0.5400  1.1400
 4868TIP3   OH236018   4.548   6.244  16.243  0.3000  0.3530  0.0178
 4868TIP3    H136019   4.567   6.313  16.179  1.8016 -1.8047 -1.9991
 4868TIP3    H236020   4.461   6.266  16.276 -0.5148  1.6680 -2.6841
 4869TIP3   OH236021   0.531   2.913  12.313  0.4972 -0.3457  0.2516
 4869TIP3    H136022   0.585   2.842  12.278 -0.4644 -1.1038  0.2759
 4869TIP3    H236023   0.543   2.985  12.250 -0.9535 -1.5848 -1.5749
 4870TIP3   OH236024   4.228   0.858   2.620  0.2374  0.0120  0.1424
 4870TIP3    H136025   4.169   0.886   2.689 -1.1756 -1.4239 -0.4136
 4870TIP3    H236026   4.175   0.799   2.566  1.2896  1.0489 -2.1522
 4871TIP3   OH236027   6.042   2.029   0.606 -0.6280  0.2728  0.3862
 4871TIP3    H136028   6.076   2.118   0.605 -0.3328  0.1673 -0.4774
 4871TIP3    H236029   5.962   2.033   0.658 -1.1306  1.2380 -0.4292
 4872TIP3   OH236030   1.634   2.684   2.003  0.4075  0.6974  0.0115
 4872TIP3    H136031   1.543   2.666   1.980  0.4645  0.9656 -0.4199
 4872TIP3    H236032   1.653   2.622   2.074 -0.1113  0.6459  0.1089
 4873TIP3   OH236033   2.392   5.706  12.165  0.1348 -1.0502 -0.3375
 4873TIP3    H136034   2.402   5.795  12.199 -0.8234 -1.5128  1.2161
 4873TIP3    H236035   2.322   5.713  12.100  0.4465 -0.5679 -0.6258
 4874TIP3   OH236036   3.666   3.961  11.430 -0.7894  0.0911  0.0177
 4874TIP3    H136037   3.618   3.880  11.446  1.0506 -1.1481 -0.3549
 4874TIP3    H236038   3.673   4.003  11.516 -1.2533 -0.4498  0.3227
 4875TIP3   OH236039   2.130   2.487  11.713  0.2739 -0.0867  0.0813
 4875TIP3    H136040   2.178   2.532  11.644  0.7238  0.7588  0.9228
 4875TIP3    H236041   2.045   2.466  11.673  0.6663  0.0340 -0.8459
 4876TIP3   OH236042   2.507   3.559   3.462 -0.0655  0.1167 -0.3418
 4876TIP3    H136043   2.468   3.646   3.471  0.8604  0.3865  1.8602
 4876TIP3    H236044   2.571   3.555   3.533  1.1107 -1.7525 -1.4428
 4877TIP3   OH236045   2.654   5.634   3.833 -0.2583 -0.2837  0.0129
 4877TIP3    H136046   2.678   5.723   3.807 -1.5743 -0.0523 -0.4952
 4877TIP3    H236047   2.693   5.623   3.919  2.1603 -0.1893 -1.0016
 4878TIP3   OH236048   4.083   4.436  11.941 -0.2804 -0.2167  0.0025
 4878TIP3    H136049   4.050   4.412  11.854  0.4732 -2.0772  0.1751
 4878TIP3    H236050   4.073   4.531  11.945  0.2188  0.0072 -2.3567
 4879TIP3   OH236051   5.148   3.727  15.226 -0.0359  0.5027  0.7509
 4879TIP3    H136052   5.085   3.787  15.185  0.3174  1.4591  1.5931
 4879TIP3    H236053   5.108   3.640  15.215 -0.9967  0.9823  0.3461
 4880TIP3   OH236054   5.660   0.319  16.315 -0.5346  0.0019 -0.2083
 4880TIP3    H136055   5.674   0.231  16.279 -0.1768  0.5381 -1.4228
 4880TIP3    H236056   5.673   0.378  16.240  1.0280  1.2237  0.9664
 4881TIP3   OH236057   0.234   2.219  11.718  0.1771 -0.0103 -0.2055
 4881TIP3    H136058   0.147   2.188  11.691  0.5948 -1.8458  0.4264
 4881TIP3    H236059   0.215   2.289  11.781 -0.8153  0.2886 -0.8022
 4882TIP3   OH236060   5.412   5.277   4.156  0.1825 -0.3525  1.0913
 4882TIP3    H136061   5.346   5.221   4.117  1.3320  0.2973 -2.1005
 4882TIP3    H236062   5.450   5.225   4.226 -1.3572 -2.0342  0.7301
 4883TIP3   OH236063   5.050   6.186  11.236 -0.2077 -0.3522 -0.2291
 4883TIP3    H136064   5.077   6.274  11.263 -0.8363  0.1430 -1.1623
 4883TIP3    H236065   5.090   6.175  11.150 -0.9867 -0.5580 -0.5696
 4884TIP3   OH236066   1.587   6.149  15.138  0.2486 -0.8964  0.0337
 4884TIP3    H136067   1.663   6.206  15.129  0.1067 -0.2915  2.0927
 4884TIP3    H236068   1.612   6.068  15.093  1.2973 -0.0051 -1.0507
 4885TIP3   OH236069   1.129   1.661   4.214  1.1750 -0.1170 -0.3404
 4885TIP3    H136070   1.068   1.733   4.200 -1.4538 -2.2878 -0.8643
 4885TIP3    H236071   1.207   1.685   4.164 -0.8362  0.9536 -3.2187
 4886TIP3   OH236072   3.633   0.524  14.890  0.0745 -0.0881 -0.0559
 4886TIP3    H136073   3.555   0.559  14.847  0.2666  1.2264  0.6139
 4886TIP3    H236074   3.638   0.433  14.861 -1.6282 -0.1603 -0.2172
 4887TIP3   OH236075   1.577   1.451  13.210 -0.2349  0.2641 -0.4391
 4887TIP3    H136076   1.574   1.453  13.114 -2.7274 -0.0638 -0.4337
 4887TIP3    H236077   1.485   1.455  13.237  0.4482  2.9816  2.0229
 4888TIP3   OH236078   1.366   1.515   5.164 -0.0482  0.0011 -0.0823
 4888TIP3    H136079   1.358   1.561   5.080  1.5991  1.5926  0.5526
 4888TIP3    H236080   1.277   1.517   5.201 -0.3394  1.3248 -0.7921
 4889TIP3   OH236081   3.366   1.354   3.205 -0.3217 -0.6097 -0.8462
 4889TIP3    H136082   3.373   1.434   3.257 -0.6526 -0.0965 -1.5799
 4889TIP3    H236083   3.280   1.359   3.163 -0.3817 -1.3877 -0.8420
 4890TIP3   OH236084   2.265   3.726  14.846 -0.5138  0.0301 -0.2510
 4890TIP3    H136085   2.207   3.776  14.789 -0.4633 -1.9046 -2.0891
 4890TIP3    H236086   2.351   3.767  14.835 -0.9533  1.1566  0.3397
 4891TIP3   OH236087   6.582   1.160   0.074 -0.6591 -0.3620 -0.2319
 4891TIP3    H136088   6.549   1.093   0.134 -0.3070 -0.6288 -0.3283
 4891TIP3    H236089   6.609   1.111  -0.004 -1.5261  0.0338 -0.7936
 4892TIP3   OH236090   1.981   0.651  14.604  0.1224 -0.0492 -0.1447
 4892TIP3    H136091   2.049   0.672  14.668  0.1243 -0.6380  0.0577
 4892TIP3    H236092   1.975   0.555  14.606 -0.9578  0.0051  0.1021
 4893TIP3   OH236093   1.801   0.764  14.197 -0.0223  0.1041  0.2637
 4893TIP3    H136094   1.841   0.761  14.110 -0.1416  3.1441 -0.0090
 4893TIP3    H236095   1.862   0.816  14.249 -1.1637  0.4755  1.2714
 4894TIP3   OH236096   6.361   5.302   5.801  0.3752 -0.6050  0.0141
 4894TIP3    H136097   6.358   5.393   5.772  1.7919 -1.0281 -1.6222
 4894TIP3    H236098   6.442   5.296   5.852  0.1223 -0.8845  0.3897
 4895TIP3   OH236099   5.083   6.575  13.008  0.1618  0.2150 -0.0277
 4895TIP3    H136100   5.023   6.629  12.955 -0.8594  1.3306  2.1527
 4895TIP3    H236101   5.027   6.517  13.058  0.9559  0.4103  1.1426
 4896TIP3   OH236102   0.340   0.794   0.671 -0.8003 -0.3804 -0.4491
 4896TIP3    H136103   0.405   0.747   0.724 -0.1903  0.2708 -0.6063
 4896TIP3    H236104   0.383   0.808   0.586 -0.1094  2.2743  0.2291
 4897TIP3   OH236105   3.024   0.650   1.786  0.2691 -0.0850  0.5286
 4897TIP3    H136106   2.971   0.580   1.825  0.3518  0.4936  1.7344
 4897TIP3    H236107   3.022   0.632   1.692  0.0222 -1.5211  0.7785
 4898TIP3   OH236108   2.916   0.717   2.561  0.1210 -0.1311 -0.4298
 4898TIP3    H136109   2.935   0.632   2.522 -1.3368  0.2742 -2.1451
 4898TIP3    H236110   2.893   0.773   2.487 -1.1219  1.1429  0.8448
 4899TIP3   OH236111   4.600   5.442  13.387  0.3491  0.1687 -0.1285
 4899TIP3    H136112   4.513   5.438  13.348 -0.5312  0.8182  1.6947
 4899TIP3    H236113   4.655   5.393  13.326 -0.8899  1.2893 -2.2708
 4900TIP3   OH236114   2.368   2.736   2.956  0.6932  0.2589 -0.2316
 4900TIP3    H136115   2.450   2.686   2.962  0.8255  0.6454  2.6190
 4900TIP3    H236116   2.395   2.822   2.925  1.1928  0.0502 -0.3960
 4901TIP3   OH236117   1.578   5.090   5.478  0.3066  0.2357 -0.0153
 4901TIP3    H136118   1.577   5.184   5.495  0.8743  0.7279 -2.3618
 4901TIP3    H236119   1.488   5.070   5.450  0.2519  0.1174  0.2397
 4902TIP3   OH236120   0.754   5.982  11.369 -0.2381 -0.2913 -0.0443
 4902TIP3    H136121   0.713   6.066  11.344 -1.8596 -0.8942  0.4598
 4902TIP3    H236122   0.775   5.993  11.462  0.1400 -0.2189 -0.1389
 4903TIP3   OH236123   6.102   5.576  16.267  0.4831 -0.7488 -0.2014
 4903TIP3    H136124   6.136   5.521  16.198  0.3382 -0.3286 -0.6164
 4903TIP3    H236125   6.024   5.530  16.299 -0.5054 -0.0882 -1.5602
 4904TIP3   OH236126   4.959   3.251  14.688  0.4168  0.4566  0.0732
 4904TIP3    H136127   4.867   3.264  14.713 -0.3328 -1.9748 -1.0831
 4904TIP3    H236128   4.967   3.291  14.602 -0.5429 -2.0843 -1.2982
 4905TIP3   OH236129   0.245   3.017   5.596  0.5556 -0.2561 -0.4887
 4905TIP3    H136130   0.333   3.054   5.595  0.0767  0.8980 -0.6468
 4905TIP3    H236131   0.219   3.011   5.504 -0.6534  2.2167 -0.3921
 4906TIP3   OH236132   5.296   2.130   1.163  0.3445  0.0129  0.1289
 4906TIP3    H136133   5.272   2.074   1.237 -2.0456 -1.7644 -1.7996
 4906TIP3    H236134   5.291   2.219   1.197 -1.4586 -0.7018  1.9525
 4907TIP3   OH236135   0.914   1.090   5.604  0.0725  0.2768 -0.4312
 4907TIP3    H136136   0.906   1.077   5.509 -2.0645 -0.0074 -0.2671
 4907TIP3    H236137   0.940   1.182   5.613 -0.4661  0.5303 -1.2825
 4908TIP3   OH236138   0.872   5.226  11.466 -0.1735 -0.1389 -0.2734
 4908TIP3    H136139   0.876   5.301  11.408 -0.0785  1.1867  1.3733
 4908TIP3    H236140   0.960   5.219  11.503 -0.2690 -0.8694 -0.1573
 4909TIP3   OH236141   4.620   1.945   0.541 -0.2280  0.2383  0.0190
 4909TIP3    H136142   4.604   2.033   0.576  2.5077  0.8167  0.0923
 4909TIP3    H236143   4.626   1.889   0.619  0.1592  0.4207  0.1244
 4910TIP3   OH236144   1.236   0.445  15.103 -0.2428 -0.0894  0.6272
 4910TIP3    H136145   1.147   0.414  15.118 -0.6196  1.1979  1.2741
 4910TIP3    H236146   1.277   0.444  15.189  0.2829 -0.4191  0.3764
 4911TIP3   OH236147   2.002   0.156   5.490  0.2761  0.0175 -0.0140
 4911TIP3    H136148   2.078   0.098   5.481 -0.9603 -1.4209 -1.8847
 4911TIP3    H236149   1.938   0.121   5.429 -0.8979  2.8702 -0.5662
 4912TIP3   OH236150   0.041   5.219   4.420 -0.5869 -0.0180 -0.2092
 4912TIP3    H136151  -0.004   5.229   4.504  0.3707  0.5436  0.2608
 4912TIP3    H236152  -0.017   5.260   4.356 -0.9956  0.1869  0.2873
 4913TIP3   OH236153   5.102   1.881   4.073 -0.1223 -0.4894  0.2146
 4913TIP3    H136154   5.041   1.945   4.111  0.4660  0.7895 -0.9270
 4913TIP3    H236155   5.050   1.836   4.005 -0.1255 -0.2165  0.0362
 4914TIP3   OH236156   3.451   0.733  12.203 -0.4002  0.0069  0.4844
 4914TIP3    H136157   3.490   0.779  12.277  1.0869 -1.5264  0.7275
 4914TIP3    H236158   3.512   0.661  12.185 -1.1391 -0.1491 -1.7128
 4915TIP3   OH236159   0.557   6.233  14.049 -0.0663 -0.4134  0.5386
 4915TIP3    H136160   0.526   6.144  14.036 -0.1113 -0.5418  1.5024
 4915TIP3    H236161   0.607   6.252  13.969 -1.8083 -0.5254 -0.6502
 4916TIP3   OH236162   4.994   3.022   3.328 -0.0269 -0.4162  0.7113
 4916TIP3    H136163   4.916   3.069   3.301  1.7595  1.9164 -0.7939
 4916TIP3    H236164   5.011   2.961   3.257  1.6586  1.9367 -1.0656
 4917TIP3   OH236165   1.829   5.782   0.271  0.4261 -0.1821  0.8022
 4917TIP3    H136166   1.823   5.853   0.335 -0.1415 -0.8883  1.5507
 4917TIP3    H236167   1.751   5.729   0.286  0.2336 -0.3222 -0.5517
 4918TIP3   OH236168   0.381   4.332  14.398 -0.1414  0.0646 -0.1706
 4918TIP3    H136169   0.294   4.349  14.362 -1.1522 -0.2295  1.9248
 4918TIP3    H236170   0.388   4.236  14.399 -0.4636  0.0321  1.0328
 4919TIP3   OH236171   5.598   4.694  12.551  0.0748  0.0670  0.6089
 4919TIP3    H136172   5.503   4.693  12.538  0.2084  1.3594 -0.7656
 4919TIP3    H236173   5.617   4.782  12.585  0.8792  0.2203 -0.1972
 4920TIP3   OH236174   5.280   3.913  16.084  0.3264  0.3303 -0.2179
 4920TIP3    H136175   5.285   3.918  16.180 -0.7833  1.9849 -0.2163
 4920TIP3    H236176   5.250   4.000  16.057 -2.0868 -0.9285 -1.8683
 4921TIP3   OH236177   4.900   5.230   1.844 -0.3848 -0.0596 -0.0444
 4921TIP3    H136178   4.844   5.276   1.906  0.4584 -0.5410  1.1030
 4921TIP3    H236179   4.956   5.174   1.898  1.2123  0.4137 -1.1201
 4922TIP3   OH236180   5.707   6.294   1.475 -0.4169 -0.6128  0.3868
 4922TIP3    H136181   5.629   6.307   1.530 -1.3849 -0.9451 -0.8428
 4922TIP3    H236182   5.685   6.218   1.421  0.5926 -0.4395 -0.2982
 4923TIP3   OH236183   1.601   5.119   4.369  0.0187  0.2820  0.3081
 4923TIP3    H136184   1.588   5.195   4.425 -0.7931  0.1401  0.3270
 4923TIP3    H236185   1.625   5.049   4.429 -2.1127 -0.2000  0.7028
 4924TIP3   OH236186   3.315   5.075  14.827 -0.1113 -0.6244 -0.0098
 4924TIP3    H136187   3.385   5.126  14.787 -0.1638  0.1942  0.9249
 4924TIP3    H236188   3.246   5.073  14.760  0.0086  0.2806 -0.1743
 4925TIP3   OH236189   6.559   4.661   0.423 -0.7872 -0.3808 -0.3825
 4925TIP3    H136190   6.641   4.691   0.383 -0.3475  0.2710  0.9565
 4925TIP3    H236191   6.511   4.620   0.351  0.6407 -0.6377 -1.2267
 4926TIP3   OH236192   5.761   1.130  16.780  0.2661 -0.0357  0.5385
 4926TIP3    H136193   5.844   1.174  16.796 -0.6257  2.1251 -0.4186
 4926TIP3    H236194   5.695   1.192  16.810 -1.0457 -1.3980  0.5932
 4927TIP3   OH236195   3.196   5.562   0.084 -0.6107 -0.4560 -0.2752
 4927TIP3    H136196   3.133   5.523   0.023  0.7642 -0.7984 -1.5327
 4927TIP3    H236197   3.144   5.620   0.139 -2.0905 -1.1023 -0.9486
 4928TIP3   OH236198   4.630   4.179  12.759  0.3929  0.0917  0.0367
 4928TIP3    H136199   4.566   4.222  12.702  0.1050  0.6909  0.7991
 4928TIP3    H236200   4.688   4.133  12.699 -0.7334 -0.4554 -0.6876
 4929TIP3   OH236201   1.122   6.077  14.445 -0.5132 -0.0942  0.0544
 4929TIP3    H136202   1.093   6.140  14.379  1.6978  0.5460 -0.3852
 4929TIP3    H236203   1.214   6.099  14.460 -0.0147 -2.4362  0.8198
 4930TIP3   OH236204   1.382   1.393  12.841  0.4184 -0.0945  0.1867
 4930TIP3    H136205   1.453   1.358  12.895  2.4285  0.5386 -1.8923
 4930TIP3    H236206   1.357   1.475  12.884 -0.6673 -1.3857  2.1616
 4931TIP3   OH236207   1.972   0.222   3.506  0.8064  0.1975 -0.7237
 4931TIP3    H136208   1.952   0.130   3.489  1.1074  0.0042 -0.0520
 4931TIP3    H236209   1.927   0.269   3.436 -0.3305 -0.3662 -0.3926
 4932TIP3   OH236210   5.431   0.133  15.094 -0.4027 -0.0237  0.1370
 4932TIP3    H136211   5.497   0.202  15.100 -2.0871  1.6351  0.7822
 4932TIP3    H236212   5.364   0.160  15.157 -1.4086 -1.9558 -0.0505
 4933TIP3   OH236213   0.431   1.922  17.001  0.0350 -0.3022 -0.0682
 4933TIP3    H136214   0.489   1.994  16.976  0.5887 -1.5528 -2.7241
 4933TIP3    H236215   0.386   1.954  17.079  0.3006  2.9127 -1.0619
 4934TIP3   OH236216   5.560   2.598   4.177  0.2207  0.1823  0.6765
 4934TIP3    H136217   5.564   2.503   4.170  0.9180  0.1754  1.0966
 4934TIP3    H236218   5.489   2.614   4.239 -1.2780  0.0185 -0.9448
 4935TIP3   OH236219   2.825   5.272  11.503 -0.6794  0.1678  0.5329
 4935TIP3    H136220   2.839   5.252  11.595  0.1030 -0.8160  0.2235
 4935TIP3    H236221   2.904   5.240  11.459 -1.3336 -0.0237 -0.5585
 4936TIP3   OH236222   5.835   1.468   6.317  0.0380 -0.0219 -0.3638
 4936TIP3    H136223   5.929   1.484   6.318  0.0292  0.0314  0.7333
 4936TIP3    H236224   5.800   1.528   6.383 -1.0017  1.2683 -1.9916
 4937TIP3   OH236225   3.891   2.143   4.282 -0.1096  0.3924  0.1164
 4937TIP3    H136226   3.901   2.082   4.355 -1.0856  1.4231  1.1487
 4937TIP3    H236227   3.882   2.229   4.323  0.5762  1.1765 -1.2756
 4938TIP3   OH236228   0.007   1.480   0.317  0.4246  0.1101 -0.2451
 4938TIP3    H136229   0.040   1.474   0.406 -0.6715  0.2788  0.1872
 4938TIP3    H236230  -0.065   1.544   0.322  0.1860 -0.0607 -1.1931
 4939TIP3   OH236231   0.200   6.591   5.184  0.1405  0.6245 -0.2207
 4939TIP3    H136232   0.153   6.550   5.258 -0.3045  2.0019  0.2953
 4939TIP3    H236233   0.185   6.531   5.111 -1.2779  0.3058  0.2797
 4940TIP3   OH236234   5.639   0.392   4.704 -0.4001 -0.2853  0.2300
 4940TIP3    H136235   5.681   0.339   4.636 -1.7037 -1.1100  0.0169
 4940TIP3    H236236   5.564   0.432   4.660 -0.4558  0.2989  0.8397
 4941TIP3   OH236237   5.988   5.570  12.625  0.3268  0.5062 -0.0773
 4941TIP3    H136238   6.061   5.628  12.603 -0.0683  1.0725  0.0699
 4941TIP3    H236239   5.914   5.605  12.575 -0.1294  0.6833  0.7011
 4942TIP3   OH236240   4.714   5.204   0.019 -0.7968 -0.3432  0.5497
 4942TIP3    H136241   4.650   5.137  -0.007 -0.9562  0.0697 -0.1590
 4942TIP3    H236242   4.666   5.287   0.012 -0.4576 -0.1101  0.9386
 4943TIP3   OH236243   5.493   5.057   3.838  0.8172 -0.8132  0.6077
 4943TIP3    H136244   5.468   5.111   3.764  2.1302  0.8342  1.3099
 4943TIP3    H236245   5.411   5.040   3.885  0.4976  1.6706  1.0679
 4944TIP3   OH236246   2.081   6.101   3.478  0.5398  0.0779  0.5275
 4944TIP3    H136247   2.049   6.039   3.543  0.1844 -1.0200 -0.6373
 4944TIP3    H236248   2.172   6.116   3.502  0.3994 -0.2736  1.3042
 4945TIP3   OH236249   2.468   5.957   4.398 -0.2960 -0.3866 -0.1252
 4945TIP3    H136250   2.406   5.971   4.327  1.3540  2.1497 -1.2124
 4945TIP3    H236251   2.502   6.044   4.418  1.2929 -1.3803  1.9379
 4946TIP3   OH236252   0.573   6.557   3.942  0.7605 -0.0689  0.3855
 4946TIP3    H136253   0.503   6.510   3.987  1.3564 -1.9234 -0.5067
 4946TIP3    H236254   0.565   6.647   3.972 -2.1888 -0.1387  0.1029
 4947TIP3   OH236255   4.561   1.995  11.082 -0.2511  0.0607  0.2501
 4947TIP3    H136256   4.578   1.907  11.048  0.4179  0.4667 -0.5011
 4947TIP3    H236257   4.488   2.027  11.029  0.8267  0.7146 -0.8945
 4948TIP3   OH236258   6.361   2.139  11.219 -0.3458  0.1505  0.7194
 4948TIP3    H136259   6.402   2.148  11.133  3.0300 -1.7350  1.9587
 4948TIP3    H236260   6.353   2.229  11.251 -0.7191  0.8094 -1.0750
 4949TIP3   OH236261   5.891   3.233  11.564  0.1281  0.1757  0.5907
 4949TIP3    H136262   5.976   3.264  11.535  0.6043  0.0374  1.7946
 4949TIP3    H236263   5.907   3.192  11.649 -1.0587 -0.2748  0.6281
 4950TIP3   OH236264   3.982   3.575  13.741 -0.0426  0.1388 -0.3083
 4950TIP3    H136265   4.004   3.578  13.834  0.3410  0.5990 -0.4117
 4950TIP3    H236266   3.925   3.651  13.728 -1.9907 -1.1599  0.0126
 4951TIP3   OH236267   5.645   4.728   5.140  0.1656  0.2615 -0.0060
 4951TIP3    H136268   5.584   4.791   5.177 -2.1557 -1.6302 -0.3597
 4951TIP3    H236269   5.721   4.731   5.197 -1.1519  1.1743  1.7915
 4952TIP3   OH236270   5.482   6.769   2.982  0.0650 -0.3380 -0.0513
 4952TIP3    H136271   5.424   6.842   2.959 -0.5442 -0.9603 -0.5236
 4952TIP3    H236272   5.424   6.694   2.991  0.8941 -1.2476 -1.7262
 4953TIP3   OH236273   2.804   3.836  16.145 -0.1950 -0.3915 -0.2446
 4953TIP3    H136274   2.865   3.850  16.218 -0.2372 -1.2838 -0.0309
 4953TIP3    H236275   2.819   3.746  16.118 -1.8798 -0.8469  0.2312
 4954TIP3   OH236276   1.476   3.756   2.505 -0.3025 -0.6112  0.5987
 4954TIP3    H136277   1.396   3.809   2.507 -0.6788 -1.1482  0.2951
 4954TIP3    H236278   1.524   3.787   2.428 -0.6704 -0.9191  0.2420
 4955TIP3   OH236279   3.306   5.887  11.772 -0.2779 -0.6174  0.2086
 4955TIP3    H136280   3.212   5.882  11.759 -0.4273 -1.4496  1.4128
 4955TIP3    H236281   3.344   5.841  11.697 -0.8559 -0.9434  0.1151
 4956TIP3   OH236282   1.306   5.066  11.544 -0.2630 -0.2313  0.0411
 4956TIP3    H136283   1.282   5.028  11.459 -0.0299 -0.0090 -0.1250
 4956TIP3    H236284   1.393   5.032  11.562 -0.7570 -1.1596  0.7227
 4957TIP3   OH236285   0.178   1.670   2.249 -0.1150 -0.8830 -0.0397
 4957TIP3    H136286   0.150   1.718   2.171 -1.3297 -1.6782 -0.1198
 4957TIP3    H236287   0.111   1.603   2.261 -1.8973  1.2546  3.6305
 4958TIP3   OH236288   1.124   4.232  16.736 -0.3182  1.0755 -0.3383
 4958TIP3    H136289   1.045   4.247  16.684 -0.7883 -0.7921 -0.2380
 4958TIP3    H236290   1.147   4.141  16.719  2.5736  1.8802 -1.3063
 4959TIP3   OH236291   3.643   4.875   3.066  0.0073 -0.5729 -0.0285
 4959TIP3    H136292   3.636   4.796   3.119  0.9570 -0.8733 -0.3310
 4959TIP3    H236293   3.623   4.846   2.977 -0.7639 -0.2360  0.0280
 4960TIP3   OH236294   5.557   1.782  14.383 -0.7391  0.2623 -0.4308
 4960TIP3    H136295   5.510   1.865  14.381  0.6645  1.0914 -2.9154
 4960TIP3    H236296   5.490   1.716  14.366 -1.6696  0.9820  0.3452
 4961TIP3   OH236297   3.935   6.127   4.270 -0.1377  0.5289 -0.4929
 4961TIP3    H136298   4.001   6.178   4.224 -1.2501  1.8495 -0.7046
 4961TIP3    H236299   3.852   6.168   4.245 -0.9921 -0.7120  0.2144
 4962TIP3   OH236300   1.914   1.488   2.443 -0.1493  0.3427 -0.3792
 4962TIP3    H136301   1.933   1.395   2.452  0.8746  0.6778  1.5304
 4962TIP3    H236302   1.832   1.500   2.491 -0.7685  0.2989 -1.3998
 4963TIP3   OH236303   1.191   1.391  11.219  0.0765 -0.0003  0.1926
 4963TIP3    H136304   1.112   1.409  11.168  0.5255  0.3268 -0.4030
 4963TIP3    H236305   1.233   1.317  11.175  1.4318  1.4439 -1.0727
 4964TIP3   OH236306   2.507   0.596   5.891 -0.1993  0.2611  0.5696
 4964TIP3    H136307   2.425   0.626   5.852 -0.5696 -0.0641  1.0748
 4964TIP3    H236308   2.521   0.655   5.965 -0.5370 -0.3338  1.1155
 4965TIP3   OH236309   2.818   2.979   2.940 -0.2802 -0.0977  0.5689
 4965TIP3    H136310   2.830   3.067   2.904 -1.2240  0.6849  2.0883
 4965TIP3    H236311   2.734   2.983   2.986 -0.6298 -1.9748  0.1701
 4966TIP3   OH236312   2.352   1.198   0.605  0.3862 -0.6929  0.1399
 4966TIP3    H136313   2.348   1.293   0.616  1.6026 -0.6197  0.0924
 4966TIP3    H236314   2.397   1.186   0.522 -2.1532 -1.3136 -1.2546
 4967TIP3   OH236315   0.808   1.043  10.472 -0.0806  0.1008 -0.3656
 4967TIP3    H136316   0.841   0.976  10.532 -1.3815 -0.6368 -0.4427
 4967TIP3    H236317   0.871   1.115  10.480  1.2245 -1.0227 -0.1074
 4968TIP3   OH236318   6.594   6.079   0.035 -0.5475  0.4290 -0.3287
 4968TIP3    H136319   6.610   6.021   0.110  1.4056  0.5176 -0.6343
 4968TIP3    H236320   6.613   6.166   0.068  1.6436  0.3511 -1.2178
 4969TIP3   OH236321   4.202   4.277  10.903  0.0002  0.6842 -0.5266
 4969TIP3    H136322   4.107   4.289  10.904 -0.1544 -0.4495 -0.3840
 4969TIP3    H236323   4.233   4.341  10.839 -0.8572  1.0514 -0.5936
 4970TIP3   OH236324   3.351   4.499  12.641  0.2821 -0.3874  0.0518
 4970TIP3    H136325   3.415   4.439  12.604  0.7283 -0.6077  1.1236
 4970TIP3    H236326   3.288   4.442  12.685  0.9174 -0.0841  1.4030
 4971TIP3   OH236327   3.266   6.665   4.306 -0.2164  0.0751  0.4990
 4971TIP3    H136328   3.329   6.735   4.289 -1.2206  1.0775  0.8100
 4971TIP3    H236329   3.266   6.655   4.401 -0.3624 -0.0917  0.4830
 4972TIP3   OH236330   1.459   3.683  11.157  0.7881  0.1784 -0.0588
 4972TIP3    H136331   1.457   3.658  11.065  0.0601  0.8003 -0.2279
 4972TIP3    H236332   1.489   3.774  11.156 -0.1333  0.4949  0.2296
 4973TIP3   OH236333   4.455   1.759   1.688  0.1967 -0.2540  0.4721
 4973TIP3    H136334   4.411   1.710   1.619 -0.3572  0.2470  0.4543
 4973TIP3    H236335   4.548   1.756   1.665  0.1548 -1.1696  0.4042
 4974TIP3   OH236336   3.714   4.841  15.981 -0.3607 -0.4306  0.2286
 4974TIP3    H136337   3.707   4.873  15.891  0.8090  1.4378  0.7503
 4974TIP3    H236338   3.623   4.827  16.009 -0.8332  0.8580 -0.6102
 4975TIP3   OH236339   0.687   0.304   2.139 -0.0374  0.0815 -0.6484
 4975TIP3    H136340   0.739   0.368   2.090  0.1403  0.8465  0.4930
 4975TIP3    H236341   0.728   0.300   2.225  0.4570 -2.2353 -0.9235
 4976TIP3   OH236342   4.523   5.191   3.923  0.1434 -0.3230  0.3822
 4976TIP3    H136343   4.589   5.168   3.988 -0.2790 -0.3131  0.8127
 4976TIP3    H236344   4.439   5.173   3.965 -0.1242 -1.0816 -0.4258
 4977TIP3   OH236345   4.095   5.089   2.751  0.0546 -0.2382 -0.2686
 4977TIP3    H136346   4.054   5.077   2.837  0.8909 -0.0264  0.1738
 4977TIP3    H236347   4.026   5.124   2.695 -1.3739 -3.1609 -0.5210
 4978TIP3   OH236348   4.770   2.898   4.956  0.3578 -0.1934 -0.3299
 4978TIP3    H136349   4.739   2.967   5.014 -1.6075 -1.2180 -0.0515
 4978TIP3    H236350   4.821   2.943   4.889  0.2744  1.3451  0.5986
 4979TIP3   OH236351   4.362   0.589  16.711 -0.4216 -0.5787  0.2771
 4979TIP3    H136352   4.314   0.651  16.766 -0.7302 -1.1765  0.7022
 4979TIP3    H236353   4.300   0.564  16.643 -0.0504  0.1349 -0.3353
 4980TIP3   OH236354   1.988   3.965   5.249  0.1671 -0.1769  0.3654
 4980TIP3    H136355   1.985   4.060   5.263  0.1669  0.2096 -1.8113
 4980TIP3    H236356   1.934   3.951   5.171  3.6915 -1.2921 -2.1764
 4981TIP3   OH236357   0.065   4.452   1.373 -0.5449  0.1525 -0.1597
 4981TIP3    H136358   0.007   4.395   1.324 -0.2346  1.2765 -1.9488
 4981TIP3    H236359   0.007   4.514   1.417 -0.8143 -0.7062  0.7245
 4982TIP3   OH236360   0.411   5.846  15.757  0.2393 -0.2123  0.0478
 4982TIP3    H136361   0.478   5.796  15.711  1.0993  1.6727 -0.8453
 4982TIP3    H236362   0.335   5.787  15.759  0.0990 -0.4510 -3.9243
 4983TIP3   OH236363   4.564   5.791   5.570 -0.2990 -0.3455 -0.1049
 4983TIP3    H136364   4.640   5.829   5.525 -0.5602  2.1527  1.3407
 4983TIP3    H236365   4.601   5.738   5.640  0.2904  2.0598  1.5638
 4984TIP3   OH236366   5.530   5.409  15.184  0.0969 -0.2637 -0.0164
 4984TIP3    H136367   5.602   5.385  15.242 -0.0568 -1.0352 -0.1223
 4984TIP3    H236368   5.557   5.375  15.098  0.3845  0.9861 -0.4316
 4985TIP3   OH236369   1.111   2.361   0.925  0.1672 -0.2601 -0.7185
 4985TIP3    H136370   1.163   2.326   0.853  2.3284 -0.5366  0.8938
 4985TIP3    H236371   1.115   2.456   0.914 -3.0923 -0.2201 -3.2849
 4986TIP3   OH236372   0.498   2.586   2.500  0.0160  0.3465 -0.0268
 4986TIP3    H136373   0.488   2.601   2.594 -0.6740  1.5986 -0.2674
 4986TIP3    H236374   0.542   2.664   2.468  0.2595 -0.0779 -0.7513
 4987TIP3   OH236375   4.363   6.777  11.421 -0.3882 -0.5474 -0.2345
 4987TIP3    H136376   4.440   6.789  11.365 -1.1276 -1.9288 -1.6500
 4987TIP3    H236377   4.321   6.863  11.423  0.2631 -0.2016 -0.8730
 4988TIP3   OH236378   5.618   1.863  12.365  0.4099  0.2055 -0.8339
 4988TIP3    H136379   5.703   1.819  12.353  0.9026  1.5017 -2.4353
 4988TIP3    H236380   5.636   1.955  12.349 -1.4532  0.4104 -2.1599
 4989TIP3   OH236381   5.394   2.025   4.411 -0.5498 -0.5101  0.3081
 4989TIP3    H136382   5.468   2.073   4.448  0.1816 -0.5613 -1.0196
 4989TIP3    H236383   5.431   1.942   4.381 -1.2704 -0.8009  0.1982
 4990TIP3   OH236384   6.045   2.132  15.444  0.3882  0.0571 -0.0917
 4990TIP3    H136385   6.055   2.088  15.529  0.0371  1.2531  0.5983
 4990TIP3    H236386   5.971   2.087  15.403 -0.2359  0.2557  0.7797
 4991TIP3   OH236387   4.718   3.280  16.912  0.2068  0.3830 -0.1583
 4991TIP3    H136388   4.800   3.250  16.951  0.2289  0.2959 -0.2736
 4991TIP3    H236389   4.745   3.334  16.837  0.1691  0.7578  0.0940
 4992TIP3   OH236390   2.443   0.574  11.840  0.3005 -0.0367  0.3317
 4992TIP3    H136391   2.433   0.542  11.750 -1.7004  2.3822 -0.4222
 4992TIP3    H236392   2.500   0.651  11.831  1.8854 -1.0102  1.5199
 4993TIP3   OH236393   0.482   6.383   5.177 -0.2624  0.7199 -0.5890
 4993TIP3    H136394   0.466   6.476   5.196  1.1108  1.6871 -3.4862
 4993TIP3    H236395   0.530   6.351   5.253 -0.9654  2.3030  0.5949
 4994TIP3   OH236396   6.431   1.038  13.162  0.0561  0.2811  0.3901
 4994TIP3    H136397   6.422   0.987  13.242 -3.3992  0.7995  0.4755
 4994TIP3    H236398   6.405   1.127  13.186 -1.5658  0.3453 -1.3099
 4995TIP3   OH236399   5.052   6.026  16.907  0.2571 -0.0884 -0.1774
 4995TIP3    H136400   5.009   6.090  16.964 -0.8657 -0.5878 -0.4435
 4995TIP3    H236401   5.103   5.972  16.967  0.2220  0.2798  0.1940
 4996TIP3   OH236402   1.083   1.897   4.765  0.3391 -0.1691 -0.2284
 4996TIP3    H136403   1.120   1.928   4.848 -0.2738  0.7830 -0.2919
 4996TIP3    H236404   1.149   1.922   4.699  0.4907 -0.2645 -0.1144
 4997TIP3   OH236405   2.816   0.214   6.658  0.2468  0.4287 -0.3460
 4997TIP3    H136406   2.744   0.159   6.687  0.6568  0.1800  0.2232
 4997TIP3    H236407   2.775   0.282   6.605 -0.0925 -1.6100 -2.9176
 4998TIP3   OH236408   6.355   3.130  12.065  0.4848 -0.2761 -0.1009
 4998TIP3    H136409   6.398   3.176  11.993  0.5969 -2.5222 -1.5680
 4998TIP3    H236410   6.288   3.191  12.095  0.4615  0.7665 -2.0877
 4999TIP3   OH236411   4.180   6.430  13.767  0.1867 -0.0502  0.4937
 4999TIP3    H136412   4.161   6.338  13.788 -0.2495 -0.0092  0.2845
 4999TIP3    H236413   4.272   6.441  13.789  0.0287 -0.3179  1.3069
 5000TIP3   OH236414   0.296   3.900   4.433 -0.6967  0.6352 -0.8654
 5000TIP3    H136415   0.326   3.985   4.466 -1.7366 -0.7703  4.7901
 5000TIP3    H236416   0.212   3.919   4.393 -0.6660  2.3640 -0.2119
 5001TIP3   OH236417   1.107   4.186  14.429 -0.8225  0.0951  0.2245
 5001TIP3    H136418   1.104   4.207  14.523  0.7698 -0.6321  0.4797
 5001TIP3    H236419   1.174   4.118  14.423  0.6334  1.5995 -1.6928
 5002TIP3   OH236420   5.216   5.828   0.098 -0.2047  0.4287 -0.2309
 5002TIP3    H136421   5.284   5.895   0.106  1.5658 -1.2514 -0.4819
 5002TIP3    H236422   5.206   5.816   0.003  0.8070 -0.8779 -0.1979
 5003TIP3   OH236423   3.398   5.572  11.732 -0.0605 -0.0835 -0.5057
 5003TIP3    H136424   3.482   5.584  11.688  1.0723 -2.1625  0.9063
 5003TIP3    H236425   3.419   5.579  11.825 -1.3673 -0.9462 -0.1227
 5004TIP3   OH236426   5.906   6.751   5.433  0.2765 -0.3922  0.3290
 5004TIP3    H136427   5.840   6.760   5.365  1.1143 -0.7995 -0.5738
 5004TIP3    H236428   5.862   6.705   5.504 -0.5380 -0.2133 -0.0488
 5005TIP3   OH236429   5.235   5.430   2.424  0.0432  0.4012  0.1576
 5005TIP3    H136430   5.285   5.444   2.343 -1.0975 -1.9075 -1.0656
 5005TIP3    H236431   5.258   5.504   2.480  2.1176  1.2474 -1.6557
 5006TIP3   OH236432   6.779   4.765  10.886 -0.2247 -0.1900 -0.2726
 5006TIP3    H136433   6.697   4.744  10.842 -0.1022  0.3216 -0.7629
 5006TIP3    H236434   6.804   4.850  10.851  1.1653 -0.8990 -1.0917
 5007TIP3   OH236435   0.629   1.094  15.786 -0.1542 -0.7487 -0.3918
 5007TIP3    H136436   0.662   1.025  15.728  2.1597 -0.0810  0.0320
 5007TIP3    H236437   0.645   1.062  15.874 -0.7607 -0.4434 -0.1645
 5008TIP3   OH236438   4.287   3.240   1.789  0.1972 -0.1328  0.0345
 5008TIP3    H136439   4.239   3.320   1.807  0.4898  0.0617 -0.0385
 5008TIP3    H236440   4.235   3.196   1.721 -0.9996 -0.9627  1.4439
 5009TIP3   OH236441   2.022   4.736  11.277 -0.0665 -0.1145  0.1609
 5009TIP3    H136442   2.044   4.825  11.252  1.1478 -0.5886 -0.5295
 5009TIP3    H236443   2.106   4.693  11.289 -0.5413 -0.3064  3.8547
 5010TIP3   OH236444   2.961   5.417  14.909  0.0616 -0.0014 -0.4506
 5010TIP3    H136445   2.995   5.428  14.998 -1.2547 -1.8294  0.3312
 5010TIP3    H236446   2.947   5.506  14.878 -0.8149  0.7033  1.7488
 5011TIP3   OH236447   4.199   5.321   5.284  0.0660 -0.1844 -0.5161
 5011TIP3    H136448   4.157   5.344   5.202 -1.2438 -1.7825 -0.3332
 5011TIP3    H236449   4.219   5.228   5.276  2.6889  0.2439 -0.1746
 5012TIP3   OH236450   0.125   4.156  14.664 -1.2812  0.8016  0.5269
 5012TIP3    H136451   0.075   4.205  14.730 -0.7588  1.0410  0.7463
 5012TIP3    H236452   0.214   4.155  14.698 -1.6870 -2.4645  1.8339
 5013TIP3   OH236453   0.538   5.110  10.852  0.3827  0.1779  0.2337
 5013TIP3    H136454   0.520   5.183  10.793  0.0550  0.8829  1.1637
 5013TIP3    H236455   0.461   5.054  10.846  0.9649 -0.5150 -1.0616
 5014TIP3   OH236456   3.808   4.943  16.305 -0.3638  0.0619  0.0768
 5014TIP3    H136457   3.840   4.857  16.277  0.6118  0.9134 -1.6223
 5014TIP3    H236458   3.734   4.924  16.362 -0.9848 -1.9118 -1.2769
 5015TIP3   OH236459   5.501   1.758  12.034 -0.1975 -0.3259 -0.1946
 5015TIP3    H136460   5.498   1.723  12.123 -1.4757 -0.0344 -0.0914
 5015TIP3    H236461   5.594   1.766  12.014  0.1646  0.9140  1.6543
 5016TIP3   OH236462   4.721   0.099   3.342  0.0028 -0.4154 -0.7694
 5016TIP3    H136463   4.773   0.169   3.302  1.3670 -0.7155  0.3812
 5016TIP3    H236464   4.715   0.032   3.273 -1.0284  0.6603 -1.7604
 5017TIP3   OH236465   6.105   5.825  11.552  0.3739  0.0350 -0.1044
 5017TIP3    H136466   6.174   5.761  11.540  3.1033  2.7012  0.1640
 5017TIP3    H236467   6.131   5.874  11.630 -2.2223  0.7655  0.4243
 5018TIP3   OH236468   4.266   4.891   4.453 -0.2800 -0.1271  0.0192
 5018TIP3    H136469   4.274   4.847   4.369 -1.7925  1.1029 -0.8129
 5018TIP3    H236470   4.237   4.822   4.513  0.3910 -0.9186 -0.5401
 5019TIP3   OH236471   5.610   5.948   2.933 -0.2898 -0.1798 -0.1583
 5019TIP3    H136472   5.536   5.994   2.973  0.1127  1.1727 -0.9082
 5019TIP3    H236473   5.578   5.858   2.921 -0.9973 -0.2074  1.6054
 5020TIP3   OH236474   2.116   3.019   6.403  0.4662  0.3446 -0.2901
 5020TIP3    H136475   2.189   2.982   6.354  0.0732  0.9114 -1.3364
 5020TIP3    H236476   2.126   2.984   6.492 -0.1760 -2.6902 -1.3087
 5021TIP3   OH236477   4.848   2.364   6.022  0.1453  0.0282  0.1743
 5021TIP3    H136478   4.777   2.301   6.033  0.3725 -0.2979 -0.1839
 5021TIP3    H236479   4.824   2.438   6.077 -0.3384 -0.1924  0.2604
 5022TIP3   OH236480   5.609   5.395  14.085 -0.3847  0.3847  0.6358
 5022TIP3    H136481   5.614   5.375  13.991  0.0662 -1.2208  0.9652
 5022TIP3    H236482   5.519   5.424  14.099 -0.8678 -0.7043 -0.0736
 5023TIP3   OH236483   1.524   1.039  11.974  0.1590  0.0354  0.1254
 5023TIP3    H136484   1.499   1.037  11.882  2.1865 -0.8532 -0.4413
 5023TIP3    H236485   1.542   1.132  11.992  0.3411  0.1310 -0.5429
 5024TIP3   OH236486   4.775   1.446  12.176 -0.0927  0.4230 -0.6332
 5024TIP3    H136487   4.826   1.519  12.140  0.1140  0.9412  0.6686
 5024TIP3    H236488   4.763   1.468  12.268 -1.8595 -0.1539 -0.6898
 5025TIP3   OH236489   0.522   2.841  15.413  0.6775 -0.4544  0.0398
 5025TIP3    H136490   0.434   2.877  15.427  0.5186 -0.3603 -1.1019
 5025TIP3    H236491   0.539   2.855  15.319  2.2323  0.2550  0.3901
 5026TIP3   OH236492   2.779   2.297   4.864  0.0367 -0.6114 -0.6356
 5026TIP3    H136493   2.872   2.283   4.843  0.5178 -0.3021  1.1137
 5026TIP3    H236494   2.768   2.255   4.949 -1.0938  0.5458 -0.1996
 5027TIP3   OH236495   4.799   4.991  15.095 -0.2146 -0.9948  0.1237
 5027TIP3    H136496   4.771   4.997  15.004 -1.8994  0.3724  0.6556
 5027TIP3    H236497   4.763   5.070  15.136  4.1117  0.7759  1.0920
 5028TIP3   OH236498   5.526   1.558   2.574  0.2129 -0.0743  0.0852
 5028TIP3    H136499   5.431   1.563   2.588  0.4014 -0.3530  1.5803
 5028TIP3    H236500   5.549   1.468   2.597  0.8894  0.0587 -0.0505
 5029TIP3   OH236501   1.319   2.469  13.424 -0.9643  0.2253  0.5184
 5029TIP3    H136502   1.302   2.563  13.430  1.7215  0.8321 -0.0941
 5029TIP3    H236503   1.383   2.460  13.354 -0.6576 -2.0031  0.9911
 5030TIP3   OH236504   4.315   1.751   2.084  0.5975  0.1445  0.1183
 5030TIP3    H136505   4.306   1.696   2.162 -0.0467  0.0698 -0.0010
 5030TIP3    H236506   4.385   1.711   2.034 -0.3164 -0.9771 -0.2933
 5031TIP3   OH236507   3.725   6.361  12.182  0.3145  0.1404  0.5378
 5031TIP3    H136508   3.673   6.403  12.114  2.7618  1.0329 -0.9371
 5031TIP3    H236509   3.661   6.317  12.238 -1.9462  1.0041 -1.2021
 5032TIP3   OH236510   0.815   2.657  17.278  0.1196  0.1809  0.2009
 5032TIP3    H136511   0.786   2.741  17.314  0.0323  0.1866  0.1181
 5032TIP3    H236512   0.910   2.667  17.268  0.1713  0.1106  0.6090
 5033TIP3   OH236513   2.267   3.759   0.853 -0.1849  0.1272  0.2172
 5033TIP3    H136514   2.232   3.731   0.769  2.0358  0.9113 -1.0311
 5033TIP3    H236515   2.338   3.697   0.872  3.0934  3.0566 -1.3454
 5034TIP3   OH236516   0.086   6.518  11.531  0.4873  0.5224  0.3258
 5034TIP3    H136517   0.035   6.506  11.450 -1.0143 -1.6046  1.4750
 5034TIP3    H236518   0.177   6.510  11.503 -0.0331 -2.4392 -0.9600
 5035TIP3   OH236519   0.573   3.578   0.968 -0.3257 -0.3461 -0.3796
 5035TIP3    H136520   0.545   3.665   0.996 -0.3495 -1.2469  2.8350
 5035TIP3    H236521   0.655   3.562   1.015 -0.2183 -1.9754 -1.0382
 5036TIP3   OH236522   1.233   2.249  11.229  0.4030  0.0581  0.4244
 5036TIP3    H136523   1.257   2.260  11.321 -3.0092 -0.2122  1.5031
 5036TIP3    H236524   1.240   2.337  11.192  0.2223  0.4962  1.4008
 5037TIP3   OH236525   2.341   5.844  14.717 -0.4352 -0.5637 -0.3310
 5037TIP3    H136526   2.290   5.793  14.781  1.7924 -0.9627  1.2527
 5037TIP3    H236527   2.358   5.928  14.762  1.0729 -0.8094 -0.3801
 5038TIP3   OH236528   5.777   1.495  12.044 -0.0311 -0.0908 -0.4604
 5038TIP3    H136529   5.772   1.525  11.953  1.0627  1.1343 -0.1392
 5038TIP3    H236530   5.809   1.405  12.038 -2.0068 -0.7979 -1.3690
 5039TIP3   OH236531   0.308   1.984   3.365 -0.7066 -0.3921 -1.0488
 5039TIP3    H136532   0.331   2.021   3.450 -0.8303  1.1904 -1.6781
 5039TIP3    H236533   0.354   1.900   3.363  1.5115  0.7241 -0.4803
 5040TIP3   OH236534   5.559   4.048   1.835 -0.3595  0.0714  0.3235
 5040TIP3    H136535   5.561   4.073   1.927 -1.2328  0.4725  0.2461
 5040TIP3    H236536   5.507   4.116   1.793  0.3453  0.0944 -0.5327
 5041TIP3   OH236537   1.511   3.898  11.513  0.2998 -0.2272  0.4514
 5041TIP3    H136538   1.592   3.867  11.472 -0.2753 -0.2944 -0.6819
 5041TIP3    H236539   1.503   3.989  11.486 -1.4507 -0.9766 -1.9439
 5042TIP3   OH236540   0.352   6.048  13.542  0.0391 -0.3917  0.3554
 5042TIP3    H136541   0.296   6.122  13.520  1.6189  0.9372  0.6313
 5042TIP3    H236542   0.390   6.021  13.459 -1.1808 -1.5115  0.1131
 5043TIP3   OH236543   0.830   3.788  12.677 -0.0386  0.1437  0.1283
 5043TIP3    H136544   0.924   3.773  12.690 -0.1797 -1.0473 -0.1129
 5043TIP3    H236545   0.799   3.708  12.635 -0.9858  0.9184 -0.6894
 5044TIP3   OH236546   1.358   6.238   2.346 -0.4113  0.2502 -0.1681
 5044TIP3    H136547   1.378   6.147   2.367 -2.6694 -0.5875 -1.2751
 5044TIP3    H236548   1.415   6.260   2.273  0.1022 -0.2970  0.0686
 5045TIP3   OH236549   0.864   6.238   6.059  0.5697 -0.0744 -0.0526
 5045TIP3    H136550   0.895   6.149   6.043  0.6867  0.0211 -0.3812
 5045TIP3    H236551   0.796   6.229   6.126  0.3097 -0.4589 -0.3619
 5046TIP3   OH236552   2.659   1.620   2.692  0.2424 -0.0921  0.0876
 5046TIP3    H136553   2.616   1.663   2.618 -0.2638 -0.6299  0.0672
 5046TIP3    H236554   2.624   1.531   2.692 -0.5047  0.1728  1.5528
 5047TIP3   OH236555   2.249   3.461  14.949  0.2192 -0.8929  0.3534
 5047TIP3    H136556   2.312   3.411  14.897 -0.4552 -2.0883  0.6464
 5047TIP3    H236557   2.250   3.548  14.910  0.5275 -1.4588 -0.9688
 5048TIP3   OH236558   6.147   3.020   5.271  1.0212  0.7671  0.6507
 5048TIP3    H136559   6.162   3.038   5.364 -1.2909  0.5738  1.1000
 5048TIP3    H236560   6.120   3.104   5.235 -0.2737  0.3604  0.6487
 5049TIP3   OH236561   5.731   4.167  16.216 -0.4617  0.1971 -0.2644
 5049TIP3    H136562   5.735   4.092  16.276  0.2271 -0.7261 -1.4318
 5049TIP3    H236563   5.638   4.180  16.201 -0.7130  1.0601  1.7243
 5050TIP3   OH236564   2.626   3.105   1.573 -0.3582  0.1191 -1.0914
 5050TIP3    H136565   2.707   3.115   1.622 -0.6602 -1.5488 -0.1635
 5050TIP3    H236566   2.654   3.077   1.486  0.1047  0.8931 -1.1944
 5051TIP3   OH236567   4.619   3.834  13.070 -0.5772 -0.4613  0.3481
 5051TIP3    H136568   4.635   3.861  13.160 -0.3381 -0.3791  0.2805
 5051TIP3    H236569   4.570   3.906  13.031  1.4960  0.6803 -0.3243
 5052TIP3   OH236570   4.912   2.197   3.446  0.2504  0.2506  0.2440
 5052TIP3    H136571   4.959   2.280   3.436  0.0045  0.4915  1.0130
 5052TIP3    H236572   4.833   2.208   3.392  0.5213  0.2773 -0.1479
 5053TIP3   OH236573   3.480   6.310   4.664  0.2295  0.2151  0.3987
 5053TIP3    H136574   3.554   6.300   4.605 -0.4915 -0.8072 -0.3700
 5053TIP3    H236575   3.419   6.366   4.617  0.0689  0.2003  0.5873
 5054TIP3   OH236576   5.081   1.533  12.959 -0.5258  0.0673  0.3068
 5054TIP3    H136577   5.088   1.533  13.054  0.8718 -0.6203  0.2260
 5054TIP3    H236578   4.992   1.563  12.941 -1.5349 -1.8217  1.8864
 5055TIP3   OH236579   0.354   0.360  14.848 -0.5418 -0.7183  0.9919
 5055TIP3    H136580   0.441   0.342  14.815 -1.0059 -1.8615  0.3276
 5055TIP3    H236581   0.349   0.456  14.853  0.4911 -0.6180  0.3758
 5056TIP3   OH236582   6.487   3.935  11.459 -0.1816 -0.2748 -0.0443
 5056TIP3    H136583   6.537   3.887  11.393  1.0266 -0.0286  0.6642
 5056TIP3    H236584   6.538   4.014  11.477  0.4373 -1.1285  2.3953
 5057TIP3   OH236585   4.659   1.721   5.663 -0.7754 -0.2500  0.3896
 5057TIP3    H136586   4.628   1.638   5.627 -0.4414 -0.7574  1.2504
 5057TIP3    H236587   4.722   1.753   5.599  0.2385 -1.4193  0.7752
 5058TIP3   OH236588   6.539   1.364   5.521  0.0483 -0.2533  0.4870
 5058TIP3    H136589   6.553   1.271   5.506  0.2152  0.0358 -1.4693
 5058TIP3    H236590   6.607   1.407   5.470 -0.5204  0.9509  0.7064
 5059TIP3   OH236591   4.027   1.104  14.758 -0.0981  0.4537  0.1028
 5059TIP3    H136592   3.945   1.089  14.806 -0.9225 -0.1567 -1.4048
 5059TIP3    H236593   4.079   1.025  14.775 -0.3738  0.2520  0.0369
 5060TIP3   OH236594   0.649   1.570   5.123  0.1019 -0.1642  0.1238
 5060TIP3    H136595   0.658   1.641   5.187 -1.4116  0.6767 -0.5319
 5060TIP3    H236596   0.645   1.491   5.176  0.4758  0.3577  0.9665
 5061TIP3   OH236597   3.805   0.816   4.221 -0.1575 -0.5486 -0.5031
 5061TIP3    H136598   3.887   0.771   4.201  0.6473  0.2436  0.8879
 5061TIP3    H236599   3.746   0.746   4.249  0.2190 -1.0560 -0.9552
 5062TIP3   OH236600   0.893   5.472  12.170 -0.0661 -0.3254  0.1977
 5062TIP3    H136601   0.929   5.559  12.186 -0.8030  0.6205 -2.7492
 5062TIP3    H236602   0.961   5.412  12.202  2.3950  1.3778 -1.4759
 5063TIP3   OH236603   2.819   2.794   4.412 -0.0694 -0.1896  0.2545
 5063TIP3    H136604   2.825   2.702   4.386  0.0346  0.0429 -0.5896
 5063TIP3    H236605   2.896   2.810   4.467 -0.1917 -0.6518  0.5633
 5064TIP3   OH236606   0.552   5.669   0.627 -0.5569 -0.2138  0.1905
 5064TIP3    H136607   0.576   5.689   0.717  0.3366 -1.6630  0.3012
 5064TIP3    H236608   0.480   5.606   0.635 -0.8364  0.0555 -0.1328
 5065TIP3   OH236609   1.563   1.197  13.840 -0.1198  0.3678  0.1750
 5065TIP3    H136610   1.619   1.273  13.859  0.0491  0.7306 -1.6479
 5065TIP3    H236611   1.615   1.122  13.868  0.8627  0.7660 -0.5449
 5066TIP3   OH236612   1.828   2.376  15.076  0.0123  0.5390  0.2053
 5066TIP3    H136613   1.825   2.283  15.054 -0.9660  0.9333 -1.5316
 5066TIP3    H236614   1.913   2.389  15.118  0.4910 -0.9765 -0.2515
 5067TIP3   OH236615   4.088   1.345   2.474 -0.5796  0.0863 -0.0877
 5067TIP3    H136616   4.172   1.350   2.520 -0.8396  1.1854  0.3046
 5067TIP3    H236617   4.046   1.267   2.510  0.6872 -1.1036 -1.0539
 5068TIP3   OH236618   3.242   0.783   4.240  0.3093  0.1629 -0.0102
 5068TIP3    H136619   3.331   0.797   4.208 -0.2342 -0.3434 -1.8663
 5068TIP3    H236620   3.198   0.867   4.225  0.2904  0.2052  0.2778
 5069TIP3   OH236621   2.300   2.076   6.447 -0.7819  0.0403 -0.6170
 5069TIP3    H136622   2.386   2.091   6.486 -1.5040  1.2669  0.6285
 5069TIP3    H236623   2.306   2.113   6.359  0.8052 -2.5409 -1.7255
 5070TIP3   OH236624   3.413   2.713   2.731 -0.2686  0.4390  0.7734
 5070TIP3    H136625   3.431   2.804   2.754  0.5532 -0.0359  2.0999
 5070TIP3    H236626   3.488   2.687   2.677 -0.4552  0.5044  0.4770
 5071TIP3   OH236627   5.651   6.715  16.602 -0.0337  0.6592 -0.0735
 5071TIP3    H136628   5.660   6.632  16.649  0.4120  0.8021  0.0971
 5071TIP3    H236629   5.596   6.769  16.659 -0.6419  0.3543 -0.3623
 5072TIP3   OH236630   0.630   5.226  14.001  0.1948 -0.1915 -0.3118
 5072TIP3    H136631   0.718   5.260  13.987 -0.1321  0.9501  0.2733
 5072TIP3    H236632   0.601   5.267  14.083 -0.5569 -1.2283 -0.0377
 5073TIP3   OH236633   0.713   1.769  12.712  0.3098 -0.3064 -0.2370
 5073TIP3    H136634   0.669   1.774  12.797  1.7591  1.3412  0.4627
 5073TIP3    H236635   0.767   1.690  12.718  1.7380  0.7296  1.0773
 5074TIP3   OH236636   5.400   2.101  13.924  0.0452 -0.8447  0.0159
 5074TIP3    H136637   5.355   2.180  13.954  1.6602 -0.5250  1.7430
 5074TIP3    H236638   5.407   2.112  13.829  1.2068  1.6448  0.3205
 5075TIP3   OH236639   0.173   1.361   1.147  0.1427 -0.8033 -0.2741
 5075TIP3    H136640   0.149   1.343   1.056 -0.7499 -1.8237  0.1540
 5075TIP3    H236641   0.098   1.333   1.199 -0.0406  1.2726  0.6956
 5076TIP3   OH236642   3.213   1.555   2.376 -0.2605 -0.1201 -0.0772
 5076TIP3    H136643   3.302   1.541   2.408 -0.9504  1.0639  2.6220
 5076TIP3    H236644   3.175   1.467   2.371  0.2715 -0.4550  1.3111
 5077TIP3   OH236645   5.197   0.820  12.636 -0.2094 -0.5281  0.7686
 5077TIP3    H136646   5.267   0.755  12.648 -0.1723 -0.8842 -1.1234
 5077TIP3    H236647   5.241   0.904  12.646  0.3878 -0.7576  0.1467
 5078TIP3   OH236648   6.361   4.490   5.543 -0.1964 -0.3008  0.2203
 5078TIP3    H136649   6.447   4.448   5.535  0.4210  1.1741 -1.7048
 5078TIP3    H236650   6.363   4.531   5.629  1.9771  1.5547 -0.6167
 5079TIP3   OH236651   6.155   5.490  16.600 -0.3860  1.1199 -0.0404
 5079TIP3    H136652   6.199   5.447  16.527 -0.9593  1.4655 -0.5938
 5079TIP3    H236653   6.227   5.524  16.654  0.0515  0.2934 -0.0836
 5080TIP3   OH236654   0.227   3.700  16.842 -0.3289 -0.8149 -0.2665
 5080TIP3    H136655   0.269   3.616  16.826  0.4005 -0.8675  1.6106
 5080TIP3    H236656   0.286   3.765  16.803  0.4065 -1.0329  0.4607
 5081TIP3   OH236657   6.267   2.418   2.834  0.5561  0.5245 -0.5971
 5081TIP3    H136658   6.212   2.351   2.793  0.7752  0.7270 -1.2433
 5081TIP3    H236659   6.336   2.369   2.878 -0.2325  0.2583  0.3851
 5082TIP3   OH236660   1.186   6.201  12.176 -0.0229 -0.3361  0.5308
 5082TIP3    H136661   1.216   6.131  12.118 -0.2481 -0.4966  0.6072
 5082TIP3    H236662   1.156   6.156  12.255  2.0747 -0.0101  1.5710
 5083TIP3   OH236663   4.047   4.495   4.092 -0.0052  0.1382  0.1449
 5083TIP3    H136664   4.061   4.525   4.181 -0.7878 -2.7950  1.3708
 5083TIP3    H236665   3.958   4.457   4.092 -0.1726  0.3640 -1.9759
 5084TIP3   OH236666   1.871   1.217   2.452 -0.3143 -0.1911 -0.3817
 5084TIP3    H136667   1.862   1.157   2.379 -1.5718 -0.9189  0.3375
 5084TIP3    H236668   1.827   1.174   2.525 -2.1079  1.9709 -0.0713
 5085TIP3   OH236669   1.540   6.343  14.421  0.0733  0.0573 -0.4889
 5085TIP3    H136670   1.467   6.286  14.445  0.5413 -0.1031  0.5877
 5085TIP3    H236671   1.609   6.284  14.393  0.1645  0.1624 -0.4878
 5086TIP3   OH236672   0.228   5.918   3.996  0.3948 -0.2080 -0.1720
 5086TIP3    H136673   0.210   5.857   3.925  1.4692 -1.9201  0.9751
 5086TIP3    H236674   0.323   5.914   4.008  0.4209  1.2507  0.3323
 5087TIP3   OH236675   6.265   3.452  10.925  0.0730  0.7729 -0.0777
 5087TIP3    H136676   6.204   3.390  10.886  2.6468 -1.5515 -0.7063
 5087TIP3    H236677   6.230   3.467  11.013 -0.9133 -1.2061 -0.0791
 5088TIP3   OH236678   0.420   0.268  13.252 -0.6836  0.5072  0.0233
 5088TIP3    H136679   0.501   0.238  13.212 -0.9060  2.1454 -1.7836
 5088TIP3    H236680   0.351   0.217  13.208 -0.7294 -0.1781  0.8582
 5089TIP3   OH236681   6.754   2.700  17.225  1.1324 -0.3975  0.4514
 5089TIP3    H136682   6.764   2.745  17.142  2.2550  0.5087  1.0516
 5089TIP3    H236683   6.662   2.715  17.250  1.0660  0.1790 -0.1285
 5090TIP3   OH236684   1.829   1.731  12.568 -0.0112  0.2636  0.1443
 5090TIP3    H136685   1.832   1.688  12.653 -3.5372 -0.1420  0.2135
 5090TIP3    H236686   1.851   1.662  12.505  0.2833 -0.0353  0.5673
 5091TIP3   OH236687   4.489   3.421  17.048  0.5288  0.0034 -0.0255
 5091TIP3    H136688   4.512   3.394  17.137 -0.1410  0.6562  0.3615
 5091TIP3    H236689   4.555   3.380  16.992 -0.0731 -1.9038  0.5786
 5092TIP3   OH236690   1.331   5.293   2.860 -0.0133 -0.2498  0.1865
 5092TIP3    H136691   1.258   5.281   2.920  0.1390 -0.8888  0.2508
 5092TIP3    H236692   1.402   5.325   2.915 -0.4268  1.0188  0.0116
 5093TIP3   OH236693   4.650   2.697  16.894 -0.0454  0.4383  0.1281
 5093TIP3    H136694   4.656   2.702  16.798 -0.5357 -1.7802 -0.0794
 5093TIP3    H236695   4.664   2.787  16.923  1.0213  1.0394 -1.9712
 5094TIP3   OH236696   0.581   5.826   5.856 -0.3040 -0.0640  0.4948
 5094TIP3    H136697   0.659   5.837   5.802 -0.5558  0.4730  0.2340
 5094TIP3    H236698   0.601   5.871   5.938  0.0812 -0.8862  0.8630
 5095TIP3   OH236699   4.524   2.760   3.648 -0.0272  0.6203 -0.4039
 5095TIP3    H136700   4.503   2.699   3.578  0.5954 -0.2360  0.1379
 5095TIP3    H236701   4.591   2.818   3.611  1.4203 -0.7832 -0.0619
 5096TIP3   OH236702   6.614   1.560   1.423 -0.4481 -0.2389  0.3360
 5096TIP3    H136703   6.634   1.521   1.338 -2.7185 -1.9153  0.5093
 5096TIP3    H236704   6.546   1.505   1.461 -0.3754  1.1582  2.7506
 5097TIP3   OH236705   4.325   0.652  17.041  0.0874 -0.5573 -0.6627
 5097TIP3    H136706   4.317   0.723  16.977 -0.6156  0.7342  0.8131
 5097TIP3    H236707   4.403   0.673  17.091  0.9841 -1.8900 -1.4398
 5098TIP3   OH236708   3.591   2.943  14.991  0.1201  0.6203  0.3019
 5098TIP3    H136709   3.660   2.926  15.055  1.0466  0.7298 -0.6465
 5098TIP3    H236710   3.634   2.935  14.906 -0.7917  1.7521 -0.2990
 5099TIP3   OH236711   4.311   1.768  11.504  0.1331  0.2688  0.3658
 5099TIP3    H136712   4.401   1.798  11.494  0.2387  0.1651  0.9904
 5099TIP3    H236713   4.304   1.694  11.443  1.0431 -0.9427  1.6492
 5100TIP3   OH236714   4.140   5.859   0.121  0.0797 -0.5867  0.2653
 5100TIP3    H136715   4.079   5.899   0.184  0.6459  0.3391  0.2367
 5100TIP3    H236716   4.106   5.884   0.035 -0.2366 -1.1766  0.2132
 5101TIP3   OH236717   1.523   5.082  14.306  0.1138  0.2176 -0.1025
 5101TIP3    H136718   1.579   5.096  14.230  1.7272 -1.7560  0.6343
 5101TIP3    H236719   1.465   5.011  14.281 -1.4434  1.5896 -0.5054
 5102TIP3   OH236720   2.285   0.446   6.084 -0.0189 -0.0972  0.2978
 5102TIP3    H136721   2.226   0.520   6.099 -1.6509 -1.5954  1.7812
 5102TIP3    H236722   2.351   0.455   6.152 -0.0794  0.1355  0.3277
 5103TIP3   OH236723   0.973   3.326   3.216 -0.2936 -1.1608  0.0828
 5103TIP3    H136724   1.018   3.321   3.131  0.2345  0.0172  0.2616
 5103TIP3    H236725   1.003   3.249   3.264  0.0046 -1.4302 -0.5236
 5104TIP3   OH236726   2.659   2.819   1.004  0.4130  0.0737 -0.1023
 5104TIP3    H136727   2.735   2.778   1.047 -0.9849 -1.2654  1.2275
 5104TIP3    H236728   2.668   2.796   0.912  1.3056 -0.5765  0.1302
 5105TIP3   OH236729   1.976   0.411   0.459 -0.1481  0.2886  0.4162
 5105TIP3    H136730   2.067   0.438   0.446  0.1838 -1.6873 -2.0893
 5105TIP3    H236731   1.928   0.493   0.466  1.6637  1.3986  0.5703
 5106TIP3   OH236732   2.180   5.433   4.009 -0.0055  0.4047 -0.5797
 5106TIP3    H136733   2.191   5.497   4.080 -2.4932  1.8279 -1.3478
 5106TIP3    H236734   2.122   5.366   4.046  3.0163 -1.8812  0.4015
 5107TIP3   OH236735   0.463   5.674  12.824 -0.3135 -0.2303 -0.3231
 5107TIP3    H136736   0.423   5.588  12.838  0.0390 -0.3185  0.1911
 5107TIP3    H236737   0.500   5.670  12.736 -0.7318 -0.4289 -0.4879
 5108TIP3   OH236738   5.443   6.321  15.987 -0.3913 -0.4568  0.1855
 5108TIP3    H136739   5.465   6.372  16.064 -1.2213  1.2334 -0.6428
 5108TIP3    H236740   5.446   6.230  16.017 -1.9043  0.1745  2.5570
 5109TIP3   OH236741   0.582   4.263  15.023  0.2167  0.2408 -0.3095
 5109TIP3    H136742   0.604   4.350  14.989 -0.0511  0.4158 -0.0512
 5109TIP3    H236743   0.531   4.281  15.102  0.6199 -0.1569  0.0463
 5110TIP3   OH236744   5.946   1.550   5.260 -0.7026 -0.4874  0.4667
 5110TIP3    H136745   5.915   1.573   5.348 -0.1936 -2.1762  1.1386
 5110TIP3    H236746   5.867   1.529   5.211 -0.8686 -2.6414  1.5228
 5111TIP3   OH236747   5.614   6.113   1.273  0.8387 -0.0259  0.1136
 5111TIP3    H136748   5.572   6.114   1.187 -0.3387  1.3542  0.6515
 5111TIP3    H236749   5.553   6.064   1.329  2.5284 -2.6655 -0.1978
 5112TIP3   OH236750   1.516   4.464  13.693  0.1296  0.4737  0.2420
 5112TIP3    H136751   1.599   4.469  13.645 -0.6475  2.2360 -1.0134
 5112TIP3    H236752   1.450   4.454  13.625 -1.2734  5.5717  0.4351
 5113TIP3   OH236753   3.097   2.722  14.104  0.1600 -0.4859 -0.5578
 5113TIP3    H136754   3.044   2.643  14.100 -0.0406 -0.3551 -0.5143
 5113TIP3    H236755   3.062   2.778  14.034  0.1758 -0.3590 -0.4652
 5114TIP3   OH236756   0.297   2.445   2.089 -0.0573  0.5324 -0.4118
 5114TIP3    H136757   0.281   2.363   2.134 -1.2215  0.7259 -0.4499
 5114TIP3    H236758   0.296   2.512   2.158 -0.7704  0.7017 -0.5781
 5115TIP3   OH236759   1.488   5.911  11.251 -0.1838  0.2046 -0.0384
 5115TIP3    H136760   1.564   5.902  11.194  0.2572  1.2251  0.3664
 5115TIP3    H236761   1.433   5.977  11.208 -0.5140 -0.0405  0.0079
 5116TIP3   OH236762   1.945   1.410  14.363  0.5213 -0.3821  0.3987
 5116TIP3    H136763   2.011   1.391  14.431  0.1222  0.9117  1.1834
 5116TIP3    H236764   1.921   1.325  14.329  0.8296 -1.0663  1.8106
 5117TIP3   OH236765   3.405   0.963  12.556 -0.3262  0.1210 -0.4949
 5117TIP3    H136766   3.478   0.948  12.496  0.3342  0.6636  0.1527
 5117TIP3    H236767   3.328   0.939  12.505  0.3638 -1.4826 -0.8288
 5118TIP3   OH236768   0.399   3.790   2.767  0.0637 -0.3524  0.2901
 5118TIP3    H136769   0.378   3.836   2.848 -0.1987 -2.1595  1.3037
 5118TIP3    H236770   0.358   3.704   2.777  1.0999 -1.0669 -1.2130
 5119TIP3   OH236771   4.763   0.455  13.128 -0.4735  0.4647  0.3150
 5119TIP3    H136772   4.834   0.419  13.181 -0.5934  0.2994  0.3668
 5119TIP3    H236773   4.798   0.537  13.092  0.1913 -0.2357 -0.6947
 5120TIP3   OH236774   4.752   5.800   4.658 -0.0420 -0.5300 -0.1104
 5120TIP3    H136775   4.701   5.800   4.739  1.7484 -1.7183  1.0710
 5120TIP3    H236776   4.721   5.723   4.610 -0.3629 -0.4120 -0.1011
 5121TIP3   OH236777   2.242   2.619  12.854  0.1149 -0.3154 -0.0134
 5121TIP3    H136778   2.293   2.632  12.774 -0.2616 -0.5731 -0.2965
 5121TIP3    H236779   2.156   2.591  12.823 -0.5608  1.1949  0.3972
 5122TIP3   OH236780   3.931   2.198   1.719 -0.4248  0.0255 -0.0990
 5122TIP3    H136781   3.951   2.276   1.667  2.2221 -0.5288 -0.0519
 5122TIP3    H236782   3.973   2.214   1.803 -4.0336  0.5763  1.7785
 5123TIP3   OH236783   5.502   5.936   0.413 -0.2474 -0.2883 -0.4905
 5123TIP3    H136784   5.574   5.886   0.374 -1.0088 -0.7084 -1.3973
 5123TIP3    H236785   5.470   5.879   0.484 -1.7729 -1.6276 -2.1626
 5124TIP3   OH236786   5.284   1.117   2.400  0.9481 -0.0183 -0.3735
 5124TIP3    H136787   5.255   1.114   2.308  1.3826  0.9305 -0.5455
 5124TIP3    H236788   5.325   1.031   2.414 -2.2221 -1.6251  0.0060
 5125TIP3   OH236789   0.957   4.951  12.489  0.4957  0.0514  0.1386
 5125TIP3    H136790   0.965   4.953  12.584 -0.0040  0.0127  0.1832
 5125TIP3    H236791   0.970   5.042  12.461 -0.2548  0.2185  0.3213
 5126TIP3   OH236792   0.362   5.270  11.673 -0.1271  0.3663  0.3567
 5126TIP3    H136793   0.452   5.278  11.641 -0.0385  0.8730  0.7237
 5126TIP3    H236794   0.371   5.256  11.767 -0.4461  0.8830  0.4654
 5127TIP3   OH236795   3.437   4.519   4.039 -0.0014  0.1080  0.3130
 5127TIP3    H136796   3.474   4.604   4.062  1.0919 -0.2512 -0.0564
 5127TIP3    H236797   3.443   4.468   4.120 -0.2812  0.2494  0.4241
 5128TIP3   OH236798   0.192   2.170   1.548 -0.0752 -0.2442  0.2550
 5128TIP3    H136799   0.271   2.133   1.587 -0.7882 -1.3253  0.7114
 5128TIP3    H236800   0.150   2.096   1.504  0.0618  0.6802 -1.5245
 5129TIP3   OH236801   2.025   1.061  14.690 -0.2513  0.0270 -0.3422
 5129TIP3    H136802   2.074   1.138  14.716  1.8194 -1.2602 -0.1739
 5129TIP3    H236803   2.006   1.015  14.772 -0.5287 -0.1756 -0.5184
 5130TIP3   OH236804   3.894   2.935  12.845 -0.5125 -0.0200 -0.5800
 5130TIP3    H136805   3.953   2.970  12.778 -3.1097  0.9501 -2.5157
 5130TIP3    H236806   3.868   2.849  12.811 -2.2518  0.6964 -1.1483
 5131TIP3   OH236807   6.740   5.215  13.627 -0.2017  0.1665 -0.3379
 5131TIP3    H136808   6.703   5.291  13.583  0.8903  1.3707  0.7302
 5131TIP3    H236809   6.688   5.204  13.706  1.3229  1.5958  0.9442
 5132TIP3   OH236810   4.430   2.208   3.543  0.1659  0.2399 -0.7652
 5132TIP3    H136811   4.394   2.124   3.573  1.3241 -1.0986 -2.8343
 5132TIP3    H236812   4.472   2.245   3.621 -1.8757 -0.2188  0.6164
 5133TIP3   OH236813   2.867   3.866   5.199  0.1094 -0.4475  0.0422
 5133TIP3    H136814   2.933   3.888   5.265  0.7438 -3.7211  0.6515
 5133TIP3    H236815   2.793   3.833   5.249 -0.0048 -1.5225 -0.8021
 5134TIP3   OH236816   3.646   6.707  12.728 -0.3908  0.3473 -0.2660
 5134TIP3    H136817   3.560   6.711  12.687  0.3134 -0.7891 -1.9431
 5134TIP3    H236818   3.701   6.660  12.666  1.6746  1.7207  0.4060
 5135TIP3   OH236819   1.473   3.702  16.203  0.0656 -0.7688  0.2367
 5135TIP3    H136820   1.403   3.645  16.236  0.2923 -0.9656  0.3886
 5135TIP3    H236821   1.469   3.779  16.259  0.6408 -1.2288  0.9476
 5136TIP3   OH236822   1.628   2.413  15.921  0.2341 -0.0167  0.6084
 5136TIP3    H136823   1.560   2.376  15.977 -0.8183  1.8380  0.6142
 5136TIP3    H236824   1.700   2.351  15.928 -0.4107 -0.6160  2.8382
 5137TIP3   OH236825   0.106   6.215   0.939  0.0664  0.0444 -0.3484
 5137TIP3    H136826   0.046   6.150   0.905  0.4905 -0.7090  0.3091
 5137TIP3    H236827   0.056   6.297   0.939 -1.4837 -0.8291  1.5595
 5138TIP3   OH236828   2.500   5.816  14.251 -0.1722  0.1542 -0.0623
 5138TIP3    H136829   2.511   5.721  14.247 -1.4199  0.0140 -0.4922
 5138TIP3    H236830   2.589   5.850  14.253  0.2935 -1.0209  0.0700
 5139TIP3   OH236831   6.671   5.681  11.561  0.0862 -0.2143  0.3009
 5139TIP3    H136832   6.606   5.720  11.618 -0.2234 -1.1772  0.6252
 5139TIP3    H236833   6.748   5.669  11.616 -0.1775 -1.0449  0.5001
 5140TIP3   OH236834   1.218   2.570   1.731 -0.3552  0.3205  0.1794
 5140TIP3    H136835   1.202   2.660   1.702  3.7501  0.8758 -0.8798
 5140TIP3    H236836   1.203   2.517   1.653  1.7145  0.7249 -0.5494
 5141TIP3   OH236837   4.413   2.084   3.032  0.0704 -0.5045  0.1033
 5141TIP3    H136838   4.471   2.024   3.079 -1.2316 -0.9536  1.2008
 5141TIP3    H236839   4.325   2.061   3.062 -0.6884  0.2454 -1.4083
 5142TIP3   OH236840   4.113   2.713  12.809  0.3363 -0.1038  0.0211
 5142TIP3    H136841   4.072   2.657  12.875  0.5482 -0.6374 -0.2933
 5142TIP3    H236842   4.205   2.717  12.835  0.6007 -1.0347 -0.7198
 5143TIP3   OH236843   6.724   1.707   3.886  0.1468 -0.4122 -0.1913
 5143TIP3    H136844   6.811   1.738   3.861  0.5457 -1.2728  0.0859
 5143TIP3    H236845   6.714   1.734   3.977  0.8963 -1.8831  0.3634
 5144TIP3   OH236846   5.977   2.830  14.365 -0.7400 -0.0071  0.2668
 5144TIP3    H136847   5.956   2.869  14.450  0.9456  0.2555  0.6099
 5144TIP3    H236848   6.066   2.795  14.376 -0.9128 -0.9434 -1.0662
 5145TIP3   OH236849   3.206   1.774   4.089 -0.0538  0.1761  0.2489
 5145TIP3    H136850   3.265   1.843   4.121 -1.4861  0.9444  1.3587
 5145TIP3    H236851   3.134   1.821   4.048 -0.7786 -0.6627  0.5307
 5146TIP3   OH236852   3.393   1.081  13.999 -0.5429 -0.0344 -0.1131
 5146TIP3    H136853   3.464   1.120  14.050 -1.8520  1.1770  0.8361
 5146TIP3    H236854   3.433   1.064  13.913  1.1844 -0.4376  0.7167
 5147TIP3   OH236855   0.925   2.963   3.276  0.2140 -0.5672 -0.3766
 5147TIP3    H136856   0.854   2.934   3.334  0.3003  0.9404  0.5319
 5147TIP3    H236857   0.931   2.894   3.210 -1.7937 -0.9618 -0.2261
 5148TIP3   OH236858   2.217   0.945   2.874  0.5993 -0.0908  0.1931
 5148TIP3    H136859   2.184   0.928   2.962  0.8080  2.0884  0.7592
 5148TIP3    H236860   2.142   0.981   2.827  0.7252 -0.4155 -0.2610
 5149TIP3   OH236861   2.105   0.358  15.632 -0.3256 -0.6348  0.1958
 5149TIP3    H136862   2.016   0.389  15.651 -0.7686 -1.4584 -0.4933
 5149TIP3    H236863   2.131   0.405  15.553 -0.1547 -0.4373  0.3643
 5150TIP3   OH236864   4.816   5.731  12.891  0.4421 -0.1261  0.2252
 5150TIP3    H136865   4.726   5.699  12.887 -0.0442  1.1700  0.2542
 5150TIP3    H236866   4.828   5.757  12.982  0.6620  0.1895  0.1096
 5151TIP3   OH236867   4.825   2.580  17.272  0.3808 -0.2011  0.2502
 5151TIP3    H136868   4.874   2.503  17.300  0.8229 -0.1166 -0.2777
 5151TIP3    H236869   4.888   2.652  17.274  0.4420 -0.1986 -0.9525
 5152TIP3   OH236870   2.744   6.503   3.648 -0.5501 -0.3894  0.4522
 5152TIP3    H136871   2.771   6.506   3.556  1.1636  1.5138  0.9557
 5152TIP3    H236872   2.823   6.478   3.695 -0.3882  2.1883  1.6995
 5153TIP3   OH236873   2.352   4.455  13.172 -0.6112  1.0198  0.1708
 5153TIP3    H136874   2.273   4.403  13.185  0.0064  0.4739  1.9687
 5153TIP3    H236875   2.412   4.425  13.240 -0.2981  4.1975  1.4662
 5154TIP3   OH236876   3.216   2.487   1.118  0.3440  0.1414 -0.1693
 5154TIP3    H136877   3.296   2.449   1.155  0.3114 -2.0291 -2.0800
 5154TIP3    H236878   3.241   2.513   1.029 -0.5046  1.6369  0.0071
 5155TIP3   OH236879   3.269   1.773   2.647 -0.3518  0.5778  0.0305
 5155TIP3    H136880   3.289   1.803   2.736 -1.4542 -0.4824  0.6736
 5155TIP3    H236881   3.302   1.843   2.590  1.2949  0.8070  1.1946
 5156TIP3   OH236882   0.794   1.315   0.605 -0.4041 -0.4354  0.6495
 5156TIP3    H136883   0.706   1.281   0.623 -0.1655 -0.6251  1.5309
 5156TIP3    H236884   0.811   1.376   0.677 -0.1081  0.1806  0.0712
 5157TIP3   OH236885   3.357   2.997  15.272  0.1465  0.5705 -0.0436
 5157TIP3    H136886   3.349   3.035  15.185  0.1390  1.6943  0.4294
 5157TIP3    H236887   3.412   3.059  15.321  1.2662 -0.6918  0.3834
 5158TIP3   OH236888   6.282   2.924   2.646  0.4928  0.5514 -0.3103
 5158TIP3    H136889   6.285   2.829   2.652  0.2930  0.5161 -0.7867
 5158TIP3    H236890   6.310   2.954   2.733 -0.9652  0.0440  0.3809
 5159TIP3   OH236891   5.402   4.212  17.116 -0.6201  0.4821 -0.0242
 5159TIP3    H136892   5.438   4.153  17.183 -0.6992  1.1265  0.6042
 5159TIP3    H236893   5.478   4.237  17.063 -0.3275  0.9394  0.5948
 5160TIP3   OH236894   3.619   6.592  15.284 -0.6699 -0.0295 -0.2460
 5160TIP3    H136895   3.662   6.577  15.368 -0.7608 -0.7207 -0.3124
 5160TIP3    H236896   3.527   6.606  15.307 -0.9535 -1.5522 -0.2962
 5161TIP3   OH236897   3.627   2.632  16.790 -0.7488 -0.2002 -0.2718
 5161TIP3    H136898   3.564   2.666  16.726 -1.1008  0.0773  0.2143
 5161TIP3    H236899   3.713   2.653  16.754 -0.8817 -1.7619 -1.6119
 5162TIP3   OH236900   2.685   1.660  11.169  0.1894 -0.0025  0.0333
 5162TIP3    H136901   2.763   1.677  11.116  0.0768  0.2488 -0.0574
 5162TIP3    H236902   2.649   1.578  11.135  1.9418 -1.6421  1.8857
 5163TIP3   OH236903   0.759   3.493   0.704  0.4724 -0.3994 -0.0388
 5163TIP3    H136904   0.732   3.416   0.653  1.0913 -1.3368  0.9976
 5163TIP3    H236905   0.690   3.503   0.770  0.8119 -0.5663  0.3405
 5164TIP3   OH236906   1.149   3.330   2.277  0.5033 -0.1536  0.3863
 5164TIP3    H136907   1.092   3.376   2.216  2.3973 -0.6667 -1.9203
 5164TIP3    H236908   1.221   3.391   2.293  2.7271 -1.8078 -2.2203
 5165TIP3   OH236909   5.743   3.106   4.386 -0.0825  0.3853 -0.1570
 5165TIP3    H136910   5.682   3.179   4.373  1.2977  1.1337 -3.4643
 5165TIP3    H236911   5.686   3.032   4.407 -1.7290  1.9015  1.0615
 5166TIP3   OH236912   1.321   1.491  10.964  0.0970 -0.3867 -0.3756
 5166TIP3    H136913   1.229   1.509  10.945  0.3843  1.4405 -0.2755
 5166TIP3    H236914   1.324   1.398  10.985 -2.0093 -0.1926  1.1435
 5167TIP3   OH236915   6.405   2.028  12.063  0.4295 -0.6892 -0.1642
 5167TIP3    H136916   6.498   2.037  12.047  0.5516 -0.4153  0.6345
 5167TIP3    H236917   6.363   2.065  11.985  0.9758  1.2471  0.3840
 5168TIP3   OH236918   3.191   5.739  15.898  0.6575  0.9113  0.1132
 5168TIP3    H136919   3.147   5.812  15.855  0.9216  1.9734  1.5694
 5168TIP3    H236920   3.124   5.670  15.901  0.1189  1.3876 -0.4974
 5169TIP3   OH236921   0.844   0.806   4.882 -0.2341  0.0994 -0.3578
 5169TIP3    H136922   0.841   0.863   4.806  1.0604  0.3747 -0.2158
 5169TIP3    H236923   0.880   0.724   4.850  0.3044  0.2111 -0.0487
 5170TIP3   OH236924   1.651   0.916  10.791  0.0887 -0.5868 -0.2829
 5170TIP3    H136925   1.736   0.916  10.835 -0.8089 -1.5100  1.5739
 5170TIP3    H236926   1.610   0.998  10.818  0.8291  0.4757 -2.2025
 5171TIP3   OH236927   0.199   5.485  12.565 -0.1718 -0.1440 -0.8791
 5171TIP3    H136928   0.224   5.577  12.554 -1.4573  0.0871 -2.2186
 5171TIP3    H236929   0.280   5.437  12.550  1.0013  0.7814  1.8541
 5172TIP3   OH236930   1.523   1.678   1.216  0.0774  0.3914 -0.1731
 5172TIP3    H136931   1.549   1.764   1.247  0.8633  0.3604 -0.7282
 5172TIP3    H236932   1.578   1.617   1.264 -0.0197  0.2350 -0.2577
 5173TIP3   OH236933   6.373   3.391   1.513 -0.0751  0.0692  0.0605
 5173TIP3    H136934   6.296   3.388   1.457  0.0636  0.3121 -0.1477
 5173TIP3    H236935   6.380   3.304   1.551  0.3162 -0.3633 -0.9574
 5174TIP3   OH236936   2.590   3.750  12.013 -0.4751  0.0785 -0.7162
 5174TIP3    H136937   2.640   3.695  11.952  0.1539 -0.2803  0.1138
 5174TIP3    H236938   2.614   3.840  11.989  0.0233 -0.0689 -0.7820
 5175TIP3   OH236939   2.944   1.006   4.673 -0.0175  0.1349  0.4888
 5175TIP3    H136940   2.966   1.049   4.590 -0.8990  0.5034  0.4341
 5175TIP3    H236941   3.029   0.992   4.716  0.4473 -0.0635 -0.4703
 5176TIP3   OH236942   5.322   2.367   4.494 -0.4665  0.2765 -0.0108
 5176TIP3    H136943   5.336   2.412   4.411  0.3143  1.6626  0.8255
 5176TIP3    H236944   5.401   2.316   4.508 -0.7908 -0.3143 -0.3340
 5177TIP3   OH236945   4.237   5.496  15.764 -0.6517 -0.0435  0.9413
 5177TIP3    H136946   4.271   5.568  15.816  0.0098  0.5628 -0.2964
 5177TIP3    H236947   4.257   5.418  15.815 -2.0346  0.6561  2.6418
 5178TIP3   OH236948   6.228   3.247   0.894 -0.1472  0.1192 -0.0937
 5178TIP3    H136949   6.272   3.250   0.979 -0.2960  0.6917 -0.0325
 5178TIP3    H236950   6.284   3.300   0.836  0.0644 -0.4382 -0.4106
 5179TIP3   OH236951   2.812   0.751   5.360 -0.7267 -0.0114  0.3028
 5179TIP3    H136952   2.834   0.827   5.413  0.8381 -0.5006  0.4039
 5179TIP3    H236953   2.887   0.693   5.369 -1.1981 -0.8816 -1.0324
 5180TIP3   OH236954   0.402   3.301  13.177 -0.1855 -0.4892  0.0556
 5180TIP3    H136955   0.470   3.235  13.186 -0.1906 -0.8877 -2.2879
 5180TIP3    H236956   0.322   3.257  13.204  0.1327 -0.7518  0.5777
 5181TIP3   OH236957   6.559   4.268  11.250  0.0506  0.4994 -0.5802
 5181TIP3    H136958   6.645   4.302  11.225 -0.1957  2.2704  0.7248
 5181TIP3    H236959   6.508   4.269  11.170  0.7056  1.2277 -0.9997
 5182TIP3   OH236960   2.731   1.183   4.651  0.1315  0.5784 -0.2305
 5182TIP3    H136961   2.745   1.247   4.722  1.8075  1.2557 -1.1077
 5182TIP3    H236962   2.812   1.132   4.650 -0.9216 -1.1959  0.0236
 5183TIP3   OH236963   1.241   6.223   4.016 -0.1426 -0.1409  0.8821
 5183TIP3    H136964   1.245   6.133   3.983 -0.4233 -0.6900  2.2922
 5183TIP3    H236965   1.260   6.277   3.939  0.9587 -1.4272  0.2088
 5184TIP3   OH236966   3.895   1.006  15.387 -0.1646 -0.3201  0.1422
 5184TIP3    H136967   3.881   0.967  15.473  0.7556  0.1161  0.5102
 5184TIP3    H236968   3.859   1.095  15.394  1.9874  0.5695  0.8821
 5185TIP3   OH236969   3.796   1.688  13.233  0.7385  0.3826 -0.3303
 5185TIP3    H136970   3.885   1.675  13.200  0.9808  0.3542  0.3121
 5185TIP3    H236971   3.746   1.615  13.197  1.9540 -2.3205  2.8126
 5186TIP3   OH236972   0.623   3.051   1.944 -0.0601 -0.3339 -0.1129
 5186TIP3    H136973   0.606   2.975   2.000  0.4941 -1.0928 -0.9425
 5186TIP3    H236974   0.540   3.066   1.898 -1.0870  1.3746  2.0891
 5187TIP3   OH236975   3.173   5.664  15.141  0.4587  0.4377  0.0117
 5187TIP3    H136976   3.096   5.714  15.170  0.7018  0.4999  0.5625
 5187TIP3    H236977   3.213   5.719  15.073  0.6431  0.9326  0.5147
 5188TIP3   OH236978   0.471   0.507   3.676 -0.3615  0.1045  0.1269
 5188TIP3    H136979   0.442   0.512   3.585  2.1758 -0.7588 -0.8121
 5188TIP3    H236980   0.561   0.542   3.675  0.4601 -1.7541  1.8957
 5189TIP3   OH236981   4.537   5.661  16.000  0.2351 -0.2272  0.3526
 5189TIP3    H136982   4.452   5.680  15.960  0.6232 -0.4272 -0.6030
 5189TIP3    H236983   4.519   5.656  16.094 -1.4547 -3.5368 -0.0240
 5190TIP3   OH236984   4.097   0.355  15.601 -0.4939 -0.3497 -0.0531
 5190TIP3    H136985   4.173   0.408  15.628 -0.0553 -1.1482  0.3256
 5190TIP3    H236986   4.025   0.388  15.654 -0.2141 -0.1407  0.2066
 5191TIP3   OH236987   3.858   5.182   0.922  1.1890 -0.4313 -0.5859
 5191TIP3    H136988   3.918   5.251   0.950  0.8225 -0.2975 -0.0959
 5191TIP3    H236989   3.914   5.113   0.888  1.6195 -0.2863 -0.1839
 5192TIP3   OH236990   0.804   3.098  12.410  0.0891 -0.3595  0.2587
 5192TIP3    H136991   0.730   3.142  12.451  0.5605  0.3212  0.3834
 5192TIP3    H236992   0.781   3.095  12.317  0.8027  1.7117 -0.0303
 5193TIP3   OH236993   5.080   3.222  15.288 -0.3007  0.1011 -0.1216
 5193TIP3    H136994   5.127   3.279  15.227 -0.1494  0.8399  0.6605
 5193TIP3    H236995   5.121   3.136  15.277  0.1154  0.3581 -0.6432
 5194TIP3   OH236996   6.771   4.860   1.046 -0.2628  0.5214  0.6816
 5194TIP3    H136997   6.838   4.797   1.076  0.0080  0.0376 -0.8452
 5194TIP3    H236998   6.727   4.815   0.974 -1.7139  1.1670  1.1297
 5195TIP3   OH236999   5.146   4.802  11.983 -0.0518  0.1707 -0.0937
 5195TIP3    H137000   5.190   4.876  11.941 -1.0997 -0.1595 -1.9138
 5195TIP3    H237001   5.053   4.826  11.982 -0.2028 -0.3174  1.1340
 5196TIP3   OH237002   0.127   4.343  14.299  0.4160  0.6448  0.1990
 5196TIP3    H137003   0.034   4.359  14.313  0.4625  0.7901  0.3425
 5196TIP3    H237004   0.130   4.275  14.232  0.2044  0.4026  0.4339
 5197TIP3   OH237005   1.980   1.125   3.401  0.0667 -0.0086 -0.2722
 5197TIP3    H137006   2.008   1.213   3.375 -0.4026 -0.1281 -1.2038
 5197TIP3    H237007   2.044   1.067   3.359 -0.0907 -0.1521 -0.3115
 5198TIP3   OH237008   1.720   1.633  15.302 -0.4891 -0.1793  0.2203
 5198TIP3    H137009   1.736   1.585  15.221 -1.5048  0.9620 -0.6899
 5198TIP3    H237010   1.761   1.718  15.289 -1.1732  0.2286  0.6667
 5199TIP3   OH237011   5.095   4.198  12.708 -0.0432 -0.3585 -0.1540
 5199TIP3    H137012   5.180   4.160  12.729  0.3138  0.3538 -0.3098
 5199TIP3    H237013   5.095   4.207  12.613  0.0157  0.3559 -0.0907
 5200TIP3   OH237014   0.214   1.238  16.376  0.7018 -0.2509  0.3424
 5200TIP3    H137015   0.205   1.289  16.456  0.4677 -0.9494  0.7712
 5200TIP3    H237016   0.224   1.303  16.307  0.7365  0.3620  0.9158
 5201TIP3   OH237017   5.018   2.101   5.940  0.0894  0.4970 -0.0383
 5201TIP3    H137018   5.016   2.159   6.016 -1.0447  0.1246  0.2421
 5201TIP3    H237019   5.019   2.160   5.865 -0.0946  0.8846  0.2582
 5202TIP3   OH237020   4.538   3.133   6.897  0.0191 -0.7253 -0.0570
 5202TIP3    H137021   4.580   3.217   6.914 -0.2294 -0.2678 -1.5776
 5202TIP3    H237022   4.470   3.152   6.832  0.4987 -2.2145 -1.0632
 5203TIP3   OH237023   6.152   1.857  11.829  0.4284  0.3721  0.1958
 5203TIP3    H137024   6.116   1.911  11.899 -0.4429  0.2173 -0.1178
 5203TIP3    H237025   6.094   1.873  11.754 -2.1945 -3.6699  1.0530
 5204TIP3   OH237026   2.232   5.170  10.176  0.4831 -0.5911 -0.0985
 5204TIP3    H137027   2.155   5.227  10.175  0.3039 -0.6803 -3.4476
 5204TIP3    H237028   2.198   5.085  10.206 -0.1670 -0.0155  0.8364
 5205TIP3   OH237029   0.108   1.011  15.131  0.0817 -0.7190 -0.3627
 5205TIP3    H137030   0.143   1.084  15.183 -0.5687  0.1098 -1.0656
 5205TIP3    H237031   0.058   0.959  15.194  0.2269 -0.3462  0.0697
 5206TIP3   OH237032   5.434   3.613  12.686 -0.1792  0.3780  0.4309
 5206TIP3    H137033   5.443   3.555  12.761 -0.0038 -0.3137 -0.1155
 5206TIP3    H237034   5.510   3.670  12.690  0.6695 -0.6958 -0.1053
 5207TIP3   OH237035   0.712   0.613  11.018 -0.1664  0.0280  0.1558
 5207TIP3    H137036   0.741   0.531  11.057  0.0264  0.3022  0.5870
 5207TIP3    H237037   0.624   0.627  11.054 -0.1004  0.1370  0.2747
 5208TIP3   OH237038   3.474   5.970   5.520 -0.2289 -0.3048  0.9091
 5208TIP3    H137039   3.464   6.001   5.611  1.5490  2.0820  0.3893
 5208TIP3    H237040   3.535   6.032   5.480 -0.3628 -1.7386 -1.7414
 5209TIP3   OH237041   5.882   0.673   0.697 -0.0162 -0.3224  0.1190
 5209TIP3    H137042   5.855   0.756   0.657  0.9111  0.0337  0.2026
 5209TIP3    H237043   5.936   0.630   0.630  2.0898  0.5694  1.1354
 5210TIP3   OH237044   5.497   1.257  16.861  0.2286 -0.0788 -0.1946
 5210TIP3    H137045   5.486   1.163  16.850  1.7127 -0.4595  1.2218
 5210TIP3    H237046   5.505   1.269  16.956 -0.6435  1.5656 -0.3011
 5211TIP3   OH237047   6.634   1.962   5.462 -0.3314  0.1453  0.5943
 5211TIP3    H137048   6.695   1.900   5.503  0.4070 -0.0127 -0.6749
 5211TIP3    H237049   6.555   1.956   5.514 -0.3594 -2.0396  0.4122
 5212TIP3   OH237050   5.712   1.584  15.010  0.0666  0.0382  0.0529
 5212TIP3    H137051   5.683   1.554  14.924  0.6362  1.4428 -0.6523
 5212TIP3    H237052   5.709   1.505  15.065 -1.3123 -0.6646 -0.9635
 5213TIP3   OH237053   0.642   4.748   5.511  0.3555 -0.1059 -0.0081
 5213TIP3    H137054   0.657   4.663   5.469  0.4170 -0.3746  0.5446
 5213TIP3    H237055   0.592   4.798   5.447  1.8735  0.0935 -1.0721
 5214TIP3   OH237056   1.533   1.387   6.110 -0.2862 -0.4317 -0.2564
 5214TIP3    H137057   1.459   1.379   6.050 -0.5034 -0.6292  0.0336
 5214TIP3    H237058   1.588   1.311   6.093 -0.5246 -0.6707  0.0313
 5215TIP3   OH237059   1.793   0.331   1.854 -0.3189 -0.6371  0.1453
 5215TIP3    H137060   1.861   0.361   1.793 -0.6825  2.7390  1.2045
 5215TIP3    H237061   1.723   0.397   1.846 -1.4817 -1.5097  2.3601
 5216TIP3   OH237062   5.943   6.388   5.369  0.0018  0.4090  0.3554
 5216TIP3    H137063   6.023   6.395   5.422  0.3301  0.0744 -0.0910
 5216TIP3    H237064   5.948   6.461   5.308 -0.1220  0.4909  0.4422
 5217TIP3   OH237065   1.311   0.649   3.419  0.0591 -0.4551 -0.1805
 5217TIP3    H137066   1.338   0.581   3.357  1.1242  0.4685 -0.7761
 5217TIP3    H237067   1.222   0.625   3.444 -0.7129 -0.4577 -2.6668
 5218TIP3   OH237068   6.291   2.150  11.796 -0.2149 -0.1099  0.0122
 5218TIP3    H137069   6.202   2.181  11.780 -0.4955  0.0631  1.7731
 5218TIP3    H237070   6.297   2.069  11.746 -1.0533  0.3354 -0.8447
 5219TIP3   OH237071   2.855   0.831  10.978  0.1803  0.2752  0.1859
 5219TIP3    H137072   2.774   0.782  10.988  0.4049 -0.1385  0.0012
 5219TIP3    H237073   2.861   0.850  10.884 -0.4601  1.6234  0.4008
 5220TIP3   OH237074   2.887   4.046  13.902 -0.4573 -0.0088  0.0903
 5220TIP3    H137075   2.936   4.110  13.850 -0.3785 -1.2744 -1.4701
 5220TIP3    H237076   2.804   4.089  13.921 -0.1053  0.8496 -0.2590
 5221TIP3   OH237077   5.099   6.693   2.103  0.5036 -0.1605 -0.3098
 5221TIP3    H137078   5.126   6.775   2.146  0.7127 -0.1528 -0.4545
 5221TIP3    H237079   5.182   6.647   2.088  0.2670 -1.3945  1.7643
 5222TIP3   OH237080   1.906   5.925   6.127 -0.4480 -0.1665 -0.4110
 5222TIP3    H137081   1.959   5.846   6.134 -0.3301 -0.1895 -1.3951
 5222TIP3    H237082   1.956   5.992   6.173 -0.8035 -0.7754  0.8937
 5223TIP3   OH237083   1.048   4.481   5.927  0.2721  1.0482 -0.1894
 5223TIP3    H137084   1.088   4.544   5.988 -0.1025  1.5196 -0.4239
 5223TIP3    H237085   0.957   4.511   5.918 -0.3864 -0.4864  0.9701
 5224TIP3   OH237086   1.935   2.889  17.299  0.0570 -0.3853 -0.4464
 5224TIP3    H137087   1.923   2.848  17.213 -0.7444 -2.2120  0.4655
 5224TIP3    H237088   1.981   2.823  17.350 -1.6393 -0.3721  1.2278
 5225TIP3   OH237089   2.350   4.020  12.696 -0.6932  0.0655 -0.0390
 5225TIP3    H137090   2.419   3.993  12.635 -0.3961 -0.8883  0.7045
 5225TIP3    H237091   2.373   3.979  12.779 -1.2385  1.1343  0.6648
 5226TIP3   OH237092   6.489   3.550   1.785  0.0521  0.2769  0.3103
 5226TIP3    H137093   6.471   3.617   1.720  2.8581  2.0098  1.1245
 5226TIP3    H237094   6.467   3.467   1.742 -0.1374  1.4779 -2.0519
 5227TIP3   OH237095   1.401   5.997  15.822  0.9563 -0.1773  0.1498
 5227TIP3    H137096   1.394   5.994  15.917  2.4075 -0.1381  0.2801
 5227TIP3    H237097   1.389   6.089  15.799 -0.9754 -0.4017  0.1224
 5228TIP3   OH237098   2.720   0.276  13.283 -0.3486  0.2743 -0.1362
 5228TIP3    H137099   2.642   0.298  13.333 -0.8962 -0.2504 -0.7513
 5228TIP3    H237100   2.697   0.197  13.234  0.5472  0.1359 -0.3662
 5229TIP3   OH237101   3.166   3.604  15.560 -0.3124  0.3948  0.3618
 5229TIP3    H137102   3.189   3.518  15.596  2.3622  0.0536 -1.8241
 5229TIP3    H237103   3.215   3.666  15.615  0.5548  0.1965 -0.1626
 5230TIP3   OH237104   0.271   4.282   1.008  0.1956 -0.0526  0.0083
 5230TIP3    H137105   0.254   4.359   0.953 -0.2325  0.0649  0.2984
 5230TIP3    H237106   0.196   4.225   0.993  0.6404 -0.5367 -0.4064
 5231TIP3   OH237107   6.756   6.563   4.943 -0.0218 -0.2940  0.0126
 5231TIP3    H137108   6.690   6.562   5.012  2.2491 -0.6455  2.3293
 5231TIP3    H237109   6.730   6.636   4.886  0.2404  2.9019  3.6068
 5232TIP3   OH237110   1.539   2.461   4.934  0.4993  0.8291 -0.1961
 5232TIP3    H137111   1.496   2.472   5.018 -1.7444 -1.2043 -0.9697
 5232TIP3    H237112   1.595   2.384   4.946 -0.0226  0.3773 -0.6112
 5233TIP3   OH237113   1.435   4.143   6.302  0.2890  0.8925  0.5232
 5233TIP3    H137114   1.376   4.190   6.361 -1.3640  0.1471 -0.4505
 5233TIP3    H237115   1.413   4.051   6.314 -2.7032  0.7640 -3.5695
 5234TIP3   OH237116   5.204   2.584  13.221  0.3651 -0.1358 -0.0917
 5234TIP3    H137117   5.283   2.629  13.252  0.4265 -0.6639  0.5255
 5234TIP3    H237118   5.171   2.536  13.297 -0.2609 -0.3416 -0.4806
 5235TIP3   OH237119   2.487   5.716   1.330 -0.4435 -0.1068 -0.1642
 5235TIP3    H137120   2.467   5.650   1.397 -1.0364  0.4978  0.2678
 5235TIP3    H237121   2.462   5.675   1.247  0.1605 -0.8094 -0.0046
 5236TIP3   OH237122   4.623   2.768  17.213  0.4033 -0.3729  0.5326
 5236TIP3    H137123   4.701   2.717  17.234  1.2464 -0.3159 -2.0004
 5236TIP3    H237124   4.649   2.821  17.137 -1.3645  1.5526  1.1619
 5237TIP3   OH237125   2.701   5.932  16.053 -0.3452 -0.4617  0.0572
 5237TIP3    H137126   2.754   5.988  15.996  0.7518 -0.7491  0.7631
 5237TIP3    H237127   2.635   5.894  15.995  1.1188 -1.2300 -1.1661
 5238TIP3   OH237128   3.060   3.329  14.536 -0.3024  0.2829  0.2894
 5238TIP3    H137129   3.142   3.279  14.531 -0.8042 -0.5643  0.3856
 5238TIP3    H237130   3.020   3.318  14.450  0.7109  2.5407 -0.5489
 5239TIP3   OH237131   2.498   0.800  14.249  0.2952 -0.6319 -0.1530
 5239TIP3    H137132   2.546   0.717  14.241  0.3284 -0.5222 -1.1281
 5239TIP3    H237133   2.566   0.867  14.253  0.2382 -0.5545 -0.5241
 5240TIP3   OH237134   2.365   6.018  13.302  0.0316  0.4580 -0.3288
 5240TIP3    H137135   2.309   6.045  13.374 -0.7870  0.5244 -0.9764
 5240TIP3    H237136   2.416   6.096  13.280  0.9824  0.1771  0.7859
 5241TIP3   OH237137   4.536   2.898  14.259 -0.2836 -0.0575  0.2104
 5241TIP3    H137138   4.599   2.953  14.307  1.2844 -0.2596 -1.5179
 5241TIP3    H237139   4.471   2.960  14.226 -0.0926  0.3833  0.6450
 5242TIP3   OH237140   5.046   2.779  15.017 -0.4538  0.4780 -0.4132
 5242TIP3    H137141   4.982   2.739  14.957 -1.0683  0.1637  0.4253
 5242TIP3    H237142   5.127   2.732  15.000 -0.2578  1.3054 -1.9411
 5243TIP3   OH237143   5.356   4.474  13.890 -0.2849 -0.1092  0.0676
 5243TIP3    H137144   5.351   4.565  13.861 -1.7314 -0.8628 -2.3888
 5243TIP3    H237145   5.267   4.454  13.919 -0.1785 -0.9144 -0.1379
 5244TIP3   OH237146   6.494   1.778  16.646  0.5688 -0.6769  0.4063
 5244TIP3    H137147   6.585   1.807  16.645 -0.2122  2.2632  1.7887
 5244TIP3    H237148   6.463   1.801  16.734 -1.5542 -1.4778 -0.0642
 5245TIP3   OH237149   4.837   5.473  13.183 -0.2482  0.2047  0.2347
 5245TIP3    H137150   4.764   5.514  13.137  0.2758 -0.2439 -1.0250
 5245TIP3    H237151   4.866   5.403  13.126  1.9430  1.1155  0.1217
 5246TIP3   OH237152   5.253   3.678   3.815 -0.6111  0.3217  0.8303
 5246TIP3    H137153   5.244   3.733   3.738  0.5976  1.0675  1.1925
 5246TIP3    H237154   5.223   3.591   3.786  0.3461  0.4497 -0.6529
 5247TIP3   OH237155   6.312   0.567   2.847 -0.1614 -0.0839  0.0002
 5247TIP3    H137156   6.355   0.489   2.884 -1.4298 -1.1163 -0.6364
 5247TIP3    H237157   6.341   0.639   2.904  1.3688 -0.9304  0.3599
 5248TIP3   OH237158   4.492   1.970   2.193  0.0018  0.8114 -0.1536
 5248TIP3    H137159   4.421   1.914   2.159  1.4685 -1.1717 -0.1381
 5248TIP3    H237160   4.447   2.035   2.247 -1.7524 -1.4080  1.2545
 5249TIP3   OH237161   0.629   2.477  16.906 -0.0554 -0.5779  0.2088
 5249TIP3    H137162   0.546   2.430  16.903  0.0481 -0.7241 -0.7385
 5249TIP3    H237163   0.693   2.417  16.869 -0.0812  0.5713 -1.8503
 5250TIP3   OH237164   4.727   4.923  12.517 -0.4122 -0.4491 -0.6707
 5250TIP3    H137165   4.766   5.010  12.523 -1.0800 -0.2173  0.5845
 5250TIP3    H237166   4.719   4.907  12.423  2.8193 -0.6054 -1.0464
 5251TIP3   OH237167   1.769   4.809  16.809  0.4160  0.6463 -0.8375
 5251TIP3    H137168   1.769   4.719  16.842 -0.1647  1.3391  1.1580
 5251TIP3    H237169   1.688   4.815  16.758 -1.5965  1.0500  2.1658
 5252TIP3   OH237170   2.664   1.199  14.703  0.1563 -0.4466  0.3830
 5252TIP3    H137171   2.611   1.276  14.722  1.9764  0.9440  0.1285
 5252TIP3    H237172   2.723   1.228  14.634  1.7647 -1.6608  1.1905
 5253TIP3   OH237173   0.941   4.349   0.810  0.3140 -0.1485 -0.2333
 5253TIP3    H137174   0.945   4.357   0.715  2.3273 -0.5913 -0.2134
 5253TIP3    H237175   0.918   4.257   0.825  2.3963 -0.7242 -0.3164
 5254TIP3   OH237176   1.333   0.549  11.514  0.4087 -0.1537 -0.0950
 5254TIP3    H137177   1.354   0.622  11.572  0.6114  2.0928 -2.7771
 5254TIP3    H237178   1.417   0.520  11.480  0.1119  1.2644 -2.2191
 5255TIP3   OH237179   6.092   6.640   2.749  0.1877 -0.0144  0.5275
 5255TIP3    H137180   6.035   6.565   2.732 -0.8038  0.4500  1.6423
 5255TIP3    H237181   6.053   6.712   2.700  2.1636 -0.5678 -2.0418
 5256TIP3   OH237182   0.636   1.573  15.018  0.5779 -0.0110 -0.1506
 5256TIP3    H137183   0.717   1.617  14.992  0.4231  0.2760 -0.1627
 5256TIP3    H237184   0.663   1.486  15.046  1.3654  1.0805  2.9326
 5257TIP3   OH237185   0.923   5.634   2.121  0.4444 -0.0662 -0.5935
 5257TIP3    H137186   0.851   5.654   2.060  1.2928  0.0040 -1.5980
 5257TIP3    H237187   1.002   5.642   2.068  1.1967 -0.2478  0.4742
 5258TIP3   OH237188   6.513   0.715  12.851  0.2429 -0.8756 -0.3561
 5258TIP3    H137189   6.572   0.680  12.919  4.1561  3.5792 -0.9646
 5258TIP3    H237190   6.446   0.762  12.900  1.0106 -0.5624  0.4157
 5259TIP3   OH237191   4.182   2.665  15.547 -0.0917 -0.1885  0.1080
 5259TIP3    H137192   4.212   2.752  15.520  0.5373  0.0840  1.5812
 5259TIP3    H237193   4.262   2.612  15.550 -0.2466 -0.3988  0.6754
 5260TIP3   OH237194   5.296   6.529   6.078 -0.3103 -0.0437  0.3491
 5260TIP3    H137195   5.388   6.504   6.078 -0.0509  0.8017 -1.2806
 5260TIP3    H237196   5.287   6.587   6.154  1.2770  2.3577 -1.1600
 5261TIP3   OH237197   3.517   4.808   4.657 -0.4270  0.4648  0.6370
 5261TIP3    H137198   3.461   4.793   4.733  0.3780  0.6033  1.2753
 5261TIP3    H237199   3.520   4.723   4.613 -1.2689  0.5033  0.4949
 5262TIP3   OH237200   6.694   0.276  11.241 -0.2208  0.7166 -0.1967
 5262TIP3    H137201   6.742   0.196  11.262  1.1019  1.6023  0.2475
 5262TIP3    H237202   6.742   0.345  11.286 -0.7680  1.8941 -1.3672
 5263TIP3   OH237203   1.613   3.015   4.743 -0.0834  0.3333 -0.1215
 5263TIP3    H137204   1.577   2.929   4.723 -0.8783  0.3945  0.9991
 5263TIP3    H237205   1.684   3.026   4.680 -2.3207  0.4595 -2.8120
 5264TIP3   OH237206   0.871   6.754  16.226  0.4741  0.1698  0.0379
 5264TIP3    H137207   0.951   6.803  16.205  0.3371  0.5790  0.4605
 5264TIP3    H237208   0.802   6.820  16.228 -0.0748 -0.3108 -1.3155
 5265TIP3   OH237209   4.982   6.252   2.861  0.4021  0.1966  0.6782
 5265TIP3    H137210   4.980   6.334   2.912 -0.2550  0.3155  0.4643
 5265TIP3    H237211   4.968   6.280   2.771  1.5518 -0.0186  0.4168
 5266TIP3   OH237212   0.158   1.086  13.475 -0.2476  0.3836  0.0632
 5266TIP3    H137213   0.198   1.160  13.521  1.4825  0.4651 -1.4464
 5266TIP3    H237214   0.110   1.126  13.402 -0.0552  0.0871 -0.2320
 5267TIP3   OH237215   3.884   6.539  12.895 -0.1052  0.6107  0.5308
 5267TIP3    H137216   3.951   6.554  12.828  0.4149  1.2219  1.1721
 5267TIP3    H237217   3.807   6.585  12.863 -0.0101  0.4874  0.1175
 5268TIP3   OH237218   6.555   0.278   6.125 -0.1229  1.0082 -0.2374
 5268TIP3    H137219   6.510   0.194   6.128  1.2648  0.1446 -1.6845
 5268TIP3    H237220   6.560   0.307   6.216  0.8435 -1.3117  0.5117
 5269TIP3   OH237221   5.452   3.049  16.837 -0.0163 -0.0031 -0.6600
 5269TIP3    H137222   5.490   2.971  16.875 -0.7223 -1.0338 -1.9658
 5269TIP3    H237223   5.358   3.041  16.855 -0.0472  0.7280 -0.4763
 5270TIP3   OH237224   0.002   3.388   0.688 -0.9018 -0.0720  0.0375
 5270TIP3    H137225   0.003   3.423   0.777 -1.9771 -0.3651  0.1828
 5270TIP3    H237226   0.022   3.295   0.699  2.0698  0.4470 -0.3597
 5271TIP3   OH237227   4.030   5.276   4.089 -0.9588  0.0849  0.1749
 5271TIP3    H137228   3.990   5.189   4.095  0.4470 -0.7167 -1.3158
 5271TIP3    H237229   4.045   5.302   4.180 -2.1732 -0.8387  0.6688
 5272TIP3   OH237230   5.647   2.531   2.200 -0.0590  0.0754 -0.1865
 5272TIP3    H137231   5.666   2.625   2.199 -0.3526  0.2310  2.4901
 5272TIP3    H237232   5.553   2.525   2.183 -0.0696  0.2794 -0.2036
 5273TIP3   OH237233   5.914   1.537   1.837  0.8515 -0.0159 -0.3108
 5273TIP3    H137234   5.863   1.457   1.845  1.0994 -0.2134 -0.6418
 5273TIP3    H237235   5.925   1.548   1.742 -0.2502  1.0959 -0.3386
 5274TIP3   OH237236   0.775   4.593  15.957 -0.3470 -0.3180 -0.2857
 5274TIP3    H137237   0.841   4.530  15.984  0.5955  1.2898  1.3981
 5274TIP3    H237238   0.781   4.664  16.021 -2.0454  1.0319 -1.4981
 5275TIP3   OH237239   1.566   3.823   2.829 -0.1058  0.2705 -0.2771
 5275TIP3    H137240   1.517   3.779   2.898 -1.1272 -0.4282 -1.4009
 5275TIP3    H237241   1.627   3.757   2.796  1.2782  0.9813  0.7675
 5276TIP3   OH237242   0.705   2.344   1.047  0.1595 -0.4015  0.0119
 5276TIP3    H137243   0.655   2.305   1.119  1.6325 -0.8384  0.8363
 5276TIP3    H237244   0.690   2.438   1.056 -2.6161 -0.6024 -1.3896
 5277TIP3   OH237245   5.039   3.677  15.976 -0.0854 -0.4509 -0.0023
 5277TIP3    H137246   5.022   3.639  15.890  0.8351 -0.2861 -0.2691
 5277TIP3    H237247   5.128   3.649  15.998  0.6179  1.4581 -0.1834
 5278TIP3   OH237248   6.325   3.867  13.315  0.1682 -0.2059  0.7324
 5278TIP3    H137249   6.352   3.778  13.292  1.1584  0.2870 -0.1054
 5278TIP3    H237250   6.357   3.881  13.404  1.1082 -0.2687  0.4102
 5279TIP3   OH237251   2.050   1.310  11.345  0.0046  0.5067  0.1957
 5279TIP3    H137252   2.115   1.240  11.354 -0.9608 -0.5954 -1.1118
 5279TIP3    H237253   1.995   1.301  11.422 -0.7023 -0.8260 -0.4448
 5280TIP3   OH237254   3.958   3.558  16.170 -0.1318  0.1468 -0.0996
 5280TIP3    H137255   3.995   3.606  16.243 -0.7301  0.0839  0.2498
 5280TIP3    H237256   3.886   3.612  16.139  1.2548  1.1019 -1.8695
 5281TIP3   OH237257   3.185   3.604  11.200  0.3874 -0.2390  0.1256
 5281TIP3    H137258   3.260   3.641  11.153  0.2258  0.2572  0.2515
 5281TIP3    H237259   3.110   3.622  11.143  0.4435 -1.3789 -0.3499
 5282TIP3   OH237260   4.073   2.698   5.654  0.2506 -0.4141  0.2956
 5282TIP3    H137261   4.109   2.636   5.718 -1.6436 -2.8584 -0.8356
 5282TIP3    H237262   4.147   2.718   5.596  0.6263 -2.9974 -0.2612
 5283TIP3   OH237263   6.350   4.240  11.810 -0.3630  0.5320 -0.1305
 5283TIP3    H137264   6.258   4.255  11.832  0.0515 -0.6456  2.8597
 5283TIP3    H237265   6.365   4.147  11.828  1.1937  0.4438 -1.5957
 5284TIP3   OH237266   0.952   6.195   4.996  0.2906  0.6299 -1.0132
 5284TIP3    H137267   0.928   6.183   4.904  0.9595 -1.4868 -0.9783
 5284TIP3    H237268   0.951   6.106   5.033 -1.8910  1.5779  1.5464
 5285TIP3   OH237269   1.804   5.888  10.413 -0.6309  0.0350 -0.0671
 5285TIP3    H137270   1.835   5.963  10.363 -0.2317 -0.7090 -0.9520
 5285TIP3    H237271   1.839   5.903  10.502 -0.0171  0.5641 -0.3869
 5286TIP3   OH237272   3.180   2.578   5.399  0.3710  0.2311  0.2316
 5286TIP3    H137273   3.092   2.540   5.396  0.1041  0.7044  1.6016
 5286TIP3    H237274   3.183   2.626   5.481  2.5505 -1.3119  1.1587
 5287TIP3   OH237275   3.903   0.015  16.886 -0.5440  0.0122 -0.2447
 5287TIP3    H137276   3.817   0.031  16.846 -0.3423  1.1260 -0.2795
 5287TIP3    H237277   3.890   0.034  16.978 -0.1832  0.8621 -0.3585
 5288TIP3   OH237278   0.005   4.292   4.146  0.2504 -0.3090 -0.2533
 5288TIP3    H137279  -0.057   4.344   4.198  0.6922  1.8016 -1.7026
 5288TIP3    H237280   0.085   4.292   4.197  0.2427  0.4676 -0.2286
 5289TIP3   OH237281   0.219   0.045   4.727  0.4234 -0.0618 -0.9325
 5289TIP3    H137282   0.127   0.068   4.714  1.0176  2.1338 -1.6058
 5289TIP3    H237283   0.227  -0.043   4.689 -1.4515 -0.4630 -0.4859
 5290TIP3   OH237284   6.100   0.431  14.179  0.4554 -0.0519 -0.2779
 5290TIP3    H137285   6.070   0.473  14.260 -1.6171 -1.5965 -0.1710
 5290TIP3    H237286   6.133   0.345  14.207 -1.4727 -1.1315 -1.1432
 5291TIP3   OH237287   2.531   2.975   0.629 -0.4110 -0.1850  0.3210
 5291TIP3    H137288   2.516   2.996   0.536  0.6629 -3.5655 -0.7794
 5291TIP3    H237289   2.624   2.993   0.642 -0.7812  1.3029  1.1277
 5292TIP3   OH237290   3.910   1.071  14.488 -0.6888 -0.1211  0.1605
 5292TIP3    H137291   3.954   1.080  14.573 -1.4336  1.1480  0.4457
 5292TIP3    H237292   3.862   0.989  14.495  1.5835 -1.5697 -0.1753
 5293TIP3   OH237293   6.066   5.592   1.611 -0.0229  0.4075  0.1818
 5293TIP3    H137294   6.158   5.611   1.596  0.4357 -0.9923  1.0502
 5293TIP3    H237295   6.033   5.667   1.660  0.0378  2.0063 -2.0348
 5294TIP3   OH237296   2.816   0.408  16.738 -0.3494  0.0372 -0.0019
 5294TIP3    H137297   2.912   0.408  16.736 -0.3331  0.5115  0.4746
 5294TIP3    H237298   2.792   0.318  16.758 -0.1168 -1.0464 -3.8484
 5295TIP3   OH237299   5.527   1.761  13.242 -0.0209  0.4099  0.0844
 5295TIP3    H137300   5.495   1.682  13.201  0.4940  0.5044 -0.5136
 5295TIP3    H237301   5.529   1.741  13.336  1.1046 -0.6598 -0.1406
 5296TIP3   OH237302   3.048   6.173   5.216 -0.1529  0.5425 -0.4419
 5296TIP3    H137303   3.002   6.153   5.134  2.3376 -1.0589 -1.5577
 5296TIP3    H237304   3.087   6.090   5.244  3.3491  1.9667 -0.5111
 5297TIP3   OH237305   1.530   1.036  11.680 -0.7226  0.0019  0.1978
 5297TIP3    H137306   1.518   1.057  11.588  1.7740  0.2528 -0.1571
 5297TIP3    H237307   1.538   0.940  11.682 -0.4665  0.0206  0.1004
 5298TIP3   OH237308   6.634   4.245  14.029 -0.0829 -0.7799 -0.1962
 5298TIP3    H137309   6.544   4.274  14.017  0.2853  1.6877  2.0726
 5298TIP3    H237310   6.685   4.300  13.970  0.1713 -0.2085  0.5443
 5299TIP3   OH237311   3.067   3.050   3.513  0.0824 -0.2605 -0.6041
 5299TIP3    H137312   3.137   3.084   3.569 -1.5486  1.8119  0.3554
 5299TIP3    H237313   3.087   3.086   3.426  0.7876 -0.6178 -0.5977
 5300TIP3   OH237314   0.844   1.340   1.367  0.0555 -0.3281  0.4355
 5300TIP3    H137315   0.765   1.386   1.394 -0.4589  0.1761 -1.7580
 5300TIP3    H237316   0.865   1.376   1.281  1.4448 -1.9784  0.0220
 5301TIP3   OH237317   1.567   2.746   1.048  0.0186  0.3364  0.0825
 5301TIP3    H137318   1.478   2.719   1.026  0.6584 -0.4476 -1.7393
 5301TIP3    H237319   1.565   2.761   1.142 -1.8385 -0.4442  0.2037
 5302TIP3   OH237320   2.050   0.829  13.259 -0.1185  0.0860  0.2810
 5302TIP3    H137321   2.059   0.734  13.249 -1.3510 -0.2483  1.8873
 5302TIP3    H237322   1.977   0.852  13.201  1.6642  0.5198 -1.9627
 5303TIP3   OH237323   1.890   6.576   0.288  0.0548 -0.0233 -0.1388
 5303TIP3    H137324   1.882   6.643   0.221 -1.0042 -0.4771 -0.4931
 5303TIP3    H237325   1.967   6.525   0.262  0.6548  0.8157 -0.0562
 5304TIP3   OH237326   0.579   1.787  12.474  0.1708 -0.0238  0.3814
 5304TIP3    H137327   0.639   1.790  12.549  0.1348 -2.1423  0.5451
 5304TIP3    H237328   0.633   1.758  12.401 -0.3925 -0.8987  0.2885
 5305TIP3   OH237329   0.871   0.234  15.704 -0.0191  0.0543 -0.3138
 5305TIP3    H137330   0.835   0.217  15.791  1.8437  1.3938  0.8042
 5305TIP3    H237331   0.842   0.323  15.684 -0.9083 -0.4499 -1.3490
 5306TIP3   OH237332   6.494   2.426  14.846 -0.5592 -0.1169 -0.2302
 5306TIP3    H137333   6.410   2.431  14.799 -1.2847  0.9588  1.1128
 5306TIP3    H237334   6.558   2.462  14.784 -1.2649  0.0183 -0.8966
 5307TIP3   OH237335   1.023   4.015   2.357  0.2635  1.0430 -0.4840
 5307TIP3    H137336   0.940   3.988   2.397  0.3161 -1.2234 -1.7863
 5307TIP3    H237337   0.997   4.072   2.285 -0.1930  0.2495 -0.9588
 5308TIP3   OH237338   0.641   5.930   0.500  0.4723 -0.4473  0.3482
 5308TIP3    H137339   0.599   5.865   0.557 -0.7977  0.8731  0.9742
 5308TIP3    H237340   0.642   5.888   0.414  0.1969 -1.5176  0.8405
 5309TIP3   OH237341   2.519   2.304  11.534 -0.1512  0.0710 -0.2817
 5309TIP3    H137342   2.479   2.233  11.585  1.2580 -0.3504  0.2807
 5309TIP3    H237343   2.447   2.365  11.518 -0.8388 -0.2278  1.4433
 5310TIP3   OH237344   2.180   4.190   4.002 -0.1664  0.0209  0.6540
 5310TIP3    H137345   2.187   4.126   4.073 -1.1175  0.3033  1.0182
 5310TIP3    H237346   2.216   4.271   4.040 -1.1919  0.3205  1.0277
 5311TIP3   OH237347   4.725   3.518   1.272  0.4054 -0.4178 -0.4122
 5311TIP3    H137348   4.782   3.595   1.271 -0.1414 -0.0170 -0.7518
 5311TIP3    H237349   4.763   3.461   1.205 -0.4535  0.4915 -1.7097
 5312TIP3   OH237350   4.485   1.419   3.931  0.1721 -0.1448  0.0306
 5312TIP3    H137351   4.540   1.390   4.004  0.6312  1.0184  0.1649
 5312TIP3    H237352   4.454   1.338   3.891  1.8424 -0.8440  0.0603
 5313TIP3   OH237353   1.267   0.750   5.572  0.0800  0.3948  0.1834
 5313TIP3    H137354   1.187   0.719   5.615 -1.6695  3.1573 -0.7481
 5313TIP3    H237355   1.253   0.729   5.479  1.9067 -1.7964  0.3307
 5314TIP3   OH237356   1.813   1.434   0.831  0.0444  0.2339 -0.2493
 5314TIP3    H137357   1.865   1.465   0.906  0.2490 -1.2551  0.2497
 5314TIP3    H237358   1.723   1.458   0.854  0.2250  0.7084 -0.0109
 5315TIP3   OH237359   5.127   0.615   0.682  0.0220  0.1431  0.2003
 5315TIP3    H137360   5.179   0.535   0.691  0.2174  0.0245 -1.5692
 5315TIP3    H237361   5.076   0.602   0.602 -0.2683  1.6074  0.1073
 5316TIP3   OH237362   4.121   1.512  11.783  0.5034  0.2312 -0.2218
 5316TIP3    H137363   4.052   1.463  11.739  0.3800  0.3705 -0.1842
 5316TIP3    H237364   4.111   1.602  11.751  0.6427  0.2596 -0.1872
 5317TIP3   OH237365   4.683   6.205  12.347 -0.6706  0.3516 -0.4201
 5317TIP3    H137366   4.700   6.164  12.262 -1.5809 -1.3199  0.1579
 5317TIP3    H237367   4.737   6.157  12.408 -1.1542  0.5405  0.1678
 5318TIP3   OH237368   4.641   0.695  15.252 -0.3764 -0.0569 -0.5415
 5318TIP3    H137369   4.583   0.661  15.321  1.4885  0.3328  1.3159
 5318TIP3    H237370   4.685   0.617  15.217 -0.2256 -0.1247 -0.2106
 5319TIP3   OH237371   2.033   6.106   6.320  0.4120  0.1204 -0.4467
 5319TIP3    H137372   1.982   6.076   6.395  1.2114  0.9181  0.4513
 5319TIP3    H237373   2.094   6.171   6.357 -0.5891  2.1395 -2.1162
 5320TIP3   OH237374   5.422   0.993   6.394 -0.2406 -0.6377 -0.2884
 5320TIP3    H137375   5.466   1.077   6.382  1.5489 -1.6456 -1.2580
 5320TIP3    H237376   5.492   0.933   6.420 -1.0188 -2.3295 -1.9148
 5321TIP3   OH237377   5.729   1.720   4.318  0.1780  0.4957  0.1297
 5321TIP3    H137378   5.766   1.740   4.404  1.9962 -1.4816 -0.0914
 5321TIP3    H237379   5.802   1.734   4.257  0.7557 -3.4205 -0.3397
 5322TIP3   OH237380   6.716   3.777  14.782 -0.4581  0.2802 -0.0465
 5322TIP3    H137381   6.696   3.837  14.709 -0.5853  0.2909 -0.0034
 5322TIP3    H237382   6.771   3.709  14.743  1.3238  1.4537  0.3012
 5323TIP3   OH237383   2.231   3.635   5.567 -0.3602  0.3754  0.4310
 5323TIP3    H137384   2.235   3.572   5.639  0.9324  1.4161  1.3295
 5323TIP3    H237385   2.261   3.717   5.605  1.7802  0.6682 -1.5742
 5324TIP3   OH237386   1.675   5.759   2.300  0.1306 -0.7888 -0.0660
 5324TIP3    H137387   1.751   5.756   2.241 -1.3940 -1.2626 -2.1043
 5324TIP3    H237388   1.658   5.853   2.312 -0.0874 -0.6851 -1.1311
 5325TIP3   OH237389   3.443   2.362  16.475  0.1817  0.0477  0.3639
 5325TIP3    H137390   3.395   2.351  16.393  1.4315 -2.2770 -0.1549
 5325TIP3    H237391   3.526   2.402  16.449  0.6587 -0.8702  0.4391
 5326TIP3   OH237392   1.670   0.534  15.196 -0.1237  0.0175 -0.2326
 5326TIP3    H137393   1.735   0.463  15.192  0.0140  0.1806 -0.9385
 5326TIP3    H237394   1.586   0.490  15.188 -0.0898 -0.1542  0.2759
 5327TIP3   OH237395   2.318   4.825   5.000  1.0026  0.1548 -0.0482
 5327TIP3    H137396   2.278   4.912   4.992  0.1544 -0.2837 -0.8110
 5327TIP3    H237397   2.355   4.808   4.913  1.5239 -0.0804  0.2175
 5328TIP3   OH237398   6.332   6.136  14.827 -0.1765 -0.0267  0.1824
 5328TIP3    H137399   6.260   6.191  14.857 -0.4750  0.7766 -1.8342
 5328TIP3    H237400   6.334   6.149  14.732  2.0837 -0.6964  0.0769
 5329TIP3   OH237401   0.854   0.925  15.324 -0.5739  0.0638  0.6282
 5329TIP3    H137402   0.808   0.999  15.362 -0.0357  0.2650  0.8979
 5329TIP3    H237403   0.846   0.938  15.229 -1.2208 -0.0058  0.6683
 5330TIP3   OH237404   0.758   2.106  16.014 -0.6972  0.3477 -0.0741
 5330TIP3    H137405   0.784   2.124  15.924 -0.8739 -0.6658 -0.3405
 5330TIP3    H237406   0.672   2.149  16.023 -1.5530 -1.0831 -0.9921
 5331TIP3   OH237407   0.064   1.141  12.218 -0.0346 -0.2678 -0.2849
 5331TIP3    H137408   0.094   1.129  12.308  0.8329 -0.5896 -0.6061
 5331TIP3    H237409   0.144   1.144  12.166 -0.5623 -1.7512 -1.2490
 5332TIP3   OH237410   2.551   6.326  11.556 -0.1521 -0.1048  0.2229
 5332TIP3    H137411   2.628   6.292  11.510  0.1817  0.0034  0.6947
 5332TIP3    H237412   2.481   6.265  11.533  0.3164 -0.8010  0.6190
 5333TIP3   OH237413   1.574   1.253  13.013  1.1346  0.0742 -0.1292
 5333TIP3    H137414   1.614   1.249  13.100  1.4277 -0.1971 -0.2725
 5333TIP3    H237415   1.509   1.183  13.014  0.8319  0.3550  0.0185
 5334TIP3   OH237416   6.189   4.265  14.753 -0.4023 -0.3316 -0.4763
 5334TIP3    H137417   6.202   4.356  14.779  1.5476 -0.1464 -1.8516
 5334TIP3    H237418   6.105   4.265  14.707 -0.4708  0.7620 -0.3798
 5335TIP3   OH237419   4.386   5.230  13.655  0.2220 -0.2912 -0.5162
 5335TIP3    H137420   4.396   5.163  13.723  0.1559 -0.7985 -0.9949
 5335TIP3    H237421   4.475   5.260  13.638  0.1448  0.5977  0.5268
 5336TIP3   OH237422   2.960   0.972   2.732 -0.3145 -0.0134 -0.3638
 5336TIP3    H137423   3.007   0.980   2.649  0.0479 -0.8657 -0.2469
 5336TIP3    H237424   2.975   0.882   2.761 -2.6689 -0.5974 -0.7111
 5337TIP3   OH237425   2.740   2.938  12.320 -0.2678  0.4649 -0.0117
 5337TIP3    H137426   2.729   2.859  12.267 -0.0715  0.1497  0.4110
 5337TIP3    H237427   2.715   3.010  12.261 -1.9814 -0.0225  0.0841
 5338TIP3   OH237428   6.057   0.999  12.017  0.4009 -0.2311 -0.4582
 5338TIP3    H137429   6.140   1.045  12.008  1.2671 -1.8512 -1.1740
 5338TIP3    H237430   6.077   0.927  12.077 -0.9426  0.3473  0.7333
 5339TIP3   OH237431   4.512   0.360   0.786 -0.3403  0.0589 -0.2896
 5339TIP3    H137432   4.427   0.399   0.765 -0.8462 -0.5768  0.5114
 5339TIP3    H237433   4.561   0.363   0.704 -0.4295  2.1613 -0.3279
 5340TIP3   OH237434   0.853   5.713   0.751 -0.3094 -0.1948  0.3481
 5340TIP3    H137435   0.808   5.633   0.723 -1.9312  1.1852 -1.2846
 5340TIP3    H237436   0.787   5.761   0.801  0.0414  0.9022 -0.2063
 5341TIP3   OH237437   6.688   3.687  11.776  0.8874 -0.1780  0.3065
 5341TIP3    H137438   6.652   3.679  11.864  0.1340 -0.8740 -0.0582
 5341TIP3    H237439   6.774   3.645  11.782  0.2563 -1.5189  0.3826
 5342TIP3   OH237440   4.066   5.240   0.201 -0.2867 -0.1059  0.4278
 5342TIP3    H137441   4.150   5.273   0.171 -1.2768  1.2609 -0.9832
 5342TIP3    H237442   4.074   5.144   0.194  0.3181  0.0691 -2.1241
 5343TIP3   OH237443   4.826   5.508   6.280  0.0762 -0.2785 -0.0462
 5343TIP3    H137444   4.887   5.496   6.207 -0.2025 -0.3062 -0.2768
 5343TIP3    H237445   4.759   5.566   6.245  2.0636  3.1564  1.4279
 5344TIP3   OH237446   0.564   4.361  14.614 -0.3183  0.1481  0.1003
 5344TIP3    H137447   0.508   4.368  14.537  1.5825  0.6307 -1.3084
 5344TIP3    H237448   0.596   4.450  14.629  0.1525 -0.1279  0.8254
 5345TIP3   OH237449   4.123   6.067  14.580 -0.0758  0.1246  0.3086
 5345TIP3    H137450   4.062   6.058  14.506 -1.7086  0.3197  1.5773
 5345TIP3    H237451   4.099   6.150  14.621  0.3992 -0.2779  1.4246
 5346TIP3   OH237452   0.541   4.348  15.279 -0.1494 -0.1858 -0.0202
 5346TIP3    H137453   0.494   4.406  15.339  0.3354  0.3987 -0.1887
 5346TIP3    H237454   0.632   4.376  15.285  0.0725 -0.8327 -0.2289
 5347TIP3   OH237455   2.731   4.863  15.489  0.1339 -0.0660  0.7108
 5347TIP3    H137456   2.823   4.888  15.481  0.3940 -0.9102  0.9825
 5347TIP3    H237457   2.733   4.769  15.510 -0.7965 -0.2027  0.2548
 5348TIP3   OH237458   1.056   1.744  14.549  0.6286 -0.0827 -0.4130
 5348TIP3    H137459   1.149   1.736  14.571  0.1607 -0.2787  1.6504
 5348TIP3    H237460   1.031   1.830  14.584  0.0496  0.0405 -1.1015
 5349TIP3   OH237461   5.549   0.983  16.158  0.1666  0.0245 -0.0461
 5349TIP3    H137462   5.591   1.067  16.139  1.1791 -0.6702 -0.9859
 5349TIP3    H237463   5.462   1.007  16.191  0.5518  1.4434  0.0044
 5350TIP3   OH237464   2.767   1.577  15.603  0.1362 -0.5201 -0.3319
 5350TIP3    H137465   2.829   1.602  15.672  0.6588  1.0976 -1.3273
 5350TIP3    H237466   2.816   1.517  15.548 -0.1499 -1.4938  0.4351
 5351TIP3   OH237467   4.899   1.576  16.204 -0.0232 -0.3312  1.0653
 5351TIP3    H137468   4.854   1.622  16.275  0.3849  0.2528  0.9486
 5351TIP3    H237469   4.979   1.626  16.188  0.6476 -1.3122  1.2177
 5352TIP3   OH237470   3.453   6.669   5.462  0.1523  0.0309  0.1733
 5352TIP3    H137471   3.515   6.738   5.438 -0.2804 -0.1743 -1.6449
 5352TIP3    H237472   3.375   6.688   5.410 -0.6987 -0.7150  1.1290
 5353TIP3   OH237473   3.433   0.838   3.089  0.6007 -0.5534 -0.6256
 5353TIP3    H137474   3.525   0.852   3.110  0.3188  0.7561 -0.1345
 5353TIP3    H237475   3.422   0.871   3.000  0.6452 -0.9238 -0.7713
 5354TIP3   OH237476   0.754   0.290   5.545 -0.6141  0.2025 -0.9070
 5354TIP3    H137477   0.683   0.268   5.605  0.5966 -0.4409  0.3325
 5354TIP3    H237478   0.710   0.315   5.464 -2.2399 -0.2729 -0.2025
 5355TIP3   OH237479   5.009   3.470   3.391 -0.1712  0.2505 -0.4692
 5355TIP3    H137480   5.052   3.439   3.311 -1.2868  0.4567 -1.1733
 5355TIP3    H237481   4.917   3.447   3.378 -0.3366  0.1213  0.8496
 5356TIP3   OH237482   5.730   6.408   4.016  0.2634 -0.1622 -0.2768
 5356TIP3    H137483   5.651   6.367   4.051 -0.2291 -0.5001 -1.6820
 5356TIP3    H237484   5.801   6.377   4.073 -0.6220  0.3260  1.1392
 5357TIP3   OH237485   5.423   3.153  13.210  0.3423  0.1690  0.4767
 5357TIP3    H137486   5.331   3.176  13.198  0.5380 -0.0769 -2.2623
 5357TIP3    H237487   5.470   3.235  13.195  0.6329 -0.0612  0.1123
 5358TIP3   OH237488   5.389   6.176  13.598 -0.0390  0.3436 -0.3098
 5358TIP3    H137489   5.401   6.271  13.593  0.3565  0.3146  0.0358
 5358TIP3    H237490   5.324   6.164  13.667  0.8369  0.3060  0.5277
 5359TIP3   OH237491   1.989   0.712  13.991  0.9943 -0.1490 -0.4913
 5359TIP3    H137492   2.080   0.712  14.020  0.9465 -1.3748 -0.2788
 5359TIP3    H237493   1.976   0.624  13.955 -0.3272 -0.2509  0.2010
 5360TIP3   OH237494   4.755   3.639  15.831  0.2314 -0.0645  0.7776
 5360TIP3    H137495   4.688   3.675  15.774 -0.0458 -0.0274  1.1215
 5360TIP3    H237496   4.838   3.662  15.788  0.0187 -1.9179 -0.7307
 5361TIP3   OH237497   6.142   3.126  14.811  0.5306  0.5562  0.4780
 5361TIP3    H137498   6.195   3.190  14.763 -0.3183 -0.2477 -1.6848
 5361TIP3    H237499   6.203   3.079  14.867  1.8595  0.6151 -0.8777
 5362TIP3   OH237500   0.821   4.176  14.696  0.3890 -0.3244 -0.2208
 5362TIP3    H137501   0.813   4.099  14.639 -0.9201 -1.3807  1.3197
 5362TIP3    H237502   0.755   4.237  14.663  0.1278 -0.6374 -0.2785
 5363TIP3   OH237503   5.744   3.154  15.758  0.0440  0.1167  0.0826
 5363TIP3    H137504   5.808   3.086  15.737  0.1775 -0.2579  1.5941
 5363TIP3    H237505   5.690   3.162  15.679  1.3192 -0.2669 -0.8547
 5364TIP3   OH237506   2.175   0.639  12.626 -0.5269 -0.1289 -0.7292
 5364TIP3    H137507   2.133   0.611  12.545 -0.1530  0.4328 -1.1317
 5364TIP3    H237508   2.263   0.602  12.622 -0.4876 -0.0521 -0.6053
 5365TIP3   OH237509   1.754   6.225  10.504 -0.3487 -0.0715 -0.0117
 5365TIP3    H137510   1.790   6.201  10.419 -0.3033  2.0552 -0.6515
 5365TIP3    H237511   1.664   6.192  10.502  0.0660 -1.2156 -0.3192
 5366TIP3   OH237512   3.374   0.356  16.807  0.4085 -0.4347 -0.0953
 5366TIP3    H137513   3.415   0.348  16.721 -0.5503 -1.7498 -0.4569
 5366TIP3    H237514   3.426   0.423  16.852  0.6497  0.5909 -1.8356
 5367TIP3   OH237515   0.912   3.522   4.213  0.1802 -0.3303  0.2612
 5367TIP3    H137516   0.847   3.564   4.157  0.0249  1.3872  1.6396
 5367TIP3    H237517   0.997   3.547   4.175  0.1006  1.5504  1.1966
 5368TIP3   OH237518   4.946   4.735  14.235 -0.0794  0.1701  0.1673
 5368TIP3    H137519   4.930   4.774  14.321 -0.6525  1.0420 -0.3240
 5368TIP3    H237520   4.858   4.724  14.197  0.1761 -0.0806 -0.3672
 5369TIP3   OH237521   0.624   5.784   0.892 -0.2541 -0.5179  0.9228
 5369TIP3    H137522   0.612   5.721   0.963  4.1849 -0.1787  2.3008
 5369TIP3    H237523   0.628   5.869   0.936 -0.9183  0.1164 -0.2135
 5370TIP3   OH237524   3.344   3.216   0.873 -0.7828  0.1084 -0.7715
 5370TIP3    H137525   3.429   3.204   0.916 -0.4077  1.5454 -1.0814
 5370TIP3    H237526   3.280   3.204   0.944 -0.1508  3.4289  0.5373
 5371TIP3   OH237527   5.789   6.749   0.386 -0.8052  0.1091  0.4686
 5371TIP3    H137528   5.715   6.688   0.384  0.1405 -1.1014 -2.3191
 5371TIP3    H237529   5.822   6.751   0.296  0.0137  3.8394  0.6806
 5372TIP3   OH237530   2.497   5.583   3.157 -0.9329  0.0732  0.2717
 5372TIP3    H137531   2.461   5.623   3.237  0.0280 -0.7535  1.1429
 5372TIP3    H237532   2.591   5.600   3.162 -1.0705  1.9649 -1.8413
 5373TIP3   OH237533   1.740   4.955  16.295 -0.4465 -0.0771  0.2624
 5373TIP3    H137534   1.730   4.868  16.333  0.9835  0.0750  1.0453
 5373TIP3    H237535   1.754   4.939  16.202 -0.5683 -0.6601  0.3431
 5374TIP3   OH237536   1.585   6.056   2.778 -0.6108 -0.3058 -0.1162
 5374TIP3    H137537   1.646   6.004   2.829 -0.1761  0.7110  0.4269
 5374TIP3    H237538   1.510   6.070   2.836 -0.6055 -0.0891 -0.1610
 5375TIP3   OH237539   5.801   0.015  16.389  0.1253 -0.3878  0.6430
 5375TIP3    H137540   5.881   0.051  16.427 -1.0552  2.4253  0.7497
 5375TIP3    H237541   5.756  -0.027  16.462  0.3010  0.3414  1.1829
 5376TIP3   OH237542   2.744   5.702   0.065 -0.1811  0.1334  0.0404
 5376TIP3    H137543   2.704   5.691  -0.021  0.0142 -0.9783  0.0692
 5376TIP3    H237544   2.688   5.650   0.124  0.1705  0.1907  0.4285
 5377TIP3   OH237545   5.769   5.457  12.338 -0.1733 -0.0574 -0.0872
 5377TIP3    H137546   5.710   5.390  12.373  1.6240 -1.0745  1.1952
 5377TIP3    H237547   5.740   5.470  12.248 -2.8450  0.1355  0.7164
 5378TIP3   OH237548   5.236   5.180   0.882 -0.0444 -0.4854 -0.6274
 5378TIP3    H137549   5.288   5.227   0.817  0.1542 -1.5128 -1.2310
 5378TIP3    H237550   5.150   5.169   0.841 -0.4514  0.3659 -0.0197
 5379TIP3   OH237551   1.389   2.058  13.110  0.3800 -0.4667  0.1746
 5379TIP3    H137552   1.436   2.107  13.043  0.0181  0.4606  0.5687
 5379TIP3    H237553   1.297   2.069  13.087  0.1862  0.7910  1.3985
 5380TIP3   OH237554   5.242   5.403   5.256  0.2643 -0.1731  0.2303
 5380TIP3    H137555   5.232   5.364   5.170 -0.7580 -0.7602  0.6031
 5380TIP3    H237556   5.201   5.490   5.249 -0.8747 -0.6787  0.4284
 5381TIP3   OH237557   2.584   1.007  16.765  0.6401  0.2232 -0.0941
 5381TIP3    H137558   2.631   0.924  16.756  0.8687  0.3983 -0.5947
 5381TIP3    H237559   2.531   1.012  16.685  0.9469  0.7543 -0.2641
 5382TIP3   OH237560   1.865   4.903  15.675 -0.2704 -0.0369 -0.6421
 5382TIP3    H137561   1.839   4.835  15.614 -0.3586 -0.5584 -0.0365
 5382TIP3    H237562   1.801   4.973  15.663 -1.2109 -0.7819 -0.0542
 5383TIP3   OH237563   0.395   5.679   2.422 -0.1538 -0.0469  0.0728
 5383TIP3    H137564   0.322   5.665   2.482  0.6078 -2.6690  0.4796
 5383TIP3    H237565   0.375   5.624   2.346 -0.2574  1.8988 -1.3955
 5384TIP3   OH237566   0.627   4.883  15.895 -0.3765 -0.0512  0.4313
 5384TIP3    H137567   0.672   4.808  15.934 -0.3682 -0.6766 -0.7364
 5384TIP3    H237568   0.682   4.958  15.917 -0.4748 -0.3412  1.7630
 5385TIP3   OH237569   4.387   1.078   1.217  0.7119  0.4490 -0.1634
 5385TIP3    H137570   4.440   1.148   1.179  0.4007 -0.4990 -2.4807
 5385TIP3    H237571   4.297   1.108   1.207  0.5942 -0.1161 -0.8597
 5386TIP3   OH237572   1.918   1.617  12.057  0.7999  0.1058 -0.1226
 5386TIP3    H137573   1.943   1.540  12.007 -2.5665 -1.9776  1.0751
 5386TIP3    H237574   1.981   1.621  12.129  1.4489 -1.1280 -0.6084
 5387TIP3   OH237575   3.377   6.455   5.872  0.0374 -0.3280  0.3672
 5387TIP3    H137576   3.314   6.428   5.805  2.6401 -1.9960 -1.5832
 5387TIP3    H237577   3.418   6.534   5.836 -1.0540  0.9406  1.7760
 5388TIP3   OH237578   3.469   1.129  11.657  0.2112  0.0608  0.5522
 5388TIP3    H137579   3.536   1.092  11.714  2.9078  1.2055 -1.6246
 5388TIP3    H237580   3.431   1.201  11.707 -1.3415 -2.1761  2.8074
 5389TIP3   OH237581   0.335   3.451  16.868  0.1967 -0.3647 -0.5126
 5389TIP3    H137582   0.331   3.372  16.814 -1.2273 -0.6914  0.0093
 5389TIP3    H237583   0.425   3.481  16.861  1.0030 -2.5011 -0.0703
 5390TIP3   OH237584   3.146   1.643  14.812  0.3490 -0.1888 -0.3907
 5390TIP3    H137585   3.239   1.622  14.819  0.2329 -0.8436 -0.6861
 5390TIP3    H237586   3.108   1.566  14.771 -0.7997 -1.1183  2.2254
 5391TIP3   OH237587   4.850   5.856   2.948  0.2278 -0.1941 -0.1395
 5391TIP3    H137588   4.779   5.848   2.885  0.7401  0.5211 -0.8251
 5391TIP3    H237589   4.896   5.772   2.942 -0.5484 -0.6644  0.3179
 5392TIP3   OH237590   2.336   0.083  17.126  0.1268 -0.1255 -0.0746
 5392TIP3    H137591   2.362   0.152  17.187 -2.2090  0.8263 -0.0422
 5392TIP3    H237592   2.418   0.042  17.100  1.8275  3.4466 -0.9983
 5393TIP3   OH237593   2.616   5.283  12.475  0.3438 -0.3478 -0.0717
 5393TIP3    H137594   2.597   5.358  12.419 -1.0628  0.7542  1.7909
 5393TIP3    H237595   2.712   5.279  12.478  0.4453  0.2277 -1.6048
 5394TIP3   OH237596   0.664   4.747   5.839 -0.3189 -0.1066  0.1095
 5394TIP3    H137597   0.717   4.678   5.879  0.2900  0.0122 -0.4779
 5394TIP3    H237598   0.640   4.713   5.753  0.0704  0.4458 -0.2254
 5395TIP3   OH237599   6.442   2.724  13.812  0.0918 -0.1566 -0.3675
 5395TIP3    H137600   6.442   2.689  13.722  1.1997  1.5492 -1.0794
 5395TIP3    H237601   6.368   2.681  13.854  0.2182 -1.8500 -1.7555
 5396TIP3   OH237602   1.656   3.998   2.578  0.0645  0.0038  0.8532
 5396TIP3    H137603   1.747   3.972   2.565  0.1625 -0.0744  1.6325
 5396TIP3    H237604   1.611   3.918   2.606 -0.2534  0.0333  0.4398
 5397TIP3   OH237605   0.540   0.909  17.038  0.0737  0.1957  0.3234
 5397TIP3    H137606   0.493   0.885  17.118 -0.6357 -2.2174 -0.7408
 5397TIP3    H237607   0.472   0.937  16.978  0.2867 -0.6184 -0.3111
 5398TIP3   OH237608   2.527   1.512  12.180  0.5776 -0.6371  0.0532
 5398TIP3    H137609   2.475   1.472  12.249  0.8318 -0.2217  0.4924
 5398TIP3    H237610   2.505   1.606  12.185  1.3053 -0.4710  0.1951
 5399TIP3   OH237611   4.239   2.113   5.829  0.0381  0.5187  0.1539
 5399TIP3    H137612   4.234   2.205   5.804  1.4842  0.3568 -0.8450
 5399TIP3    H237613   4.158   2.074   5.795  0.6788  0.8801 -1.9009
 5400TIP3   OH237614   5.192   6.536  12.337  0.3998 -0.7207  0.0082
 5400TIP3    H137615   5.254   6.486  12.390  0.5915 -0.0808  0.3969
 5400TIP3    H237616   5.146   6.593  12.400 -1.8574 -2.4187  0.0118
 5401TIP3   OH237617   1.819   2.403   3.277 -0.2215  0.1510 -0.6344
 5401TIP3    H137618   1.842   2.375   3.188  0.1202  1.1177 -0.8643
 5401TIP3    H237619   1.804   2.322   3.325  0.5171 -0.4122 -1.3338
 5402TIP3   OH237620   0.760   6.461   1.955  0.1748 -0.1257 -0.5515
 5402TIP3    H137621   0.767   6.543   1.906  1.1710 -0.6803 -1.3711
 5402TIP3    H237622   0.847   6.448   1.994 -0.7089  0.5588  1.8475
 5403TIP3   OH237623   1.113   4.560   2.022  0.5668  0.2553  0.2534
 5403TIP3    H137624   1.033   4.523   1.983 -0.4047  1.5419  0.9292
 5403TIP3    H237625   1.182   4.541   1.958 -0.3433 -0.5665 -0.5235
 5404TIP3   OH237626   4.923   6.746  12.860 -0.6111  0.1169 -0.0917
 5404TIP3    H137627   4.852   6.741  12.796 -0.2622 -3.8859 -0.4203
 5404TIP3    H237628   4.878   6.757  12.944 -1.4138  0.3433 -0.5366
 5405TIP3   OH237629   4.965   4.040   4.196  0.2649  0.1502  0.5057
 5405TIP3    H137630   4.967   4.037   4.291  1.8206 -3.1816  0.5358
 5405TIP3    H237631   5.055   4.020   4.169  0.0154  1.6104 -1.6996
 5406TIP3   OH237632   4.106   5.619   5.550  0.2888  0.1026  0.5576
 5406TIP3    H137633   4.083   5.573   5.468 -1.4852 -0.2069  1.1825
 5406TIP3    H237634   4.126   5.708   5.522  1.4999 -0.4477 -0.4129
 5407TIP3   OH237635   0.606   3.490   2.702 -0.2012 -0.4220  0.5487
 5407TIP3    H137636   0.688   3.447   2.676  1.5613  0.9662  3.2519
 5407TIP3    H237637   0.580   3.445   2.782 -1.3017  0.0856  0.4943
 5408TIP3   OH237638   5.568   6.469   3.415  0.3019  0.5349 -0.1333
 5408TIP3    H137639   5.550   6.455   3.508 -1.9607 -0.2273 -0.6245
 5408TIP3    H237640   5.553   6.383   3.375 -1.0475  1.3556 -1.4900
 5409TIP3   OH237641   2.282   4.681   1.952  0.7932 -0.0694 -0.1984
 5409TIP3    H137642   2.284   4.652   1.861 -3.0193  1.4949 -0.9848
 5409TIP3    H237643   2.323   4.767   1.951  0.8547 -0.1013 -0.4172
 5410TIP3   OH237644   6.576   0.646   4.992 -0.4327 -0.3076  0.2570
 5410TIP3    H137645   6.655   0.689   4.961 -0.3590 -0.0899  0.7388
 5410TIP3    H237646   6.505   0.707   4.971 -0.1664  0.8517  2.3888
 5411TIP3   OH237647   6.369   5.534   4.898  0.1427 -0.0157 -0.0047
 5411TIP3    H137648   6.363   5.554   4.991  1.9656  1.4301 -0.1258
 5411TIP3    H237649   6.460   5.556   4.875  0.5709 -2.9449 -1.5453
 5412TIP3   OH237650   2.127   1.328  12.854  0.1592  0.5928  0.6045
 5412TIP3    H137651   2.156   1.288  12.936  1.5402  1.3651  0.5144
 5412TIP3    H237652   2.146   1.421  12.864 -1.7570  1.0662  0.2730
 5413TIP3   OH237653   2.167   3.900  12.547  0.2128 -0.1482 -0.0159
 5413TIP3    H137654   2.229   3.948  12.601  1.0860 -0.2117 -0.9253
 5413TIP3    H237655   2.189   3.808  12.561 -1.6937 -0.3856  2.0094
 5414TIP3   OH237656   0.064   5.578   4.347  0.3991 -0.0582  0.7076
 5414TIP3    H137657   0.130   5.646   4.331  0.2354 -0.3927 -1.6932
 5414TIP3    H237658   0.081   5.549   4.437  3.4357 -0.0433  0.2363
 5415TIP3   OH237659   5.276   0.706  16.395 -0.1014 -0.8518 -0.2004
 5415TIP3    H137660   5.296   0.681  16.485  1.1244  0.7313  0.0185
 5415TIP3    H237661   5.336   0.653  16.342 -1.6748 -2.6989 -0.2265
 5416TIP3   OH237662   4.896   6.640   1.470  0.1602  0.9922  0.2232
 5416TIP3    H137663   4.972   6.691   1.443 -0.7580  1.6367 -1.2619
 5416TIP3    H237664   4.855   6.612   1.388 -1.1064  0.5072  0.9920
 5417TIP3   OH237665   4.838   0.283   0.323 -0.4773  0.1872 -0.4356
 5417TIP3    H137666   4.770   0.319   0.266  0.1700  0.3614 -1.1124
 5417TIP3    H237667   4.883   0.219   0.268  0.4308  0.6659 -0.2676
 5418TIP3   OH237668   0.387   0.518  12.962  0.2490  0.5691  0.0087
 5418TIP3    H137669   0.325   0.577  13.005 -0.0296 -0.5732  1.2309
 5418TIP3    H237670   0.344   0.496  12.879 -0.6366  0.4109  0.4933
 5419TIP3   OH237671   1.106   5.027  10.522 -0.0407 -0.3416 -0.1887
 5419TIP3    H137672   1.052   4.952  10.498  1.4770 -1.0589 -1.5279
 5419TIP3    H237673   1.192   4.990  10.541  0.3690  0.9141  0.5189
 5420TIP3   OH237674   0.767   5.852   2.302  0.0588 -0.0748  0.4848
 5420TIP3    H137675   0.733   5.913   2.237  1.6173 -0.2134 -0.5168
 5420TIP3    H237676   0.738   5.765   2.272  0.0470 -0.0619  0.4588
 5421TIP3   OH237677   6.322   6.291   3.696  0.0996  0.0882 -0.1368
 5421TIP3    H137678   6.372   6.301   3.777 -1.5046  0.8981  0.8122
 5421TIP3    H237679   6.346   6.366   3.642  0.9763 -0.3126 -0.3132
 5422TIP3   OH237680   2.957   4.912   5.399  0.1589 -0.3260 -0.4031
 5422TIP3    H137681   2.950   4.820   5.426 -3.0822 -0.9298 -2.6508
 5422TIP3    H237682   3.046   4.919   5.364  2.0235 -1.3027  3.6244
 5423TIP3   OH237683   5.832   6.191   5.128  0.3051  0.0552 -0.5555
 5423TIP3    H137684   5.799   6.220   5.213  1.5881  2.1431 -0.6846
 5423TIP3    H237685   5.773   6.231   5.064 -1.2551 -2.3127 -0.7163
 5424TIP3   OH237686   2.667   5.863   3.670 -0.3278 -0.2285 -0.6110
 5424TIP3    H137687   2.665   5.860   3.574 -2.1195  1.1756 -0.6608
 5424TIP3    H237688   2.723   5.937   3.691  1.4770 -1.5652 -0.4875
 5425TIP3   OH237689   3.948   3.834   3.701  0.3790 -0.3546  0.7187
 5425TIP3    H137690   3.944   3.784   3.619  0.4326 -1.9767  1.6845
 5425TIP3    H237691   3.868   3.887   3.699 -0.6395 -1.8482  0.5214
 5426TIP3   OH237692   5.003   1.704   3.828  0.4454  0.0782 -0.1187
 5426TIP3    H137693   5.044   1.665   3.751  0.5015 -0.6166  0.2541
 5426TIP3    H237694   4.921   1.656   3.839  0.4474  0.1586  0.2616
 5427TIP3   OH237695   6.733   5.087  14.969  0.0333  0.5997  0.6256
 5427TIP3    H137696   6.770   5.127  15.048 -0.9035 -1.1799  2.0626
 5427TIP3    H237697   6.678   5.016  15.003  1.9944 -2.2697 -1.7168
 5428TIP3   OH237698   5.229   1.910   2.320 -0.3554  0.1549 -0.4541
 5428TIP3    H137699   5.302   1.873   2.270  1.9967  0.4127  2.4773
 5428TIP3    H237700   5.192   1.835   2.366 -3.0474 -0.2262 -2.9950
 5429TIP3   OH237701   1.016   0.209  12.154  0.3896 -0.3753 -0.5902
 5429TIP3    H137702   1.001   0.202  12.248 -1.1031 -0.7059 -0.8378
 5429TIP3    H237703   1.107   0.237  12.147  0.2792  0.4963  0.9717
 5430TIP3   OH237704   0.683   3.919  16.743  0.9235  0.2089  0.0998
 5430TIP3    H137705   0.681   3.824  16.743  0.5476  0.1934  1.6859
 5430TIP3    H237706   0.690   3.943  16.651 -3.0703 -1.2554 -0.7732
 5431TIP3   OH237707   3.024   3.285  16.608  0.1178  0.0521 -0.1725
 5431TIP3    H137708   2.984   3.275  16.695 -2.3710 -0.0625 -1.2314
 5431TIP3    H237709   3.037   3.379  16.598  0.7218  0.0393  0.4288
 5432TIP3   OH237710   5.054   4.030  13.741  0.3355 -0.0094  0.1214
 5432TIP3    H137711   5.084   4.120  13.752  1.2491 -0.1735 -0.8065
 5432TIP3    H237712   5.062   4.014  13.647 -0.2833 -0.9008  0.2080
 5433TIP3   OH237713   2.933   4.163   4.337  0.4408  0.3864  0.7656
 5433TIP3    H137714   2.852   4.182   4.384 -0.9579 -0.2309 -1.2835
 5433TIP3    H237715   2.954   4.243   4.290 -0.1655 -0.0788 -0.3362
 5434TIP3   OH237716   3.870   0.894   0.796  0.2533  0.3629 -0.4528
 5434TIP3    H137717   3.802   0.947   0.755 -0.8775 -0.7337 -0.0722
 5434TIP3    H237718   3.933   0.878   0.726  0.8193  2.4602 -0.4775
 5435TIP3   OH237719   4.046   2.395   0.358  0.4813  0.0407 -0.0061
 5435TIP3    H137720   4.069   2.487   0.376 -1.9733  0.4320  1.6422
 5435TIP3    H237721   3.999   2.398   0.275  0.4732  0.2607  0.0049
 5436TIP3   OH237722   1.906   6.670   3.845 -0.1289 -0.0798 -0.5023
 5436TIP3    H137723   1.847   6.736   3.883 -0.4204 -0.6612  0.0767
 5436TIP3    H237724   1.848   6.614   3.793 -0.5848 -2.1054  1.9513
 5437TIP3   OH237725   4.908   5.762  13.985 -0.3354 -0.2736 -0.8024
 5437TIP3    H137726   4.983   5.774  13.927  1.2542  1.4604  1.4150
 5437TIP3    H237727   4.874   5.850  13.998 -1.6556 -0.8310 -0.3519
 5438TIP3   OH237728   1.707   3.065  16.844 -0.2757  0.0866  0.6402
 5438TIP3    H137729   1.782   3.123  16.831 -0.2051  0.3319  1.9649
 5438TIP3    H237730   1.728   2.987  16.792  0.7685  0.2693  0.7481
 5439TIP3   OH237731   1.460   4.728  11.308 -0.5131 -0.1928  0.0163
 5439TIP3    H137732   1.473   4.822  11.318 -0.1342 -0.4521  2.3726
 5439TIP3    H237733   1.420   4.719  11.221  0.9944  1.9539 -0.9925
 5440TIP3   OH237734   2.190   1.239  16.639 -0.3481  0.8650 -0.3906
 5440TIP3    H137735   2.275   1.246  16.595 -0.5754  0.4907 -0.9003
 5440TIP3    H237736   2.133   1.199  16.574 -0.6511  0.1241  0.3090
 5441TIP3   OH237737   4.792   1.301   6.598 -0.8358  0.6702  0.1714
 5441TIP3    H137738   4.851   1.228   6.616 -1.1992  0.7270  1.7223
 5441TIP3    H237739   4.845   1.379   6.611 -0.8658  0.7089  0.0656
 5442TIP3   OH237740   4.085   5.833  16.129 -0.5288  0.2541  0.0219
 5442TIP3    H137741   4.036   5.877  16.198 -0.5830  2.0806 -1.1124
 5442TIP3    H237742   4.018   5.804  16.067 -0.4463 -0.9523  0.4745
 5443TIP3   OH237743   3.310   1.148   0.312  0.0442  0.2069  0.2893
 5443TIP3    H137744   3.364   1.072   0.335  0.6250  0.6678  0.4696
 5443TIP3    H237745   3.225   1.111   0.288 -0.3167 -0.3730  2.2993
 5444TIP3   OH237746   0.471   2.532   2.770  0.2021 -0.2112 -0.2027
 5444TIP3    H137747   0.539   2.585   2.812 -0.2120  1.2116 -1.2580
 5444TIP3    H237748   0.418   2.500   2.843  0.4680  0.8266  0.4666
 5445TIP3   OH237749   1.958   0.846   4.006  0.3116 -0.2946 -0.1073
 5445TIP3    H137750   1.935   0.858   3.913  1.1034  0.9777 -0.1653
 5445TIP3    H237751   2.040   0.894   4.016  0.1212 -0.2471  1.3126
 5446TIP3   OH237752   1.087   4.399  15.331  0.0749  0.4131  0.0636
 5446TIP3    H137753   1.055   4.330  15.273  1.4667 -0.0698 -0.1680
 5446TIP3    H237754   1.124   4.352  15.406  2.7148  0.7534 -0.9319
 5447TIP3   OH237755   5.132   2.938  11.504  0.0548  0.0014 -0.0640
 5447TIP3    H137756   5.182   2.860  11.482 -0.7192 -0.4105 -0.4045
 5447TIP3    H237757   5.196   2.997  11.544  0.3645 -1.3354  1.5060
 5448TIP3   OH237758   6.404   0.701   0.726  0.1767 -0.3432  0.4627
 5448TIP3    H137759   6.493   0.682   0.757  0.4843  1.1001  0.5489
 5448TIP3    H237760   6.417   0.737   0.638 -0.1909  1.0432  0.9489
 5449TIP3   OH237761   1.343   5.565   5.710  0.2417 -0.6981 -0.1317
 5449TIP3    H137762   1.438   5.562   5.720  0.0829 -1.8953  1.3982
 5449TIP3    H237763   1.315   5.641   5.761  0.3977  0.0436 -1.1109
 5450TIP3   OH237764   2.301   4.706  12.927  0.0065  0.2636  0.0253
 5450TIP3    H137765   2.237   4.674  12.864  1.9039 -1.5045 -1.1404
 5450TIP3    H237766   2.293   4.648  13.002  0.8690 -0.6070 -0.5329
 5451TIP3   OH237767   5.621   5.204   2.165 -0.6496  0.4321  0.1844
 5451TIP3    H137768   5.700   5.161   2.199 -0.9135 -0.9287 -0.8442
 5451TIP3    H237769   5.550   5.142   2.185 -1.4589  1.5774  0.9875
 5452TIP3   OH237770   3.087   2.975  15.674  0.7169 -0.1420 -0.0567
 5452TIP3    H137771   3.001   2.969  15.715 -1.2092  3.6129 -2.9170
 5452TIP3    H237772   3.116   3.065  15.690  3.5316 -0.8951 -0.3208
 5453TIP3   OH237773   5.761   0.633   0.960 -0.1715  0.2491 -0.3169
 5453TIP3    H137774   5.724   0.546   0.946  0.5196 -0.0859 -0.1193
 5453TIP3    H237775   5.814   0.649   0.881 -1.3729  1.0769 -0.9888
 5454TIP3   OH237776   5.830   1.456   3.246  0.6705  0.3055 -0.0435
 5454TIP3    H137777   5.813   1.548   3.269  0.0009  0.4032 -0.8919
 5454TIP3    H237778   5.845   1.458   3.151  0.4869 -0.4796 -0.0920
 5455TIP3   OH237779   1.483   1.047  12.667  0.5025 -0.1785  0.1688
 5455TIP3    H137780   1.455   1.138  12.672 -0.4353 -0.4041 -0.6483
 5455TIP3    H237781   1.403   0.998  12.646  1.1438 -1.0813 -0.2652
 5456TIP3   OH237782   6.528   6.062   3.564  0.2590 -0.0610  0.1308
 5456TIP3    H137783   6.555   6.100   3.480 -0.6429 -0.8110 -0.5256
 5456TIP3    H237784   6.552   6.128   3.629  0.9395  0.5564 -0.7147
 5457TIP3   OH237785   2.207   2.121  16.878  0.0437 -0.0383  0.5465
 5457TIP3    H137786   2.184   2.137  16.970  1.9338  1.8326  0.7876
 5457TIP3    H237787   2.234   2.030  16.876 -1.3578 -0.5182  1.5175
 5458TIP3   OH237788   1.664   2.003   4.394  0.2313  0.3768  0.1444
 5458TIP3    H137789   1.744   1.998   4.342  1.2073  1.0321  1.5362
 5458TIP3    H237790   1.691   2.043   4.477 -0.9860 -1.8298  1.7225
 5459TIP3   OH237791   2.321   4.650  16.126 -0.0246 -0.3183 -0.4445
 5459TIP3    H137792   2.247   4.604  16.167 -1.2841 -0.6314 -2.9045
 5459TIP3    H237793   2.280   4.719  16.074  1.5677  0.6055 -0.5403
 5460TIP3   OH237794   6.604   3.711  13.373  0.9585  0.2320  0.0532
 5460TIP3    H137795   6.577   3.715  13.464 -1.2087  0.3100 -0.5330
 5460TIP3    H237796   6.619   3.803  13.348  1.9762  0.1783  0.4159
 5461TIP3   OH237797   3.919   3.602   0.490 -0.0154  0.4430 -0.2165
 5461TIP3    H137798   3.864   3.673   0.455  0.9032  1.5577  0.5275
 5461TIP3    H237799   3.916   3.615   0.585  1.0786  0.1692 -0.1370
 5462TIP3   OH237800   1.428   2.993  14.515  0.3421 -0.3714 -0.4736
 5462TIP3    H137801   1.338   2.969  14.495 -0.6173  2.0281  0.5359
 5462TIP3    H237802   1.443   3.073  14.464  1.6333 -0.3255 -0.0578
 5463TIP3   OH237803   2.153   0.780   1.098  0.4607  0.0060  0.2616
 5463TIP3    H137804   2.203   0.701   1.080 -0.3865 -0.3092 -0.7714
 5463TIP3    H237805   2.172   0.800   1.190  1.6713 -0.6683  0.1724
 5464TIP3   OH237806   1.028   3.589   3.616 -0.0457  0.5687 -0.1591
 5464TIP3    H137807   1.098   3.627   3.668  0.0370 -2.3357  2.0913
 5464TIP3    H237808   1.072   3.531   3.555 -0.3277 -2.5822  2.3815
 5465TIP3   OH237809   4.148   6.076   0.465 -0.3232  0.5386 -0.1949
 5465TIP3    H137810   4.097   6.076   0.384  0.1268  0.5205 -0.4844
 5465TIP3    H237811   4.220   6.137   0.448  0.1926 -0.0288 -0.0820
 5466TIP3   OH237812   5.715   5.641   2.479  0.1165  0.3273 -0.1574
 5466TIP3    H137813   5.748   5.593   2.403 -0.6136 -0.1771 -0.1609
 5466TIP3    H237814   5.794   5.664   2.528  0.5416 -0.0641 -0.6412
 5467TIP3   OH237815   0.457   4.596  11.432  0.5610 -0.3902  0.1833
 5467TIP3    H137816   0.483   4.676  11.478  0.7142 -0.3425  0.0159
 5467TIP3    H237817   0.528   4.535  11.449  0.9908 -0.1304 -0.6103
 5468TIP3   OH237818   4.781   6.380   5.570 -0.6185  0.1268  0.1546
 5468TIP3    H137819   4.741   6.358   5.486 -1.8656  1.5610  0.3369
 5468TIP3    H237820   4.876   6.373   5.555 -0.8072  0.8117 -1.4911
 5469TIP3   OH237821   6.555   4.410  16.923  0.1054 -0.0469 -0.2788
 5469TIP3    H137822   6.633   4.442  16.877  0.2768  1.4702  0.9626
 5469TIP3    H237823   6.531   4.482  16.982 -1.9637 -0.6635 -0.2861
 5470TIP3   OH237824   3.912   6.348  15.005 -0.1428 -0.5760 -0.7729
 5470TIP3    H137825   3.820   6.324  14.992  0.1301 -1.8869 -0.3563
 5470TIP3    H237826   3.911   6.408  15.080 -0.8752  1.1676 -2.0930
 5471TIP3   OH237827   4.972   5.672   4.369 -0.0088  0.0774 -0.4662
 5471TIP3    H137828   4.937   5.592   4.407 -2.2133  0.6201 -1.2444
 5471TIP3    H237829   4.944   5.670   4.278  1.0511  1.1198 -0.8512
 5472TIP3   OH237830   3.040   1.664  15.572 -0.5508  0.2462 -0.0043
 5472TIP3    H137831   3.110   1.706  15.622 -0.2112 -0.5946  0.2532
 5472TIP3    H237832   3.071   1.666  15.481 -1.6430  2.7301 -0.3951
 5473TIP3   OH237833   0.949   1.208  14.638 -0.2955 -0.0481 -0.2827
 5473TIP3    H137834   0.853   1.211  14.644 -0.3216  2.4498 -0.7141
 5473TIP3    H237835   0.968   1.143  14.570 -1.7255  0.1473 -0.8919
 5474TIP3   OH237836   4.154   1.265  15.868 -0.0173 -0.2294  0.1339
 5474TIP3    H137837   4.152   1.346  15.919 -2.7238  0.0392 -0.2199
 5474TIP3    H237838   4.228   1.215  15.903 -0.2498  1.0219  2.5791
 5475TIP3   OH237839   3.499   5.388  12.932  0.0132 -0.9808  0.3546
 5475TIP3    H137840   3.526   5.312  12.880 -0.2291 -1.0546  0.3318
 5475TIP3    H237841   3.562   5.456  12.911  1.0377 -1.5684  1.3779
 5476TIP3   OH237842   6.395   4.780   4.240 -0.5662 -0.7457 -0.1620
 5476TIP3    H137843   6.312   4.825   4.255 -0.3769 -0.5395  0.2637
 5476TIP3    H237844   6.387   4.745   4.151  0.0071  1.7466 -1.2861
 5477TIP3   OH237845   4.355   2.819  12.927  0.4669 -0.2391 -0.6657
 5477TIP3    H137846   4.427   2.778  12.879  1.2458  0.1944  0.1015
 5477TIP3    H237847   4.388   2.906  12.950 -0.9560  0.6745 -1.8176
 5478TIP3   OH237848   6.758   1.886  16.614 -0.2660  0.4157 -0.3897
 5478TIP3    H137849   6.725   1.975  16.600 -1.3826  0.0033 -0.5603
 5478TIP3    H237850   6.808   1.891  16.695  2.3826  1.8683 -1.9529
 5479TIP3   OH237851   5.417   2.772  16.102 -0.1114 -0.2782  0.2707
 5479TIP3    H137852   5.324   2.785  16.083 -0.0560  0.2961  0.3857
 5479TIP3    H237853   5.440   2.844  16.161  0.2095 -0.8799  0.8913
 5480TIP3   OH237854   0.877   6.399   2.714  0.2810  0.5782  0.3031
 5480TIP3    H137855   0.955   6.416   2.662  0.7520 -1.3305  0.3165
 5480TIP3    H237856   0.870   6.304   2.717 -2.5514  0.6594 -0.4578
 5481TIP3   OH237857   6.488   1.042  16.531 -0.0296 -0.6484  0.0237
 5481TIP3    H137858   6.580   1.068  16.537 -0.3052  0.1663  0.9379
 5481TIP3    H237859   6.487   0.953  16.567  0.5845 -1.1710 -1.1837
 5482TIP3   OH237860   6.617   4.023  16.492  0.5378 -0.0174 -0.1677
 5482TIP3    H137861   6.691   4.013  16.431  0.6632 -1.6658  0.2145
 5482TIP3    H237862   6.645   4.093  16.551  1.8398 -0.6387 -0.0027
 5483TIP3   OH237863   6.271   2.707   2.158  0.1200  0.2901  0.7475
 5483TIP3    H137864   6.271   2.613   2.178  1.4808 -0.0386 -0.6229
 5483TIP3    H237865   6.186   2.723   2.118 -1.1486  0.2136  3.1898
 5484TIP3   OH237866   6.561   3.799   0.596  0.2433  0.2982  0.2088
 5484TIP3    H137867   6.650   3.830   0.611  1.3271 -1.3386 -2.1564
 5484TIP3    H237868   6.524   3.860   0.533 -0.6991  1.4706  1.8177
 5485TIP3   OH237869   3.273   3.433   4.660  0.3210  0.3548 -0.2576
 5485TIP3    H137870   3.278   3.523   4.627 -0.5472 -0.0684 -1.6331
 5485TIP3    H237871   3.334   3.384   4.604  2.5226  0.4271  1.9205
 5486TIP3   OH237872   6.398   4.950   3.981 -0.0948  0.0627 -0.4304
 5486TIP3    H137873   6.389   5.045   3.992 -1.1177 -0.1437  0.6431
 5486TIP3    H237874   6.487   4.931   4.011  0.5131  0.8049 -1.6708
 5487TIP3   OH237875   3.588   5.250   4.762  0.2636 -0.4649 -0.0705
 5487TIP3    H137876   3.557   5.299   4.838 -2.5253 -2.0384 -0.0708
 5487TIP3    H237877   3.590   5.159   4.792 -1.1681 -1.1541 -1.9053
 5488TIP3   OH237878   5.572   3.874  16.559  0.0441  0.0447 -0.0733
 5488TIP3    H137879   5.556   3.826  16.640  0.5919 -1.9395 -1.0684
 5488TIP3    H237880   5.542   3.816  16.490  0.1087  1.4518 -1.3459
 5489TIP3   OH237881   0.996   3.490  15.607  0.0060 -0.3785  0.5506
 5489TIP3    H137882   0.980   3.515  15.698 -0.5464  1.0095  0.0977
 5489TIP3    H237883   1.091   3.502  15.596  0.1608 -1.0486  1.0663
 5490TIP3   OH237884   0.921   1.218  17.016  0.4109 -0.2623  0.2605
 5490TIP3    H137885   0.891   1.297  16.971  0.4946 -0.4096 -0.0589
 5490TIP3    H237886   0.921   1.241  17.109  2.1407  0.6989  0.0600
 5491TIP3   OH237887   1.170   6.668   0.877 -0.4389 -0.1985 -0.3484
 5491TIP3    H137888   1.126   6.667   0.792  0.8763 -4.3578 -1.2641
 5491TIP3    H237889   1.099   6.661   0.941 -1.3652  0.6383 -1.2467
 5492TIP3   OH237890   0.913   3.218   4.159 -0.3339 -0.0982 -0.1833
 5492TIP3    H137891   0.870   3.156   4.219  1.1183  0.2753  1.3258
 5492TIP3    H237892   0.857   3.295   4.159 -0.9180 -0.5188 -0.1857
 5493TIP3   OH237893   0.399   2.751  16.268  0.0507 -0.5171 -0.2047
 5493TIP3    H137894   0.312   2.724  16.238 -0.0894 -1.0632  0.6703
 5493TIP3    H237895   0.460   2.704  16.212 -0.1765 -3.0476  1.5179
 5494TIP3   OH237896   4.108   2.300   1.951  0.3696  0.2767  0.2207
 5494TIP3    H137897   4.058   2.246   2.012 -0.9367  0.0685 -0.9686
 5494TIP3    H237898   4.187   2.249   1.934 -0.6533 -1.1556 -0.5808
 5495TIP3   OH237899   1.776   0.332  13.640  0.3064 -0.1752 -0.2250
 5495TIP3    H137900   1.705   0.361  13.583 -1.1638 -0.3163  1.4359
 5495TIP3    H237901   1.798   0.244  13.609 -0.0425 -0.0168 -0.9323
 5496TIP3   OH237902   3.664   5.833  11.803 -0.1668  0.0640  0.0422
 5496TIP3    H137903   3.758   5.828  11.823  0.2369  0.9956 -1.4588
 5496TIP3    H237904   3.626   5.760  11.851  1.2790 -0.1627  0.9245
 5497TIP3   OH237905   5.942   6.314  14.467 -0.0952 -0.5989  0.2207
 5497TIP3    H137906   5.891   6.293  14.545  1.3220 -1.0938  1.0602
 5497TIP3    H237907   5.897   6.269  14.396 -2.2933  1.1131  0.4427
 5498TIP3   OH237908   5.432   3.315  16.100 -0.2639  0.5455 -0.1959
 5498TIP3    H137909   5.413   3.252  16.030  1.8760 -0.2445 -0.1441
 5498TIP3    H237910   5.496   3.375  16.061  2.3096 -0.9262  1.4840
 5499TIP3   OH237911   0.065   3.927  16.894 -0.4408 -0.4742  0.3193
 5499TIP3    H137912   0.013   3.893  16.967  1.3007  0.3230  2.0155
 5499TIP3    H237913   0.146   3.876  16.895  0.8564  1.4460  0.8912
 5500TIP3   OH237914   6.263   2.657  11.431 -0.0546  0.2978  0.0202
 5500TIP3    H137915   6.255   2.564  11.453 -1.1883  0.5175  0.5771
 5500TIP3    H237916   6.179   2.695  11.455  0.8756  1.7503  1.0918
 5501TIP3   OH237917   2.589   3.072   3.096  0.3486  0.2495 -0.1877
 5501TIP3    H137918   2.559   3.159   3.120  1.3573  0.3165  0.8720
 5501TIP3    H237919   2.606   3.028   3.179  1.4836 -0.3832 -0.7337
 5502TIP3   OH237920   5.547   3.963   4.348 -0.1999  0.1022  0.3268
 5502TIP3    H137921   5.610   4.035   4.346  0.8318 -0.6138  3.1395
 5502TIP3    H237922   5.482   3.990   4.413 -0.4175 -1.0289  0.5956
 5503TIP3   OH237923   1.903   3.522  13.152 -0.0093  0.4330  0.2425
 5503TIP3    H137924   1.920   3.569  13.234  2.9495 -1.3204  0.7582
 5503TIP3    H237925   1.989   3.509  13.113 -1.2196  0.0273 -2.5254
 5504TIP3   OH237926   3.625   2.936   0.096 -0.2019 -0.0763 -0.3568
 5504TIP3    H137927   3.676   2.882   0.156  1.2892  1.0813 -0.5313
 5504TIP3    H237928   3.673   3.018   0.091 -1.4052  0.5900 -1.5543
 5505TIP3   OH237929   0.321   3.227   1.204  0.7636 -0.0524  0.7776
 5505TIP3    H137930   0.398   3.284   1.212  0.3865  0.6434 -0.3435
 5505TIP3    H237931   0.336   3.158   1.268  2.4753 -0.0804  0.4011
 5506TIP3   OH237932   2.998   0.689  12.919  0.5265 -0.3769 -0.0243
 5506TIP3    H137933   3.013   0.777  12.954 -1.2663 -0.4295  1.0041
 5506TIP3    H237934   3.037   0.631  12.984  1.4391 -0.3719 -0.5514
 5507TIP3   OH237935   0.061   0.679  11.687  0.3365  0.0640 -0.6323
 5507TIP3    H137936   0.153   0.661  11.706  0.2141  0.4298  0.4203
 5507TIP3    H237937   0.060   0.709  11.597  1.1105 -0.9438 -0.9919
 5508TIP3   OH237938   1.655   1.116   4.724 -0.0140  0.0079 -0.0240
 5508TIP3    H137939   1.661   1.095   4.817  0.9710 -1.4393 -0.3853
 5508TIP3    H237940   1.739   1.159   4.705  0.0088 -0.1887 -0.3630
 5509TIP3   OH237941   4.801   3.877   3.187 -0.0119 -0.2144  0.2803
 5509TIP3    H137942   4.777   3.958   3.232  0.4076 -0.1143  0.3283
 5509TIP3    H237943   4.761   3.885   3.101  0.0457  0.0576  0.2766
 5510TIP3   OH237944   1.440   0.529  11.842  0.3438 -0.0195  0.1451
 5510TIP3    H137945   1.416   0.466  11.909 -0.6523  0.5629  0.3561
 5510TIP3    H237946   1.509   0.582  11.881 -1.1597  1.1976  1.2510
 5511TIP3   OH237947   6.347   3.634   3.319  0.0600  0.1791  0.6009
 5511TIP3    H137948   6.339   3.607   3.227 -0.7962 -0.9924  0.9865
 5511TIP3    H237949   6.441   3.631   3.337  0.1313 -0.9218  0.1311
 5512TIP3   OH237950   0.364   4.260  16.772 -0.5992 -0.1295  0.1249
 5512TIP3    H137951   0.442   4.312  16.753 -1.7739  1.6523 -0.0986
 5512TIP3    H237952   0.366   4.247  16.867 -0.0308 -0.0940  0.1192
 5513TIP3   OH237953   0.531   4.678   1.773 -0.1467  0.3409 -0.1588
 5513TIP3    H137954   0.554   4.682   1.866 -0.3304 -2.1268  0.0555
 5513TIP3    H237955   0.595   4.618   1.735 -0.2756  1.0676 -1.5855
 5514TIP3   OH237956   1.973   6.710   5.138  0.2173  0.0584 -0.4453
 5514TIP3    H137957   1.895   6.659   5.164  0.5628 -0.3106 -0.1109
 5514TIP3    H237958   2.037   6.643   5.112  1.0321  0.2538  0.9779
 5515TIP3   OH237959   6.722   6.164  11.261 -0.0296  0.4889 -0.6358
 5515TIP3    H137960   6.630   6.151  11.282  0.2235 -0.3222  0.0344
 5515TIP3    H237961   6.725   6.249  11.217 -1.0965  0.5079 -0.7012
 5516TIP3   OH237962   3.202   5.918   1.155 -0.0448 -0.2204  0.4456
 5516TIP3    H137963   3.285   5.910   1.107 -0.4017  0.1890 -0.2741
 5516TIP3    H237964   3.215   5.868   1.235  1.6276  1.5133  1.3350
 5517TIP3   OH237965   6.009   3.645  16.471 -0.1891  0.0667 -0.0722
 5517TIP3    H137966   6.010   3.715  16.405  0.5007  0.1379  0.0097
 5517TIP3    H237967   5.916   3.621  16.479 -0.2912  0.1215 -0.9966
 5518TIP3   OH237968   1.939   6.346  14.749  0.2512 -0.1577  0.2725
 5518TIP3    H137969   1.993   6.374  14.675 -1.3248  1.7174 -0.2521
 5518TIP3    H237970   1.918   6.427  14.795  2.3670 -1.3736  3.7358
 5519TIP3   OH237971   2.636   6.060  14.099 -0.8716  0.0794  0.0211
 5519TIP3    H137972   2.673   6.066  14.187 -2.6278  1.6845  0.6965
 5519TIP3    H237973   2.713   6.046  14.043  0.4716  0.6749  1.6046
 5520TIP3   OH237974   3.624   6.236  11.251  0.0139 -0.1221 -0.2669
 5520TIP3    H137975   3.585   6.149  11.254 -1.3123  0.3688 -1.7648
 5520TIP3    H237976   3.671   6.239  11.168  0.8516  0.2831  0.2109
 5521TIP3   OH237977   0.385   2.454  15.587 -0.4442 -0.1226 -0.2139
 5521TIP3    H137978   0.319   2.485  15.648 -1.5836 -2.5012 -0.1441
 5521TIP3    H237979   0.336   2.413  15.516  0.8358  2.3188 -2.7271
 5522TIP3   OH237980   6.063   2.533   5.895 -0.2659  0.6509  0.2840
 5522TIP3    H137981   5.968   2.546   5.902 -0.8218  0.0355 -3.4840
 5522TIP3    H237982   6.094   2.609   5.846  0.4453 -0.7804 -1.6522
 5523TIP3   OH237983   2.187   0.140  15.373  0.2309  0.1743  0.0939
 5523TIP3    H137984   2.265   0.089  15.349  0.1398 -0.3244  0.7987
 5523TIP3    H237985   2.174   0.120  15.466 -1.4165 -0.6862 -0.2790
 5524TIP3   OH237986   5.001   4.203  16.675 -0.2357  0.5499 -0.6457
 5524TIP3    H137987   5.027   4.265  16.743 -1.0280  0.6116 -0.3879
 5524TIP3    H237988   4.920   4.164  16.709 -0.7603  0.7455 -1.6681
 5525TIP3   OH237989   3.448   0.107   3.489  0.0615  0.4809 -0.2525
 5525TIP3    H137990   3.491   0.123   3.405  0.7856  0.9663  0.2084
 5525TIP3    H237991   3.460   0.188   3.538  0.1184 -0.0023  0.5362
 5526TIP3   OH237992   4.940   5.995  12.751 -0.3325  0.3632 -0.1656
 5526TIP3    H137993   4.865   5.936  12.759 -1.5130  1.9653  1.3867
 5526TIP3    H237994   5.015   5.941  12.778 -1.0071 -1.0667 -1.0411
 5527TIP3   OH237995   0.186   3.276  12.145  0.0137 -0.2080  0.0539
 5527TIP3    H137996   0.186   3.321  12.230 -0.4760 -2.1090  1.1212
 5527TIP3    H237997   0.165   3.345  12.082 -0.1962  1.1549  1.5316
 5528TIP3   OH237998   2.748   4.519  17.305 -0.2581  0.1907 -0.3758
 5528TIP3    H137999   2.656   4.525  17.331 -0.0279  1.5817  0.1502
 5528TIP3    H238000   2.752   4.440  17.251 -2.1163  1.0402 -1.8562
 5529TIP3   OH238001   1.640   3.988   6.623  0.5567  0.0598 -0.0179
 5529TIP3    H138002   1.720   4.028   6.656  1.1023  0.5395 -1.8107
 5529TIP3    H238003   1.570   4.048   6.650  0.8699  0.0515  0.8591
 5530TIP3   OH238004   2.491   4.124  13.741 -0.2076 -0.0594 -0.2415
 5530TIP3    H138005   2.475   4.214  13.714 -0.6553 -0.3137 -0.8351
 5530TIP3    H238006   2.513   4.077  13.661 -2.6548 -1.0655 -0.4342
 5531TIP3   OH238007   3.381   3.798   0.765  0.5817  0.2774  0.2074
 5531TIP3    H138008   3.309   3.775   0.706 -0.0914  2.1839  0.2136
 5531TIP3    H238009   3.350   3.771   0.851  0.4415 -0.1338  0.0298
 5532TIP3   OH238010   3.535   3.681   4.258  0.0301 -0.2788  0.0738
 5532TIP3    H138011   3.564   3.755   4.205 -0.7936 -0.2831 -0.4051
 5532TIP3    H238012   3.465   3.717   4.314 -0.8469 -0.8191 -0.6422
 5533TIP3   OH238013   4.574   1.653   6.142  0.4797 -0.6070 -0.5557
 5533TIP3    H138014   4.577   1.668   6.048  0.4705 -2.3551 -0.8696
 5533TIP3    H238015   4.663   1.626   6.165  0.6280  0.3723  0.0525
 5534TIP3   OH238016   1.147   3.992   3.504  0.1368 -0.1843  0.7617
 5534TIP3    H138017   1.235   4.021   3.479  0.8781 -0.7744  2.5376
 5534TIP3    H238018   1.162   3.917   3.561 -1.4942  0.2176  1.7727
 5535TIP3   OH238019   1.994   4.522  14.623 -0.5287 -0.3244  0.2789
 5535TIP3    H138020   1.942   4.444  14.608 -1.9260  0.0714  2.6144
 5535TIP3    H238021   1.989   4.537  14.717  0.9866  1.7165  0.1107
 5536TIP3   OH238022   1.761   4.180  12.692  0.8625 -0.4242 -0.5308
 5536TIP3    H138023   1.819   4.118  12.736  0.6156  0.8235  1.6830
 5536TIP3    H238024   1.709   4.127  12.632  1.1777 -2.2409  0.7498
 5537TIP3   OH238025   4.350   5.688   4.286 -0.3745  0.7874  0.4527
 5537TIP3    H138026   4.300   5.684   4.367 -0.7744  1.4106  0.2449
 5537TIP3    H238027   4.344   5.779   4.258 -1.9078  0.2129 -1.2952
 5538TIP3   OH238028   6.202   0.642  13.207  0.1871 -0.6771  0.1530
 5538TIP3    H138029   6.178   0.565  13.258 -2.9820  0.8360  1.2307
 5538TIP3    H238030   6.261   0.691  13.264 -1.1677 -0.3150  1.3033
 5539TIP3   OH238031   0.234   1.037   4.397 -0.1729 -0.0039  0.0547
 5539TIP3    H138032   0.294   0.986   4.451  1.9293  1.7775 -0.4752
 5539TIP3    H238033   0.170   1.071   4.459 -0.3518 -1.4847  0.7208
 5540TIP3   OH238034   4.097   3.317  15.106  0.2241 -0.2391  0.2432
 5540TIP3    H138035   4.064   3.389  15.053  1.2084  0.3032  0.3542
 5540TIP3    H238036   4.118   3.248  15.043 -0.2763 -0.2616  0.0961
 5541TIP3   OH238037   1.109   1.157   5.292 -0.4481  0.3644 -0.1695
 5541TIP3    H138038   1.157   1.151   5.210 -0.4087  0.5296 -0.1587
 5541TIP3    H238039   1.036   1.095   5.282 -0.2170  0.0919 -0.1726
 5542TIP3   OH238040   1.077   1.379   4.185 -0.5821  0.3316 -0.3381
 5542TIP3    H138041   1.096   1.472   4.198  3.6032 -0.0093 -2.3357
 5542TIP3    H238042   1.071   1.369   4.090 -0.4192 -1.5156 -0.1787
 5543TIP3   OH238043   3.521   2.888   0.981  0.3592  0.7430  0.6025
 5543TIP3    H138044   3.565   2.810   1.015 -1.0201 -0.4308 -0.2231
 5543TIP3    H238045   3.557   2.960   1.034  0.7851 -0.5770  2.1961
 5544TIP3   OH238046   0.857   3.268  13.764  0.6422 -0.3797 -0.1864
 5544TIP3    H138047   0.889   3.344  13.812  0.1204 -0.5535  0.4430
 5544TIP3    H238048   0.835   3.303  13.677 -0.9571  0.5043  0.5451
 5545TIP3   OH238049   2.877   5.389   3.653  0.6189 -0.3438  0.0580
 5545TIP3    H138050   2.838   5.393   3.740  0.5474 -0.4659  0.0327
 5545TIP3    H238051   2.853   5.302   3.621  0.4879 -0.2286 -0.1573
 5546TIP3   OH238052   6.634   2.358   0.671  0.5532 -0.0141 -0.0878
 5546TIP3    H138053   6.674   2.384   0.588  0.6123  1.1155  0.2756
 5546TIP3    H238054   6.559   2.416   0.681 -1.0946 -1.9572 -0.6445
 5547TIP3   OH238055   2.956   2.179   3.041 -0.3269 -0.2447  0.1500
 5547TIP3    H138056   2.968   2.242   3.111 -1.2785  0.1207 -0.0012
 5547TIP3    H238057   2.870   2.140   3.058 -0.2262 -0.7087 -0.3721
 5548TIP3   OH238058   5.919   0.084  16.775  0.4492  0.0431 -0.3076
 5548TIP3    H138059   5.982   0.017  16.750  0.0596 -0.8194  0.9814
 5548TIP3    H238060   5.860   0.091  16.699  0.7151 -0.7891 -0.5939
 5549TIP3   OH238061   4.677   1.246  14.161 -0.3435 -0.5126 -0.1911
 5549TIP3    H138062   4.668   1.221  14.069  0.3072  2.1871 -1.0792
 5549TIP3    H238063   4.771   1.240  14.178 -0.3046  0.2413 -0.1107
 5550TIP3   OH238064   3.039   0.803   0.123 -0.0243 -0.0207 -0.2744
 5550TIP3    H138065   3.078   0.835   0.042 -0.5914 -1.6272 -1.2283
 5550TIP3    H238066   3.057   0.871   0.187  3.3862 -0.1698 -0.9187
 5551TIP3   OH238067   5.033   6.562   5.970 -0.0767  0.3222 -0.9702
 5551TIP3    H138068   5.122   6.537   5.997  0.0226  0.5133 -1.1204
 5551TIP3    H238069   4.989   6.478   5.953 -0.8814  0.0122  2.0719
 5552TIP3   OH238070   4.630   1.156  12.478 -0.1418 -0.2480 -0.2531
 5552TIP3    H138071   4.618   1.167  12.572  0.2340  0.6287 -0.2987
 5552TIP3    H238072   4.658   1.242  12.446  2.6501 -1.1923 -0.6941
 5553TIP3   OH238073   3.459   4.927   6.404  0.3992  0.7064 -0.4440
 5553TIP3    H138074   3.513   4.861   6.360  0.1313 -0.0372  0.3210
 5553TIP3    H238075   3.510   5.007   6.397  1.4146  0.1133 -0.1351
 5554TIP3   OH238076   6.142   0.705   0.082 -0.0633 -0.0772 -0.2890
 5554TIP3    H138077   6.144   0.701  -0.013 -0.9449  0.9454 -0.3593
 5554TIP3    H238078   6.210   0.768   0.105 -0.6521  0.5708 -0.3090
 5555TIP3   OH238079   2.720   4.682  17.085 -0.1863 -0.2767  0.1220
 5555TIP3    H138080   2.728   4.637  17.169 -3.0892 -1.7609 -0.2764
 5555TIP3    H238081   2.721   4.612  17.020  1.7592  0.8216 -1.1541
 5556TIP3   OH238082   2.073   4.504  16.144  0.6737  0.4770  0.3283
 5556TIP3    H138083   2.049   4.485  16.235  1.3880  0.3616  0.4954
 5556TIP3    H238084   2.013   4.450  16.092  1.5751 -0.9969  0.7611
 5557TIP3   OH238085   1.654   5.663   1.844  0.3088 -0.3449  0.3712
 5557TIP3    H138086   1.572   5.710   1.860  0.8537  1.0864 -0.8411
 5557TIP3    H238087   1.723   5.723   1.873  1.0027 -0.6250 -0.6409
 5558TIP3   OH238088   0.750   6.448  12.058  0.4198  0.1053  0.3226
 5558TIP3    H138089   0.779   6.537  12.078  1.4403 -0.2150  0.3627
 5558TIP3    H238090   0.664   6.440  12.099  1.5581  0.1340  2.9329
 5559TIP3   OH238091   1.364   2.356   3.994 -0.2821 -0.1946 -0.1153
 5559TIP3    H138092   1.391   2.336   3.904 -1.3845 -0.4813 -0.3924
 5559TIP3    H238093   1.425   2.306   4.049  1.2573  1.0220 -0.6458
 5560TIP3   OH238094   4.487   0.567   2.026 -0.2360  0.2093  0.9241
 5560TIP3    H138095   4.573   0.584   1.986  0.3715  0.1498  2.1577
 5560TIP3    H238096   4.433   0.535   1.953  0.4203  1.3990 -0.1266
 5561TIP3   OH238097   5.327   0.092  13.002  0.1848 -0.1310 -0.0697
 5561TIP3    H138098   5.367   0.175  13.027 -0.5461 -0.4515  2.3940
 5561TIP3    H238099   5.400   0.034  12.986  0.7030  0.8686 -1.5618
 5562TIP3   OH238100   0.700   0.395  11.756  0.2675  0.0526 -0.5434
 5562TIP3    H138101   0.644   0.327  11.794  0.8028  0.2657  0.6844
 5562TIP3    H238102   0.740   0.354  11.680  0.7714 -1.1015  0.3207
 5563TIP3   OH238103   4.818   6.747  14.432  0.1620 -0.1675  0.0541
 5563TIP3    H138104   4.811   6.672  14.491  2.4759  0.2603  0.9826
 5563TIP3    H238105   4.840   6.821  14.488 -0.0582  0.7920 -1.0792
 5564TIP3   OH238106   0.688   0.916  11.696  0.0367  1.0648  0.2508
 5564TIP3    H138107   0.663   0.946  11.783 -1.0693  1.1349 -0.0736
 5564TIP3    H238108   0.702   0.997  11.646  0.8919  1.0251  0.4200
 5565TIP3   OH238109   4.843   5.208   5.993 -0.0960  0.5148  0.1599
 5565TIP3    H138110   4.882   5.177   5.912 -0.3571 -1.4948  0.7441
 5565TIP3    H238111   4.872   5.144   6.059 -0.4607  1.6927  1.5110
 5566TIP3   OH238112   1.012   2.437  16.784  0.3135 -0.0926 -0.3502
 5566TIP3    H138113   1.048   2.391  16.708  1.3181 -1.3358  0.8426
 5566TIP3    H238114   0.921   2.407  16.790  0.1022  0.3208 -1.2641
 5567TIP3   OH238115   0.004   2.121   3.009 -0.2646 -0.1280  0.4462
 5567TIP3    H138116   0.038   2.210   3.012  0.4539 -0.4032  0.7558
 5567TIP3    H238117   0.077   2.068   2.978 -0.5117 -0.6885  0.7936
 5568TIP3   OH238118   1.422   6.294  15.729  0.2900 -0.4022 -0.3252
 5568TIP3    H138119   1.504   6.287  15.681  0.7947  0.9082  0.2933
 5568TIP3    H238120   1.378   6.370  15.690 -0.4617 -0.8758 -0.4141
 5569TIP3   OH238121   6.685   5.874  12.432  0.2371 -0.5594 -0.3974
 5569TIP3    H138122   6.640   5.789  12.434  1.1440 -1.0383  0.3091
 5569TIP3    H238123   6.663   5.910  12.346 -1.1283 -0.9639 -0.2494
 5570TIP3   OH238124   2.248   3.523   5.013  0.1281  0.0387  0.0658
 5570TIP3    H138125   2.197   3.491   4.939  0.1885  0.3547 -0.1153
 5570TIP3    H238126   2.185   3.532   5.084 -0.3489  1.7039 -0.5315
 5571TIP3   OH238127   0.399   4.614  13.279 -0.8623  0.6180  0.3880
 5571TIP3    H138128   0.384   4.707  13.262 -0.3668  0.9741  1.7066
 5571TIP3    H238129   0.415   4.610  13.374  0.4246 -0.6320  0.1538
 5572TIP3   OH238130   2.839   4.111   1.105  0.6004  0.6979  0.3504
 5572TIP3    H138131   2.791   4.116   1.188 -2.5397 -0.4496 -1.2789
 5572TIP3    H238132   2.875   4.023   1.104 -0.6213  0.1850 -0.1060
 5573TIP3   OH238133   5.444   0.304  13.625 -0.0442  0.1214  0.2235
 5573TIP3    H138134   5.478   0.342  13.544  0.8484 -1.0868  0.0040
 5573TIP3    H238135   5.382   0.370  13.658  1.9682  2.1429  0.2779
 5574TIP3   OH238136   3.241   0.180  12.573  0.2209 -0.0725  0.1954
 5574TIP3    H138137   3.280   0.240  12.636 -1.9961  1.6734  0.0352
 5574TIP3    H238138   3.204   0.236  12.506 -0.6543 -1.7051 -0.7637
 5575TIP3   OH238139   0.314   4.802  15.034 -0.0291 -0.2050 -0.0358
 5575TIP3    H138140   0.390   4.830  15.084 -0.1189  0.9432 -0.5086
 5575TIP3    H238141   0.240   4.820  15.091 -0.1424  1.2314 -0.5956
 5576TIP3   OH238142   1.349   2.042  14.160 -0.2165 -1.1010 -0.2032
 5576TIP3    H138143   1.257   2.026  14.139 -0.2463 -1.1441 -0.0443
 5576TIP3    H238144   1.374   2.117  14.106 -1.3668  1.2959  2.3613
 5577TIP3   OH238145   3.287   3.673   2.200  0.5467 -0.8386 -0.0911
 5577TIP3    H138146   3.311   3.580   2.192  0.0021 -1.1854  1.7302
 5577TIP3    H238147   3.367   3.720   2.175  1.0725 -1.8136 -0.3170
 5578TIP3   OH238148   3.834   4.676   2.096  0.2247 -0.1764  0.5679
 5578TIP3    H138149   3.740   4.671   2.114  0.5434  0.4170  2.6066
 5578TIP3    H238150   3.840   4.683   2.000 -1.9825  3.0884  0.5281
 5579TIP3   OH238151   0.934   6.608   3.066  0.2813 -0.0299 -0.3137
 5579TIP3    H138152   0.926   6.513   3.078 -0.1188  0.2029  1.4687
 5579TIP3    H238153   1.028   6.623   3.056  0.6078 -0.3914  1.8266
 5580TIP3   OH238154   4.829   2.643   3.350  0.1491 -0.0092 -0.2667
 5580TIP3    H138155   4.756   2.681   3.301  0.4361  1.1937  0.2026
 5580TIP3    H238156   4.907   2.685   3.315  0.5895 -0.9916 -0.4879
 5581TIP3   OH238157   2.896   5.564  12.273 -0.4812 -0.4742 -0.2550
 5581TIP3    H138158   2.962   5.509  12.232  0.8790  0.5203  0.5191
 5581TIP3    H238159   2.885   5.637  12.211  0.0254 -0.0442  0.1534
 5582TIP3   OH238160   0.538   2.431  12.078  0.3744 -1.1369 -0.0409
 5582TIP3    H138161   0.553   2.429  12.172  0.2422 -0.2096  0.0093
 5582TIP3    H238162   0.622   2.406  12.039  1.7960  2.5044  0.2565
 5583TIP3   OH238163   4.634   5.627  13.609 -0.0621  0.0451 -0.1326
 5583TIP3    H138164   4.725   5.655  13.616  0.0524 -0.2441 -0.4694
 5583TIP3    H238165   4.628   5.584  13.524 -0.2016 -1.0484  0.4095
 5584TIP3   OH238166   0.664   6.260   4.976 -0.4630  0.0646  0.0032
 5584TIP3    H138167   0.757   6.274   4.992 -0.2543 -1.4965  0.3396
 5584TIP3    H238168   0.628   6.237   5.062 -1.1627  0.6089 -0.1321
 5585TIP3   OH238169   0.117   2.771   1.328 -0.1664 -0.7013  0.5057
 5585TIP3    H138170   0.097   2.708   1.397  1.2299 -2.4064 -0.5493
 5585TIP3    H238171   0.091   2.727   1.247  0.9396  0.0210 -0.2719
 5586TIP3   OH238172   4.588   4.554   5.451 -0.8049  0.2884  0.0819
 5586TIP3    H138173   4.621   4.475   5.494 -0.4575  0.7278  0.6390
 5586TIP3    H238174   4.601   4.538   5.358  0.7696  0.3397  0.2626
 5587TIP3   OH238175   4.400   5.698   0.703  0.4935 -1.0129  0.1075
 5587TIP3    H138176   4.356   5.751   0.636 -1.6524 -2.2110  0.4859
 5587TIP3    H238177   4.443   5.628   0.653  0.8208 -0.6366 -0.1538
 5588TIP3   OH238178   6.386   4.885   3.093  0.1093 -0.1773  0.6237
 5588TIP3    H138179   6.323   4.873   3.023  1.1530 -1.5770 -0.1184
 5588TIP3    H238180   6.359   4.966   3.136  0.0360  1.3097 -2.0260
 5589TIP3   OH238181   3.105   3.358  13.437 -0.0111  0.0373 -0.5382
 5589TIP3    H138182   3.143   3.347  13.350 -0.0215 -1.6229 -0.3773
 5589TIP3    H238183   3.026   3.409  13.423 -0.2173 -0.5411 -1.5647
 5590TIP3   OH238184   6.586   5.618  13.943  0.2722 -0.0749 -0.6353
 5590TIP3    H138185   6.552   5.707  13.951 -0.3233 -0.2164 -1.5739
 5590TIP3    H238186   6.580   5.597  13.850  2.4559 -0.2932 -0.7899
 5591TIP3   OH238187   3.308   1.640   3.850  0.0067  0.4227 -0.6342
 5591TIP3    H138188   3.218   1.654   3.819 -0.5908 -0.8634  0.4379
 5591TIP3    H238189   3.308   1.671   3.940  0.4707 -0.1647 -0.4256
 5592TIP3   OH238190   5.248   3.896  11.795 -0.3007  0.1009 -0.7176
 5592TIP3    H138191   5.288   3.962  11.851 -0.3950 -0.6953  0.3120
 5592TIP3    H238192   5.315   3.829  11.784  0.2404  0.8951 -2.7769
 5593TIP3   OH238193   6.264   5.515  13.942  0.3746 -0.7305 -0.0424
 5593TIP3    H138194   6.211   5.497  14.020 -0.2142 -0.3174 -0.3410
 5593TIP3    H238195   6.261   5.610  13.933  0.1746 -0.7958 -0.7503
 5594TIP3   OH238196   1.552   5.941  10.615 -0.8890 -0.1897 -0.4761
 5594TIP3    H138197   1.577   5.867  10.560 -3.0504 -0.7446 -0.7931
 5594TIP3    H238198   1.559   5.906  10.705  0.9301  0.1856 -0.4164
 5595TIP3   OH238199   0.737   0.806   1.517  0.5980  0.4546 -0.2803
 5595TIP3    H138200   0.740   0.876   1.452 -1.2145  1.0256  0.1652
 5595TIP3    H238201   0.696   0.732   1.472 -1.0013  0.9706  0.2549
 5596TIP3   OH238202   1.030   6.117   2.106  0.5702  0.6978 -0.3141
 5596TIP3    H138203   0.941   6.151   2.099  0.8400  1.6779  0.7595
 5596TIP3    H238204   1.079   6.162   2.038  0.5937  1.3771  0.1445
 5597TIP3   OH238205   6.726   6.711  11.984  1.3840 -0.3254  0.2005
 5597TIP3    H138206   6.706   6.707  12.078  1.8773 -0.8527  0.2849
 5597TIP3    H238207   6.645   6.681  11.941  0.8752  0.6915  0.4186
 5598TIP3   OH238208   6.355   4.687  13.585 -0.2113 -0.1867  0.9743
 5598TIP3    H138209   6.382   4.704  13.494  1.5793 -1.4782  1.2062
 5598TIP3    H238210   6.260   4.695  13.584 -0.1435  0.9416 -0.7636
 5599TIP3   OH238211   4.656   3.075   0.979 -0.2748 -0.2334 -0.0169
 5599TIP3    H138212   4.640   3.045   1.068  1.0089  0.1776  0.3701
 5599TIP3    H238213   4.734   3.027   0.950 -0.6540 -0.3410 -0.9155
 5600TIP3   OH238214   4.525   6.666  13.049  0.1833 -0.0648  0.0446
 5600TIP3    H138215   4.584   6.597  13.079  0.4291  0.3297  0.4822
 5600TIP3    H238216   4.456   6.670  13.116 -0.2271 -0.3746 -0.3510
 5601TIP3   OH238217   0.239   0.371   4.033  0.2353  0.0140  0.0339
 5601TIP3    H138218   0.326   0.409   4.051 -0.3936  1.6947 -0.2791
 5601TIP3    H238219   0.186   0.398   4.108 -0.2920 -0.0672 -0.3051
 5602TIP3   OH238220   1.135   2.482   5.080  0.0553 -0.6066 -0.7850
 5602TIP3    H138221   1.116   2.475   5.174  1.4716 -2.0743 -0.5669
 5602TIP3    H238222   1.219   2.526   5.075  0.2027 -0.9439 -1.3495
 5603TIP3   OH238223   5.391   3.807   2.345  0.3775  0.4580  0.2628
 5603TIP3    H138224   5.317   3.791   2.403  0.5583 -2.0282 -0.0735
 5603TIP3    H238225   5.445   3.729   2.353  2.0565  1.4387 -0.8620
 5604TIP3   OH238226   6.227   2.442  16.726  0.1126  0.2683  0.2738
 5604TIP3    H138227   6.199   2.504  16.793  0.8905 -0.2129  1.0646
 5604TIP3    H238228   6.176   2.465  16.649  1.6138  3.0081 -0.0155
 5605TIP3   OH238229   1.445   0.036  14.142 -0.4090  0.1273 -0.2986
 5605TIP3    H138230   1.477   0.110  14.193  0.3618 -1.0402  1.0112
 5605TIP3    H238231   1.394   0.075  14.071  1.2892  1.9636 -0.6033
 5606TIP3   OH238232   1.803   0.150   2.298  0.7212 -0.0454  0.4981
 5606TIP3    H138233   1.767   0.065   2.275 -0.1221  0.2658  0.6247
 5606TIP3    H238234   1.850   0.178   2.219 -1.6421  0.7493 -0.7322
 5607TIP3   OH238235   6.603   1.783   4.969  0.0131 -0.0044 -0.3388
 5607TIP3    H138236   6.669   1.744   5.026  0.4415  1.1121 -0.0253
 5607TIP3    H238237   6.568   1.856   5.021 -1.7148 -0.7813 -0.3668
 5608TIP3   OH238238   5.867   6.292   3.632  0.5677  0.7944  0.1208
 5608TIP3    H138239   5.932   6.363   3.639 -0.1890  1.5095  0.0840
 5608TIP3    H238240   5.785   6.337   3.609  0.0672 -0.0963  0.1301
 5609TIP3   OH238241   3.188   2.400  17.010 -0.4414  0.2203  0.2598
 5609TIP3    H138242   3.237   2.333  17.058 -1.0343 -1.5506 -1.4957
 5609TIP3    H238243   3.255   2.456  16.971  0.0648  0.3864  1.3322
 5610TIP3   OH238244   3.834   1.154   0.988 -0.8255 -0.3885 -0.4423
 5610TIP3    H138245   3.888   1.164   0.910  0.8106  0.2159  0.6980
 5610TIP3    H238246   3.893   1.115   1.052 -1.8858 -0.1227  0.7360
 5611TIP3   OH238247   0.779   5.311   1.650  0.0754  0.5200  0.6522
 5611TIP3    H138248   0.776   5.388   1.706 -0.9865  0.6221  0.4635
 5611TIP3    H238249   0.721   5.248   1.692 -2.3737  1.3085 -1.3421
 5612TIP3   OH238250   1.463   6.291   4.189 -0.7457 -0.9338  0.3637
 5612TIP3    H138251   1.402   6.226   4.154  0.2900 -2.1448  0.7443
 5612TIP3    H238252   1.532   6.240   4.231  0.2788  0.4004  0.3960
 5613TIP3   OH238253   3.978   4.721  15.651  0.6479  0.0459  0.6689
 5613TIP3    H138254   4.068   4.730  15.620  0.7118 -1.6244  0.2715
 5613TIP3    H238255   3.987   4.692  15.742  0.5603 -1.2957  0.2739
 5614TIP3   OH238256   1.891   5.328   5.082 -0.5240  0.6400  0.0461
 5614TIP3    H138257   1.917   5.276   5.158  0.3707  2.5024  1.0928
 5614TIP3    H238258   1.868   5.413   5.118 -0.7210  1.3849 -1.7154
 5615TIP3   OH238259   4.173   5.937   2.628 -0.0340 -0.4991 -0.4299
 5615TIP3    H138260   4.142   5.988   2.553  0.4082 -0.4260 -0.5666
 5615TIP3    H238261   4.268   5.932   2.617  0.3352  1.3851  1.2655
 5616TIP3   OH238262   1.328   0.744   0.626 -0.0537  0.3729  0.1981
 5616TIP3    H138263   1.400   0.696   0.667 -0.2126 -1.5611 -1.5660
 5616TIP3    H238264   1.370   0.817   0.581  0.9744 -1.0107 -1.2216
 5617TIP3   OH238265   4.584   0.016  13.660 -0.6515 -0.2576 -0.0403
 5617TIP3    H138266   4.640   0.054  13.592 -0.1437 -0.7648  0.0754
 5617TIP3    H238267   4.551   0.091  13.710 -2.9684  0.3304 -2.2605
 5618TIP3   OH238268   6.510   0.594   3.074  0.2663 -0.2562 -0.3259
 5618TIP3    H138269   6.479   0.591   3.165  0.4713  1.4123 -0.1848
 5618TIP3    H238270   6.493   0.683   3.045  3.1351  0.2111 -0.8742
 5619TIP3   OH238271   4.902   4.879   4.767  0.3417 -0.1731 -0.2993
 5619TIP3    H138272   4.906   4.814   4.696  0.7138 -0.6518  0.1537
 5619TIP3    H238273   4.902   4.827   4.847  0.0094  0.3701  0.0607
 5620TIP3   OH238274   4.794   3.483  11.381  0.0544 -0.0506  0.3957
 5620TIP3    H138275   4.710   3.441  11.359 -0.0302  0.2442  0.1464
 5620TIP3    H238276   4.854   3.451  11.314  0.3036 -0.7697  0.9512
 5621TIP3   OH238277   0.049   2.813   4.128  0.2158  0.4845 -0.0345
 5621TIP3    H138278   0.092   2.830   4.044 -0.8076  0.4203 -0.5827
 5621TIP3    H238279  -0.009   2.888   4.141 -0.4217 -0.0198  0.0884
 5622TIP3   OH238280   5.469   0.931  15.100 -0.3076  0.1333 -0.1278
 5622TIP3    H138281   5.419   0.922  15.182  1.5248 -0.6000  0.9700
 5622TIP3    H238282   5.525   0.853  15.098 -0.2464  0.1869 -2.0719
 5623TIP3   OH238283   3.947   5.882   5.120 -0.1829 -0.3751  0.2842
 5623TIP3    H138284   3.868   5.932   5.099 -0.0507  0.3493  1.4059
 5623TIP3    H238285   4.000   5.943   5.172  1.4333 -0.6054 -1.0102
 5624TIP3   OH238286   2.396   1.301   3.247  0.2625  0.5564 -0.1177
 5624TIP3    H138287   2.446   1.378   3.219  1.3763 -0.8503 -2.3024
 5624TIP3    H238288   2.349   1.273   3.168  1.5615 -2.2030 -0.0271
 5625TIP3   OH238289   4.826   4.433   1.375  0.0461 -0.0135 -0.6368
 5625TIP3    H138290   4.838   4.396   1.462  1.2819  0.6480 -0.5193
 5625TIP3    H238291   4.840   4.527   1.386  0.7602  0.0066 -1.6459
 5626TIP3   OH238292   1.703   5.917  15.768  0.3142 -0.7303 -0.8928
 5626TIP3    H138293   1.712   5.992  15.826 -2.2334  1.3754 -2.9836
 5626TIP3    H238294   1.792   5.899  15.739  1.1369  0.7114  0.5356
 5627TIP3   OH238295   0.385   3.827   2.197  0.6362 -0.4253 -0.0616
 5627TIP3    H138296   0.320   3.758   2.182 -2.7782  2.4909 -0.1063
 5627TIP3    H238297   0.412   3.855   2.110  0.3573 -0.3155 -0.1146
 5628TIP3   OH238298   2.129   4.197  15.780 -0.0577  0.4614  0.5028
 5628TIP3    H138299   2.130   4.206  15.684  2.5834 -0.3830  0.3745
 5628TIP3    H238300   2.118   4.287  15.811 -2.8128  0.5604 -0.5254
 5629TIP3   OH238301   5.876   6.000   0.983 -0.0835  0.5750  0.3050
 5629TIP3    H138302   5.935   5.939   1.026  0.3223  0.9776  0.3273
 5629TIP3    H238303   5.805   5.945   0.949  0.1015  0.1373  0.6175
 5630TIP3   OH238304   2.561   2.096   4.364 -0.0446  0.4124  0.9811
 5630TIP3    H138305   2.506   2.024   4.396 -0.0618  0.0876  0.2304
 5630TIP3    H238306   2.630   2.054   4.314 -0.0625  0.9181  0.5235
 5631TIP3   OH238307   5.369   2.129  13.033 -0.2451 -0.0892 -0.3754
 5631TIP3    H138308   5.337   2.217  13.054  0.6403  0.2490 -0.4271
 5631TIP3    H238309   5.289   2.079  13.012 -1.0897 -0.1147  2.4631
 5632TIP3   OH238310   4.741   4.704   5.777  0.2245  0.3901 -0.4606
 5632TIP3    H138311   4.744   4.609   5.768  1.1711  0.3693 -0.0370
 5632TIP3    H238312   4.722   4.718   5.870  1.0817  0.6089 -0.3098
 5633TIP3   OH238313   3.890   1.484   5.343 -0.1021  0.3962  0.3957
 5633TIP3    H138314   3.966   1.441   5.382  0.6884  1.5288  0.1263
 5633TIP3    H238315   3.840   1.412   5.303  2.1684 -0.1476 -1.7323
 5634TIP3   OH238316   1.881   2.908  12.602  0.1255 -0.1162 -0.2247
 5634TIP3    H138317   1.884   2.907  12.698 -0.1465 -1.4889 -0.2121
 5634TIP3    H238318   1.803   2.857  12.580  1.8920 -2.6023 -1.2008
 5635TIP3   OH238319   2.218   3.220   3.975 -0.1331 -0.3270 -0.6091
 5635TIP3    H138320   2.248   3.198   3.886  0.5431  1.2300 -0.8047
 5635TIP3    H238321   2.290   3.195   4.031  0.4447  0.8531 -0.7838
 5636TIP3   OH238322   2.600   4.664   5.994 -0.1487  0.4476  0.0170
 5636TIP3    H138323   2.521   4.611   6.005 -0.5432  0.7224 -1.2836
 5636TIP3    H238324   2.661   4.629   6.059 -0.4517 -1.4889 -0.6482
 5637TIP3   OH238325   0.124   5.253  11.898  0.3854  0.7510  0.1555
 5637TIP3    H138326   0.055   5.223  11.957 -0.1299 -1.0202 -1.2509
 5637TIP3    H238327   0.205   5.236  11.945 -0.0520  3.3632  2.0659
 5638TIP3   OH238328   6.491   3.245   4.086  0.4012  0.3335  0.0536
 5638TIP3    H138329   6.550   3.311   4.050  0.9307 -1.1291 -1.8985
 5638TIP3    H238330   6.438   3.217   4.011 -2.6259  1.3332  1.6296
 5639TIP3   OH238331   2.633   5.098  11.611 -0.2837 -0.0916 -0.1591
 5639TIP3    H138332   2.637   5.143  11.695  1.4115 -0.6709  0.1171
 5639TIP3    H238333   2.696   5.144  11.556  0.2986 -1.0950 -0.3700
 5640TIP3   OH238334   6.697   0.329  15.506 -0.1010  0.1663  0.0268
 5640TIP3    H138335   6.789   0.353  15.501  0.2022 -0.8474  0.4631
 5640TIP3    H238336   6.655   0.403  15.551  0.4767  0.6746 -0.2603
 5641TIP3   OH238337   6.198   3.530  11.228 -0.6219  0.1196  0.9074
 5641TIP3    H138338   6.104   3.551  11.229 -1.0176 -1.5304  0.4479
 5641TIP3    H238339   6.241   3.615  11.237 -2.1584  0.8293  2.0414
 5642TIP3   OH238340   6.209   0.998  14.860 -0.2772 -0.8123  0.0832
 5642TIP3    H138341   6.195   1.092  14.872 -2.7786 -0.8490 -1.6631
 5642TIP3    H238342   6.218   0.964  14.949 -1.9598  0.7689  0.9365
 5643TIP3   OH238343   6.350   1.840   4.191 -0.2363  0.7712  0.3263
 5643TIP3    H138344   6.325   1.915   4.244  0.6009  0.3000  1.4207
 5643TIP3    H238345   6.298   1.767   4.224  0.9463  0.2689  1.1672
 5644TIP3   OH238346   5.494   5.070   4.648 -0.3311  0.0794  0.2294
 5644TIP3    H138347   5.501   5.071   4.744  2.0950 -1.6445  0.1670
 5644TIP3    H238348   5.443   4.992   4.628 -0.4467  0.1869  0.1020
 5645TIP3   OH238349   4.955   2.355   0.097 -0.1115  0.2011 -0.1613
 5645TIP3    H138350   4.924   2.268   0.121  3.5981 -1.2159  0.1295
 5645TIP3    H238351   4.916   2.414   0.162  0.4144 -1.8292  2.1017
 5646TIP3   OH238352   3.190   0.974   5.513 -0.0833  0.5506 -0.3531
 5646TIP3    H138353   3.205   0.983   5.419 -1.9398  2.6170 -0.5379
 5646TIP3    H238354   3.098   0.945   5.520  0.7636 -2.1906  0.8299
 5647TIP3   OH238355   1.475   4.935  13.010 -0.4561  0.1925  0.3004
 5647TIP3    H138356   1.386   4.914  13.037  0.0743  1.5166  3.6300
 5647TIP3    H238357   1.521   4.952  13.092  2.3648  1.5077 -1.4052
 5648TIP3   OH238358   6.508   4.659   3.050  1.0514  0.3559  0.1185
 5648TIP3    H138359   6.461   4.735   3.086 -1.9231 -1.1020 -0.4319
 5648TIP3    H238360   6.544   4.691   2.967  1.2183  1.5768  0.6286
 5649TIP3   OH238361   1.591   0.061  12.070 -0.1985 -0.1979 -0.0435
 5649TIP3    H138362   1.582   0.114  11.991 -0.3149 -1.0159 -0.5839
 5649TIP3    H238363   1.650   0.112  12.126  1.6040 -0.5509 -1.5107
 5650TIP3   OH238364   6.634   4.715   4.027 -0.9148  0.4887  0.0232
 5650TIP3    H138365   6.657   4.805   4.050 -1.0711  0.8669 -1.2534
 5650TIP3    H238366   6.615   4.673   4.111 -0.8316  1.6346  0.6300
 5651TIP3   OH238367   2.654   1.883  14.139  0.4310 -0.4165  0.1214
 5651TIP3    H138368   2.582   1.822  14.157 -0.1859  0.3837  0.4344
 5651TIP3    H238369   2.708   1.880  14.218 -0.2053  0.2664  0.5859
 5652TIP3   OH238370   1.942   0.699  11.998  0.4007  0.1978  0.5616
 5652TIP3    H138371   2.030   0.730  12.022 -0.4664  2.0947  1.5009
 5652TIP3    H238372   1.941   0.607  12.023  2.2224  0.0437  0.2132
 5653TIP3   OH238373   4.093   3.502   1.531 -0.0956 -0.4943 -0.5257
 5653TIP3    H138374   4.075   3.467   1.618 -3.1767  1.4231 -0.2236
 5653TIP3    H238375   4.187   3.520   1.531  0.3448 -2.3520  1.6320
 5654TIP3   OH238376   3.963   4.110   5.646  0.0158  0.0238  0.2877
 5654TIP3    H138377   3.923   4.191   5.676  1.0429  0.6526 -0.0286
 5654TIP3    H238378   4.004   4.073   5.724 -1.3907 -0.7941  0.6936
 5655TIP3   OH238379   1.938   3.371   5.073 -0.6208 -0.5532  0.3692
 5655TIP3    H138380   1.870   3.315   5.111 -1.3599  0.8281  1.1816
 5655TIP3    H238381   1.943   3.446   5.133  1.0669 -0.2320 -0.1143
 5656TIP3   OH238382   3.038   4.957   5.097 -0.3877 -0.2469 -0.1873
 5656TIP3    H138383   3.093   4.906   5.157 -1.5912 -0.8552  0.4377
 5656TIP3    H238384   2.981   4.892   5.056 -2.0816  0.5617  0.7509
 5657TIP3   OH238385   2.463   6.421   0.021 -0.6378 -0.3734 -0.2253
 5657TIP3    H138386   2.442   6.349   0.081 -2.6494  0.8442  0.6411
 5657TIP3    H238387   2.476   6.379  -0.064  3.4410 -2.3252  1.0807
 5658TIP3   OH238388   6.566   3.126  17.094 -0.3575 -0.6804  0.5212
 5658TIP3    H138389   6.571   3.172  17.010 -0.2146 -1.2972  0.1878
 5658TIP3    H238390   6.590   3.192  17.159  0.3140 -0.4112  0.0059
 5659TIP3   OH238391   6.405   1.000   0.729  0.4635 -0.1487  0.1342
 5659TIP3    H138392   6.347   1.010   0.654  2.0520 -0.0542 -1.1294
 5659TIP3    H238393   6.402   0.906   0.749 -1.3923  0.0911  1.1884
 5660TIP3   OH238394   3.247   6.596   0.778 -0.2963  0.3370 -0.1644
 5660TIP3    H138395   3.310   6.559   0.715  1.2828  1.8472  0.4566
 5660TIP3    H238396   3.256   6.690   0.768 -0.2968  0.6103  2.0171
 5661TIP3   OH238397   3.764   5.485  16.959  0.4240 -0.1621 -0.0062
 5661TIP3    H138398   3.703   5.431  16.909  1.6924 -0.2338 -1.5474
 5661TIP3    H238399   3.847   5.438  16.956  0.8497  0.4630  1.1217
 5662TIP3   OH238400   0.335   2.293   1.346  0.3031 -0.1506 -0.0967
 5662TIP3    H138401   0.299   2.378   1.373 -0.2129 -0.4930  0.3143
 5662TIP3    H238402   0.321   2.236   1.422  3.1727  0.0979  0.7248
 5663TIP3   OH238403   2.779   6.633   1.548 -0.0797  0.1036  0.0287
 5663TIP3    H138404   2.865   6.626   1.507 -0.2225 -1.2113 -0.0711
 5663TIP3    H238405   2.719   6.598   1.483 -0.6153  0.3903  0.3621
 5664TIP3   OH238406   6.136   3.454  14.232  1.2335  0.5217 -0.0594
 5664TIP3    H138407   6.083   3.425  14.307  1.2706 -0.7844 -0.5089
 5664TIP3    H238408   6.100   3.539  14.208  0.3407  0.3450  0.5996
 5665TIP3   OH238409   6.687   3.853   1.935 -0.0975 -0.5760  0.3152
 5665TIP3    H138410   6.643   3.851   1.850  0.0800  1.4387  0.1200
 5665TIP3    H238411   6.722   3.764   1.946  0.4453 -0.7361 -2.0278
 5666TIP3   OH238412   4.255   4.954  16.434 -0.2586 -0.0940 -0.1909
 5666TIP3    H138413   4.186   4.942  16.499  0.9269 -0.1610  1.0961
 5666TIP3    H238414   4.292   4.867  16.422  0.5148  0.1785  0.1812
 5667TIP3   OH238415   2.347   3.396   1.564 -0.0731 -0.5103 -0.1221
 5667TIP3    H138416   2.326   3.455   1.637  0.7982 -0.0128 -0.2486
 5667TIP3    H238417   2.395   3.324   1.605  2.7278  1.0240 -0.4414
 5668TIP3   OH238418   1.104   3.147   2.804 -0.4241  0.6951  0.3302
 5668TIP3    H138419   1.138   3.100   2.880 -1.3956 -1.1999 -0.3392
 5668TIP3    H238420   1.068   3.228   2.840 -2.1753 -0.7794  2.1674
 5669TIP3   OH238421   5.026   3.754  11.892 -0.3654 -0.2599 -0.2291
 5669TIP3    H138422   5.060   3.674  11.932  2.1696 -0.9427 -3.2886
 5669TIP3    H238423   5.097   3.784  11.835 -2.4733  2.3133 -1.7335
 5670TIP3   OH238424   1.391   4.065   6.026  0.2544 -0.0752 -0.0093
 5670TIP3    H138425   1.410   4.108   6.110 -0.7820 -1.8327  1.1809
 5670TIP3    H238426   1.333   4.126   5.981 -1.2407 -0.1715  1.6612
 5671TIP3   OH238427   4.905   3.779   2.648 -0.2392 -0.3409 -0.6729
 5671TIP3    H138428   4.814   3.806   2.634  0.2164  1.7534  0.0478
 5671TIP3    H238429   4.906   3.745   2.738 -0.1731  0.3976 -0.3854
 5672TIP3   OH238430   0.705   6.372  16.977 -0.3078 -0.5779  0.5948
 5672TIP3    H138431   0.664   6.458  16.988 -0.8397 -0.9583  1.6718
 5672TIP3    H238432   0.681   6.346  16.888 -1.9546 -0.5359  0.9978
 5673TIP3   OH238433   3.194   1.026   2.897  0.1353  0.5392 -0.7892
 5673TIP3    H138434   3.179   0.936   2.927 -0.9399  0.8855 -0.2393
 5673TIP3    H238435   3.107   1.062   2.884  0.5603  1.3826 -1.4197
 5674TIP3   OH238436   5.608   2.429  15.402 -0.3286 -0.2213 -0.2492
 5674TIP3    H138437   5.547   2.503  15.402  0.7480  0.6835 -0.5049
 5674TIP3    H238438   5.579   2.375  15.328 -1.9546 -0.8004  0.7495
 5675TIP3   OH238439   0.100   6.608   3.556  0.1905 -0.7531 -0.2215
 5675TIP3    H138440   0.109   6.610   3.461 -1.7867 -0.6152 -0.4523
 5675TIP3    H238441   0.131   6.694   3.585 -0.1658 -0.4087 -0.8558
 5676TIP3   OH238442   6.161   2.344   3.943 -0.2252 -0.4714  0.7358
 5676TIP3    H138443   6.110   2.423   3.927  1.2628  0.1238 -1.5598
 5676TIP3    H238444   6.227   2.371   4.007 -0.5366 -0.2433  0.9624
 5677TIP3   OH238445   5.427   3.830  13.763 -1.1897 -0.2401  0.1322
 5677TIP3    H138446   5.406   3.767  13.694  0.5914  0.7603 -1.3859
 5677TIP3    H238447   5.403   3.915  13.726  1.4908  0.5119 -0.0729
 5678TIP3   OH238448   5.820   5.918   2.243  0.2200  0.4415 -0.5085
 5678TIP3    H138449   5.833   5.994   2.300 -0.5436  0.2275 -0.0457
 5678TIP3    H238450   5.818   5.843   2.302 -2.2169  0.3613 -0.5911
 5679TIP3   OH238451   6.494   1.992  11.552 -0.4788  0.1732 -0.4287
 5679TIP3    H138452   6.461   1.912  11.591 -0.4764  0.3407 -0.0766
 5679TIP3    H238453   6.422   2.024  11.498  0.1179 -0.9639 -1.9494
 5680TIP3   OH238454   6.396   1.627   4.758  0.0122 -0.0870  0.0041
 5680TIP3    H138455   6.437   1.708   4.730  0.7116  0.0463  1.3105
 5680TIP3    H238456   6.376   1.641   4.851  0.4082 -1.4954  0.3283
 5681TIP3   OH238457   0.055   2.289   0.121  0.6249 -0.2453  0.1548
 5681TIP3    H138458   0.054   2.214   0.062  0.6029  0.5638 -0.8928
 5681TIP3    H238459   0.055   2.250   0.209 -0.5670 -1.4671 -0.3454
 5682TIP3   OH238460   4.150   6.682   2.072 -0.0275 -0.4432  0.2632
 5682TIP3    H138461   4.202   6.655   2.148 -0.0107  1.5821  1.0498
 5682TIP3    H238462   4.215   6.697   2.003 -0.0179 -2.0237 -0.1100
 5683TIP3   OH238463   2.182   5.254   2.146 -0.3121 -0.8229  0.3301
 5683TIP3    H138464   2.206   5.292   2.230 -0.0023 -2.4657  1.0166
 5683TIP3    H238465   2.122   5.183   2.167 -0.2017 -1.2914 -0.8268
 5684TIP3   OH238466   2.774   3.930  13.533  0.0357 -0.2475  0.0735
 5684TIP3    H138467   2.756   3.907  13.624  1.1045 -1.0456  0.1025
 5684TIP3    H238468   2.831   3.860  13.502  1.4596  1.1604 -0.5671
 5685TIP3   OH238469   1.562   1.965   2.226 -0.4981 -0.4764 -0.8251
 5685TIP3    H138470   1.580   2.053   2.259 -1.4833 -0.2484 -0.8642
 5685TIP3    H238471   1.581   1.907   2.301  1.4615 -0.3891 -1.1991
 5686TIP3   OH238472   4.165   5.927  11.395 -0.0878 -0.1673  0.2649
 5686TIP3    H138473   4.248   5.942  11.441  0.1682 -1.3688  0.2219
 5686TIP3    H238474   4.162   5.997  11.329  0.5661  0.2844  0.7008
 5687TIP3   OH238475   0.913   0.062  16.621  0.1206  0.1483 -0.4100
 5687TIP3    H138476   1.000   0.050  16.658  0.4491  0.9027 -0.8976
 5687TIP3    H238477   0.855   0.070  16.696  0.3391 -1.1616 -0.0783
 5688TIP3   OH238478   5.251   5.353   6.549  0.0417 -0.1042 -0.2387
 5688TIP3    H138479   5.318   5.356   6.480 -0.7383 -0.3257 -1.0164
 5688TIP3    H238480   5.276   5.422   6.610 -0.0894  1.0956 -1.5188
 5689TIP3   OH238481   1.310   4.558   4.276  0.8221 -0.4176 -0.2587
 5689TIP3    H138482   1.291   4.486   4.216  1.9945 -2.5911  1.8177
 5689TIP3    H238483   1.224   4.593   4.299  0.0008 -2.5482  0.2112
 5690TIP3   OH238484   4.191   4.404   2.572  0.5475  0.7280 -0.4781
 5690TIP3    H138485   4.201   4.498   2.588  2.4824  0.2744  1.3209
 5690TIP3    H238486   4.098   4.388   2.582  0.4447  2.1336  1.2424
 5691TIP3   OH238487   3.620   3.769   0.979 -0.1477  0.3794  0.3037
 5691TIP3    H138488   3.610   3.725   1.064  4.3659 -2.0039 -0.1364
 5691TIP3    H238489   3.625   3.698   0.916  1.8342  1.7729 -1.2275
 5692TIP3   OH238490   6.307   2.908  14.232 -0.0859 -0.5225 -0.0007
 5692TIP3    H138491   6.304   2.975  14.300  0.5349  0.5101 -0.9579
 5692TIP3    H238492   6.374   2.847  14.263  0.1086 -0.1315  0.3725
 5693TIP3   OH238493   4.915   0.582  15.774  0.2894 -0.2337  0.2661
 5693TIP3    H138494   4.954   0.665  15.800 -1.2275  0.0362  1.8487
 5693TIP3    H238495   4.856   0.559  15.846 -1.1541 -1.4699 -1.2223
 5694TIP3   OH238496   2.234   5.634  12.667 -0.1627  0.0267 -0.4859
 5694TIP3    H138497   2.237   5.718  12.713  0.0903  0.2534 -0.9155
 5694TIP3    H238498   2.313   5.632  12.614 -0.1097 -0.5351 -0.3988
 5695TIP3   OH238499   4.500   2.168  13.400 -0.7232 -0.3526  0.4744
 5695TIP3    H138500   4.556   2.246  13.397  0.3796 -1.1047 -2.4964
 5695TIP3    H238501   4.503   2.139  13.491  2.5044  0.5359  0.7741
 5696TIP3   OH238502   0.517   5.525  10.817  0.1728 -0.1372  0.9650
 5696TIP3    H138503   0.426   5.533  10.791  0.0940  0.7030  1.4769
 5696TIP3    H238504   0.566   5.552  10.739 -0.0309  0.4801  1.0501
 5697TIP3   OH238505   4.351   5.828  11.736  0.1688 -0.2160 -0.1839
 5697TIP3    H138506   4.310   5.913  11.722 -2.4051 -1.6858 -2.5020
 5697TIP3    H238507   4.307   5.793  11.814 -0.1671 -0.1780 -0.3536
 5698TIP3   OH238508   4.981   3.798   3.390  0.6706 -0.2907  0.0972
 5698TIP3    H138509   5.070   3.807   3.357  0.0455 -0.7639 -1.8588
 5698TIP3    H238510   4.929   3.773   3.313 -1.2367  0.4480  1.0732
 5699TIP3   OH238511   4.399   6.015  10.725  0.1280 -0.0585  0.3615
 5699TIP3    H138512   4.406   6.108  10.704  0.9789  0.0208  0.9681
 5699TIP3    H238513   4.306   6.002  10.746 -0.4510  0.1990 -1.7292
 5700TIP3   OH238514   0.901   3.408   0.937 -0.6800  0.3126  0.2232
 5700TIP3    H138515   0.862   3.322   0.953 -1.9073  0.4960 -1.4490
 5700TIP3    H238516   0.885   3.424   0.844  1.2432  1.5221  0.0496
 5701TIP3   OH238517   5.734   4.099   2.506  0.2142  0.8791  0.6943
 5701TIP3    H138518   5.678   4.030   2.542  1.2893 -0.2249  0.3311
 5701TIP3    H238519   5.698   4.117   2.419  0.3558  0.2470  0.5014
 5702TIP3   OH238520   5.230   1.878  12.231  0.1997 -0.3724  0.2636
 5702TIP3    H138521   5.295   1.808  12.240 -0.4778 -0.8751  1.4072
 5702TIP3    H238522   5.146   1.834  12.240 -0.2878  0.3801 -0.5053
 5703TIP3   OH238523   5.021   5.083   5.808  0.1891  0.3487  0.6155
 5703TIP3    H138524   5.096   5.100   5.865  0.9550 -0.6510 -0.0584
 5703TIP3    H238525   4.997   4.992   5.825  1.4635 -0.5079 -1.7634
 5704TIP3   OH238526   6.570   5.813  11.786  0.9466  0.4872 -0.6072
 5704TIP3    H138527   6.528   5.891  11.821  0.6859  0.7290 -1.4398
 5704TIP3    H238528   6.654   5.808  11.831  0.7160  0.9187 -0.1256
 5705TIP3   OH238529   2.318   3.171   2.541  0.4259 -0.1784 -0.1803
 5705TIP3    H138530   2.350   3.237   2.479 -1.1498  1.5562  0.7405
 5705TIP3    H238531   2.264   3.113   2.489  2.8558 -1.6310 -1.2598
 5706TIP3   OH238532   2.502   1.679  15.628  0.0049 -0.3823 -0.2438
 5706TIP3    H138533   2.453   1.597  15.634  0.3324 -0.6264 -0.7560
 5706TIP3    H238534   2.594   1.651  15.625  0.1393  0.0288  0.0152
 5707TIP3   OH238535   1.006   0.403   2.617 -0.1835 -0.0065 -0.3575
 5707TIP3    H138536   0.993   0.393   2.523 -0.6682 -0.7881 -0.2221
 5707TIP3    H238537   1.061   0.328   2.642  0.0825  0.2872 -0.0434
 5708TIP3   OH238538   2.330   2.875   0.789  0.2192  0.2401 -0.1955
 5708TIP3    H138539   2.400   2.916   0.739  0.8197 -1.3181 -0.7082
 5708TIP3    H238540   2.273   2.947   0.816 -0.7207  1.1292 -3.9972
 5709TIP3   OH238541   6.467   0.810   2.034 -0.2081  0.5065  0.0316
 5709TIP3    H138542   6.423   0.809   2.119 -1.1119 -1.6307 -0.4082
 5709TIP3    H238543   6.555   0.777   2.053  0.3613  2.1453  0.4490
 5710TIP3   OH238544   4.448   3.436  10.650 -0.1186 -0.3504  0.1764
 5710TIP3    H138545   4.374   3.412  10.707 -0.4041 -0.8383 -0.3891
 5710TIP3    H238546   4.488   3.353  10.627  0.1860 -0.1300 -0.0913
 5711TIP3   OH238547   6.113   0.083   4.364 -0.7004  0.4468  0.1403
 5711TIP3    H138548   6.131   0.041   4.280  1.7330 -0.9929  1.2915
 5711TIP3    H238549   6.123   0.177   4.347  0.1525  0.1514 -1.0862
 5712TIP3   OH238550   3.016   4.788   5.848  0.6654 -0.4108 -0.1386
 5712TIP3    H138551   2.983   4.741   5.772  1.0348 -0.7830 -0.0750
 5712TIP3    H238552   3.091   4.736   5.877  0.1825 -0.6037  0.8239
 5713TIP3   OH238553   2.764   1.811   2.346  0.3168 -0.0546  0.5537
 5713TIP3    H138554   2.836   1.748   2.340  0.6115  0.2071  1.2880
 5713TIP3    H238555   2.749   1.839   2.255 -0.5494 -1.9842  0.0603
 5714TIP3   OH238556   3.204   1.960   4.560 -0.0931  0.7654  0.6222
 5714TIP3    H138557   3.183   2.006   4.479  0.2232  1.7786  1.0915
 5714TIP3    H238558   3.276   1.902   4.537 -0.2486  0.7774  0.0979
 5715TIP3   OH238559   3.104   2.134   5.268 -0.6036 -0.5143 -0.0037
 5715TIP3    H138560   3.035   2.069   5.253 -1.1395 -0.4310  1.8525
 5715TIP3    H238561   3.059   2.208   5.310 -0.0957  1.2911 -2.3865
 5716TIP3   OH238562   4.278   6.015   4.629  0.0395  0.5695 -0.0851
 5716TIP3    H138563   4.291   6.043   4.720  1.3876  0.0949 -0.1150
 5716TIP3    H238564   4.308   5.924   4.628 -0.5912  0.3592 -0.8748
 5717TIP3   OH238565   6.585   6.168  14.700  0.2148 -0.0561  0.3402
 5717TIP3    H138566   6.631   6.249  14.677 -0.3398 -0.3021 -1.8326
 5717TIP3    H238567   6.542   6.189  14.783  0.0941  1.9048 -0.1586
 5718TIP3   OH238568   3.589   1.175  16.772  0.1185  0.1507 -0.0249
 5718TIP3    H138569   3.537   1.204  16.847  1.4914  0.3005  0.8919
 5718TIP3    H238570   3.678   1.201  16.793  0.9362 -2.0285 -0.5661
 5719TIP3   OH238571   1.304   3.068  13.155  0.2365 -0.5618  0.2047
 5719TIP3    H138572   1.386   3.059  13.204  0.1411  1.3627  0.8338
 5719TIP3    H238573   1.254   3.131  13.207 -0.8436 -0.2495 -1.1894
 5720TIP3   OH238574   5.554   5.815  17.186 -0.1684  0.2218 -0.1005
 5720TIP3    H138575   5.495   5.788  17.116  0.1286  1.7845 -1.0119
 5720TIP3    H238576   5.501   5.873  17.241  0.1778  0.7181 -0.2771
 5721TIP3   OH238577   5.334   4.743  15.432 -0.3001  0.0347  0.0182
 5721TIP3    H138578   5.264   4.685  15.462 -0.6381 -1.7315 -3.6452
 5721TIP3    H238579   5.412   4.687  15.431  0.0687  0.5553 -0.5703
 5722TIP3   OH238580   1.136   4.147  15.245  0.5457  0.1301 -0.0514
 5722TIP3    H138581   1.132   4.175  15.153 -0.5557 -0.5809 -0.2332
 5722TIP3    H238582   1.224   4.112  15.255  2.2026  3.8618  0.2798
 5723TIP3   OH238583   1.691   0.829  15.777 -0.0176 -0.4409 -0.8915
 5723TIP3    H138584   1.731   0.750  15.814 -1.7347 -0.5521  0.8446
 5723TIP3    H238585   1.701   0.896  15.845 -2.2109 -0.3244 -0.6116
 5724TIP3   OH238586   4.330   5.063   6.210 -0.0053 -0.1750 -0.2504
 5724TIP3    H138587   4.335   5.007   6.287  1.0802 -0.4067 -0.4705
 5724TIP3    H238588   4.328   5.002   6.136  1.9607  0.0132 -0.5352
 5725TIP3   OH238589   3.800   0.820   3.832  0.4163 -0.2442  0.4442
 5725TIP3    H138590   3.865   0.880   3.796  0.1447 -0.5234 -0.5302
 5725TIP3    H238591   3.756   0.871   3.900  0.5436  0.4923 -0.0122
 5726TIP3   OH238592   5.465   6.249  14.261 -0.2994  0.2013  0.1061
 5726TIP3    H138593   5.394   6.233  14.198  0.4749 -1.1715 -0.4702
 5726TIP3    H238594   5.435   6.207  14.342 -0.4456  0.2312  0.0673
 5727TIP3   OH238595   2.004   0.267   6.445  0.1416 -0.7347  0.2419
 5727TIP3    H138596   2.024   0.214   6.368  0.9092  0.2786 -0.2792
 5727TIP3    H238597   1.956   0.342   6.410 -2.7674 -1.9919  1.1900
 5728TIP3   OH238598   4.948   0.432  12.729  0.1284  0.3933 -0.1245
 5728TIP3    H138599   5.038   0.410  12.704  0.2028  0.5863 -0.0318
 5728TIP3    H238600   4.947   0.422  12.824 -0.3895 -1.2104 -0.2625
 5729TIP3   OH238601   5.917   2.711   5.124  0.3864 -0.0233 -0.3777
 5729TIP3    H138602   5.890   2.795   5.161 -0.7738 -0.8187  0.6448
 5729TIP3    H238603   5.996   2.687   5.172 -0.4605 -0.4980  0.8034
 5730TIP3   OH238604   2.087   3.621   4.449 -0.4288 -0.1701  0.9064
 5730TIP3    H138605   2.141   3.657   4.518  0.8425  0.1658 -0.2218
 5730TIP3    H238606   2.017   3.685   4.437  0.1103  0.4383  0.9747
 5731TIP3   OH238607   5.758   0.164   3.892  0.5304 -0.1784  0.0172
 5731TIP3    H138608   5.755   0.227   3.820 -1.2042 -1.2206 -0.8905
 5731TIP3    H238609   5.810   0.091   3.859  2.0305  0.4761  0.8506
 5732TIP3   OH238610   3.841   2.652   5.215  0.0145  0.4343 -0.4958
 5732TIP3    H138611   3.904   2.628   5.146  1.6038  0.6260  0.8450
 5732TIP3    H238612   3.882   2.624   5.296 -2.4073 -1.0010  0.3340
 5733TIP3   OH238613   3.766   4.276   3.861 -0.1161  0.2886  0.1078
 5733TIP3    H138614   3.684   4.230   3.878 -0.8771  2.0622  1.5673
 5733TIP3    H238615   3.741   4.350   3.806  0.8856 -0.2968 -1.2049
 5734TIP3   OH238616   6.712   1.027   2.266  0.6859 -0.3001 -0.2713
 5734TIP3    H138617   6.760   0.972   2.328  0.2223  0.1409  0.4975
 5734TIP3    H238618   6.680   0.966   2.200  1.0312 -0.8090  0.0221
 5735TIP3   OH238619   2.679   1.466   3.969 -0.1400  0.1004  0.2663
 5735TIP3    H138620   2.600   1.487   3.921  0.6497  1.1742 -0.6333
 5735TIP3    H238621   2.712   1.386   3.928  0.3195  0.7920 -0.7625
 5736TIP3   OH238622   1.234   0.978   2.354 -0.2812 -0.4248  0.2941
 5736TIP3    H138623   1.146   0.978   2.391 -0.1470 -1.7171  0.6698
 5736TIP3    H238624   1.291   0.954   2.427  0.6467  2.2607  0.5425
 5737TIP3   OH238625   5.719   3.611  13.609  0.2552 -0.1358  0.2635
 5737TIP3    H138626   5.797   3.661  13.632 -0.0299  0.6176 -0.3847
 5737TIP3    H238627   5.665   3.611  13.688  0.2304  0.6376  0.2468
 5738TIP3   OH238628   6.554   4.150  16.123  0.2060  0.0983  0.2184
 5738TIP3    H138629   6.513   4.067  16.147  0.6301 -0.3882 -0.6907
 5738TIP3    H238630   6.643   4.126  16.095  0.7054  0.9882  0.9636
 5739TIP3   OH238631   0.447   3.600  15.581  0.0029  0.0995  0.4516
 5739TIP3    H138632   0.540   3.621  15.590 -0.2231  1.4345 -0.0669
 5739TIP3    H238633   0.403   3.684  15.586 -1.1751 -0.5023  0.5414
 5740TIP3   OH238634   4.462   5.101  15.838 -0.0371 -0.1444 -0.1313
 5740TIP3    H138635   4.534   5.040  15.853 -1.0547 -1.1490  0.9487
 5740TIP3    H238636   4.436   5.085  15.747  1.6571  0.8946 -0.8330
 5741TIP3   OH238637   0.919   3.700   0.742  0.5017 -0.1826 -0.2157
 5741TIP3    H138638   0.844   3.650   0.710 -0.4088  1.0454 -0.0733
 5741TIP3    H238639   0.972   3.716   0.664 -0.5266  0.8230 -0.7313
 5742TIP3   OH238640   2.392   6.458   4.776  0.4258  0.2290 -0.2134
 5742TIP3    H138641   2.356   6.377   4.814  0.2399  0.4190  0.0166
 5742TIP3    H238642   2.468   6.429   4.726  0.7559 -0.0082  0.4161
 5743TIP3   OH238643   5.187   3.066  12.094  0.2813  0.6764  0.0088
 5743TIP3    H138644   5.154   2.977  12.080  0.5476  0.4136  0.9942
 5743TIP3    H238645   5.109   3.121  12.096 -0.2394 -0.0487  3.1503
 5744TIP3   OH238646   3.439   6.338  16.102  0.2625 -0.3609  0.1412
 5744TIP3    H138647   3.520   6.368  16.144  0.1539  0.6587 -0.3329
 5744TIP3    H238648   3.469   6.284  16.029  0.5726  0.6368 -0.5049
 5745TIP3   OH238649   4.244   0.801   5.232 -0.0847 -0.2194 -0.0428
 5745TIP3    H138650   4.265   0.889   5.263 -1.6391  0.3478 -0.5053
 5745TIP3    H238651   4.315   0.780   5.171  0.3555  0.6803  0.1415
 5746TIP3   OH238652   1.777   6.022  12.178  0.0226  0.3356 -0.7542
 5746TIP3    H138653   1.863   6.061  12.160 -0.4479  1.5731 -0.3934
 5746TIP3    H238654   1.792   5.928  12.168  0.7879  0.6353 -3.4603
 5747TIP3   OH238655   4.152   3.001   4.108 -0.1248 -0.0712 -0.1782
 5747TIP3    H138656   4.172   2.913   4.141 -0.8787 -0.8570 -1.6842
 5747TIP3    H238657   4.108   3.045   4.181  0.2989 -0.9256  0.6095
 5748TIP3   OH238658   5.356   4.172   2.227 -0.0861 -0.4609 -0.1137
 5748TIP3    H138659   5.280   4.138   2.274 -0.5293 -0.3521 -0.7425
 5748TIP3    H238660   5.372   4.108   2.158  0.0010 -0.1564 -0.3780
 5749TIP3   OH238661   5.308   1.995   1.458 -0.3030 -0.0892 -0.0046
 5749TIP3    H138662   5.403   1.992   1.445 -0.2314  0.8438  0.2921
 5749TIP3    H238663   5.295   2.058   1.529 -1.0027 -1.7087  1.3775
 5750TIP3   OH238664   0.260   4.226  11.586  0.1458 -0.5866 -0.2713
 5750TIP3    H138665   0.325   4.279  11.632 -2.8512  1.8462  1.5296
 5750TIP3    H238666   0.235   4.159  11.649 -0.5037 -0.2873 -0.2117
 5751TIP3   OH238667   1.123   6.403   5.258 -0.4230  0.0857 -0.1715
 5751TIP3    H138668   1.031   6.378   5.266  0.0141 -1.3540  0.8089
 5751TIP3    H238669   1.166   6.325   5.224  0.4018  0.8567 -0.9546
 5752TIP3   OH238670   0.005   2.412   3.041  0.0492  0.2029 -0.2254
 5752TIP3    H138671   0.077   2.433   2.981  0.7628  1.1191  0.8939
 5752TIP3    H238672   0.014   2.476   3.112 -2.2680  0.7413 -0.3547
 5753TIP3   OH238673   3.841   5.316   5.615 -0.0792  0.1942  0.0619
 5753TIP3    H138674   3.795   5.234   5.632 -0.6763  0.2251 -1.2852
 5753TIP3    H238675   3.932   5.298   5.639  0.2166 -1.5208 -2.0385
 5754TIP3   OH238676   2.209   6.198  12.432  0.2723 -0.0230  0.6013
 5754TIP3    H138677   2.286   6.184  12.486 -1.3939 -0.3122  3.0630
 5754TIP3    H238678   2.186   6.111  12.399  2.1432  0.3553 -1.9662
 5755TIP3   OH238679   5.105   1.133  11.741  0.6729  0.5394  0.3236
 5755TIP3    H138680   5.182   1.079  11.761  0.7041  0.5708  0.2889
 5755TIP3    H238681   5.129   1.221  11.769  1.0722  0.7707 -0.6962
 5756TIP3   OH238682   1.758   4.609  12.203  0.3134 -0.3315 -0.1584
 5756TIP3    H138683   1.766   4.689  12.151  1.3436 -1.3458 -1.6697
 5756TIP3    H238684   1.844   4.599  12.245 -0.5988  0.6310  2.0649
 5757TIP3   OH238685   1.143   6.107  13.452  0.0716  0.2889 -0.3709
 5757TIP3    H138686   1.078   6.137  13.388  0.4088  0.3742 -0.6722
 5757TIP3    H238687   1.122   6.157  13.532 -1.7652 -1.4070  0.3052
 5758TIP3   OH238688   2.220   2.577  12.501  0.3888 -0.1259 -1.0180
 5758TIP3    H138689   2.181   2.664  12.497  0.1556 -0.2298 -1.0240
 5758TIP3    H238690   2.302   2.589  12.548  0.5615  0.1706 -1.3903
 5759TIP3   OH238691   2.865   5.530   4.301 -0.3009  0.1051  0.1127
 5759TIP3    H138692   2.826   5.529   4.214  0.5834  0.2712 -0.2924
 5759TIP3    H238693   2.806   5.586   4.352 -0.9808 -0.2252 -0.2926
 5760TIP3   OH238694   3.911   6.269  12.911 -0.3001  0.1386  0.2378
 5760TIP3    H138695   3.832   6.266  12.965  0.3193 -0.2667  1.1580
 5760TIP3    H238696   3.922   6.361  12.889 -0.7306  0.2750  0.5785
 5761TIP3   OH238697   6.360   6.281  16.076 -0.2306  0.0238 -0.2858
 5761TIP3    H138698   6.349   6.190  16.050  0.7795 -0.1025 -0.3176
 5761TIP3    H238699   6.399   6.277  16.164 -0.9121  0.4304  0.0439
 5762TIP3   OH238700   0.503   4.706   0.398  0.0398  0.0558 -0.9677
 5762TIP3    H138701   0.532   4.622   0.432 -0.4656 -0.7201 -2.3981
 5762TIP3    H238702   0.563   4.726   0.326 -0.9719 -0.0169 -1.8584
 5763TIP3   OH238703   4.607   1.829  16.775 -0.1403 -0.2352 -0.6454
 5763TIP3    H138704   4.609   1.734  16.776  1.4634 -0.2540 -1.6376
 5763TIP3    H238705   4.630   1.855  16.865 -0.0408 -0.7784 -0.5116
 5764TIP3   OH238706   4.450   6.140   3.241 -1.0175 -0.5858  0.0463
 5764TIP3    H138707   4.453   6.135   3.145  0.2410  0.0628  0.0360
 5764TIP3    H238708   4.376   6.199   3.259 -1.6777 -1.2295 -0.4919
 5765TIP3   OH238709   5.872   1.052  13.865 -0.0871 -0.0486  0.6198
 5765TIP3    H138710   5.931   0.985  13.900  1.0600  0.0357 -1.0223
 5765TIP3    H238711   5.784   1.023  13.891  0.4433 -1.7514  0.6509
 5766TIP3   OH238712   1.879   2.823  15.372 -0.2728  0.1623 -0.2869
 5766TIP3    H138713   1.898   2.827  15.278  0.5416  0.1362 -0.1273
 5766TIP3    H238714   1.957   2.784  15.411 -0.0198  1.4641  0.5687
 5767TIP3   OH238715   1.983   0.489  12.152 -0.4970 -0.2161  0.1309
 5767TIP3    H138716   1.987   0.465  12.245 -0.3958 -0.8041 -0.0224
 5767TIP3    H238717   2.074   0.485  12.122 -0.7278 -1.9069 -0.4485
 5768TIP3   OH238718   5.535   3.121  14.693  0.5750  0.1356 -0.2333
 5768TIP3    H138719   5.548   3.070  14.772  1.3495 -0.5761 -0.7971
 5768TIP3    H238720   5.459   3.176  14.712 -0.2455 -1.1589  0.4243
 5769TIP3   OH238721   2.128   1.008  13.570 -0.0227  0.2748  0.0485
 5769TIP3    H138722   2.071   1.053  13.507 -1.7703 -0.6645  0.9016
 5769TIP3    H238723   2.191   0.960  13.515 -1.0277  0.0925 -0.9803
 5770TIP3   OH238724   5.291   3.153  11.679  0.6979  0.1785  0.1794
 5770TIP3    H138725   5.364   3.155  11.617  1.7931  1.2321  1.4528
 5770TIP3    H238726   5.331   3.129  11.763 -0.9392 -2.5993  0.2984
 5771TIP3   OH238727   3.707   2.852   5.046 -0.1048  0.1416  0.1126
 5771TIP3    H138728   3.780   2.809   5.091 -0.9241 -1.7318 -0.2180
 5771TIP3    H238729   3.630   2.802   5.072 -0.8532  0.1459 -1.8746
 5772TIP3   OH238730   0.090   0.031  13.727 -0.3395 -0.0364 -0.4662
 5772TIP3    H138731   0.001   0.038  13.693 -1.1719  0.0734  1.5705
 5772TIP3    H238732   0.089   0.081  13.809  0.6790 -2.5846  1.2500
 5773TIP3   OH238733   2.815   1.244   4.944  0.0564  0.1652 -0.3198
 5773TIP3    H138734   2.881   1.304   4.976  0.5482 -1.2222  1.4242
 5773TIP3    H238735   2.732   1.280   4.974  0.3127  0.1865  0.3673
 5774TIP3   OH238736   6.123   0.716   4.212  0.0233  0.1766  0.3192
 5774TIP3    H138737   6.046   0.738   4.265 -0.4704  2.4142 -1.1873
 5774TIP3    H238738   6.093   0.649   4.151 -1.2265  1.9696 -1.1561
 5775TIP3   OH238739   6.131   1.443   4.528 -0.1217 -0.4072  0.1312
 5775TIP3    H138740   6.071   1.464   4.600 -1.3018 -0.6350 -0.7477
 5775TIP3    H238741   6.133   1.347   4.526 -0.2075 -0.4006 -0.2277
 5776TIP3   OH238742   0.465   0.814  15.807  0.2781 -0.2048  0.5114
 5776TIP3    H138743   0.536   0.832  15.745  1.6455 -0.5866  1.8896
 5776TIP3    H238744   0.410   0.750  15.762 -0.4878  1.7265 -1.4671
 5777TIP3   OH238745   4.243   1.150   6.031  0.5812  0.4877 -0.2337
 5777TIP3    H138746   4.308   1.166   6.099  0.3651 -1.0955  0.3616
 5777TIP3    H238747   4.172   1.211   6.051  0.0431 -0.6890  1.6073
 5778TIP3   OH238748   3.491   2.107  12.900  0.5244  0.1445  0.6489
 5778TIP3    H138749   3.572   2.144  12.864 -0.7425  2.8771  0.3531
 5778TIP3    H238750   3.434   2.096  12.824  0.0189 -0.0867  1.0526
 5779TIP3   OH238751   4.671   4.997  14.861  0.3240  0.1507 -0.8421
 5779TIP3    H138752   4.646   5.044  14.781 -0.7804 -1.4795 -1.5161
 5779TIP3    H238753   4.591   4.995  14.913  0.8742  0.6464  0.0541
 5780TIP3   OH238754   6.316   0.342   6.263  0.6066  0.1009  0.0371
 5780TIP3    H138755   6.383   0.364   6.327 -0.4238  0.4140  1.0268
 5780TIP3    H238756   6.313   0.246   6.263  0.3024  0.1114  0.7796
 5781TIP3   OH238757   6.236   5.255   3.023 -0.6761 -0.1828  1.0714
 5781TIP3    H138758   6.291   5.232   3.097  0.3694  1.5141  0.8697
 5781TIP3    H238759   6.276   5.210   2.948 -0.2539  0.0926  1.1285
 5782TIP3   OH238760   1.553   2.800   3.322 -0.2276 -0.3494  0.4058
 5782TIP3    H138761   1.504   2.742   3.382  3.0261 -0.8118  2.9024
 5782TIP3    H238762   1.581   2.873   3.378 -1.7469  2.2821 -2.0096
 5783TIP3   OH238763   1.347   4.224   0.700 -0.0088  0.7292  0.1518
 5783TIP3    H138764   1.317   4.259   0.616 -1.4433  1.8985  1.0957
 5783TIP3    H238765   1.368   4.302   0.752 -0.5668  0.1009  1.3643
 5784TIP3   OH238766   2.531   6.232   4.422 -0.2251 -0.1772  0.0995
 5784TIP3    H138767   2.536   6.301   4.488  1.8644 -0.8155  0.6704
 5784TIP3    H238768   2.533   6.278   4.338  2.5350  0.4802  0.4415
 5785TIP3   OH238769   4.877   1.360  11.875  0.2978 -0.4089 -0.0789
 5785TIP3    H138770   4.803   1.300  11.885  1.1792 -1.5597 -0.1549
 5785TIP3    H238771   4.882   1.376  11.781 -0.0745 -0.0299 -0.0369
 5786TIP3   OH238772   3.979   2.260  16.623  0.1900  0.1569  0.3124
 5786TIP3    H138773   3.924   2.263  16.701 -0.6129  2.3052 -0.2530
 5786TIP3    H238774   4.009   2.350  16.612 -0.2979  0.0981 -2.2256
 5787TIP3   OH238775   6.415   3.039   1.265  0.0292 -0.1225  0.7878
 5787TIP3    H138776   6.508   3.021   1.252 -0.0690  0.7706 -1.6386
 5787TIP3    H238777   6.370   2.964   1.226 -0.2840  0.0673  0.7773
 5788TIP3   OH238778   0.648   1.899  13.158  0.5898  0.3168  0.6587
 5788TIP3    H138779   0.712   1.859  13.216 -0.2881 -1.2923  0.5711
 5788TIP3    H238780   0.578   1.929  13.216  0.1202 -0.5024  0.5314
 5789TIP3   OH238781   4.169   4.373   5.808 -0.0853 -0.0727  0.6138
 5789TIP3    H138782   4.179   4.468   5.808 -0.3783 -0.0043 -1.2857
 5789TIP3    H238783   4.079   4.358   5.780 -0.3976 -0.9143  1.9661
 5790TIP3   OH238784   5.691   1.565  10.754  0.0263 -0.2460  0.7026
 5790TIP3    H138785   5.696   1.651  10.712  0.4189 -0.6402 -0.0800
 5790TIP3    H238786   5.646   1.581  10.837  0.3119  0.7503  0.6704
 5791TIP3   OH238787   1.438   0.942  12.226 -0.2178 -0.1618  0.5490
 5791TIP3    H138788   1.435   1.008  12.295 -3.1415 -0.5809  0.9664
 5791TIP3    H238789   1.475   0.987  12.150 -0.2368  1.3513  1.4045
 5792TIP3   OH238790   6.019   5.310  15.748 -0.1703 -0.5617  0.4801
 5792TIP3    H138791   6.018   5.402  15.774  0.2105 -0.2808 -0.4694
 5792TIP3    H238792   6.104   5.278  15.779  0.7148  0.0309 -1.2163
 5793TIP3   OH238793   4.816   0.456   5.752 -0.1563  0.0637 -0.0797
 5793TIP3    H138794   4.829   0.361   5.751 -0.3608  0.0345 -0.0671
 5793TIP3    H238795   4.728   0.468   5.786  0.3838  0.3247  1.2685
 5794TIP3   OH238796   0.020   5.340   0.540  0.0837  0.4512 -0.3460
 5794TIP3    H138797   0.096   5.285   0.556  0.9991  1.8626  0.2813
 5794TIP3    H238798  -0.016   5.358   0.627 -0.6470  0.2458 -0.5983
 5795TIP3   OH238799   0.579   4.682  11.951  0.1865 -0.8440 -0.2759
 5795TIP3    H138800   0.576   4.591  11.980  0.2052 -1.0600 -0.9495
 5795TIP3    H238801   0.497   4.695  11.903  0.1739 -0.5013 -0.1637
 5796TIP3   OH238802   6.766   5.176  14.705 -0.3850  0.5574  0.3183
 5796TIP3    H138803   6.796   5.129  14.782  0.1825 -1.9001 -1.2793
 5796TIP3    H238804   6.680   5.139  14.687 -0.4316  0.9677 -0.3155
 5797TIP3   OH238805   5.110   6.025   2.843 -0.3179 -0.2661  0.4890
 5797TIP3    H138806   5.122   6.013   2.937 -1.4006 -1.9735  0.4645
 5797TIP3    H238807   5.061   6.106   2.835  0.5547  0.3610  1.3251
 5798TIP3   OH238808   3.003   1.101   5.784 -0.1338 -0.1376  0.2344
 5798TIP3    H138809   2.995   1.132   5.874 -0.7132 -0.8606  0.4399
 5798TIP3    H238810   2.932   1.037   5.774  0.1777 -0.3638 -0.6032
 5799TIP3   OH238811   1.112   4.334  15.811  0.2244  0.3464 -0.0211
 5799TIP3    H138812   1.074   4.258  15.855  0.6813  0.5610  0.7493
 5799TIP3    H238813   1.046   4.360  15.747 -0.3257 -0.1391  0.3416
 5800TIP3   OH238814   1.848   2.732  14.819  0.5751  0.0607 -0.3899
 5800TIP3    H138815   1.906   2.656  14.814 -1.2765 -1.3410 -2.5526
 5800TIP3    H238816   1.896   2.801  14.773  0.4163 -1.2086 -2.5861
 5801TIP3   OH238817   6.224   1.818   0.693 -0.2711 -0.4282 -0.1834
 5801TIP3    H138818   6.173   1.892   0.661 -0.7165 -0.8816 -0.5386
 5801TIP3    H238819   6.168   1.742   0.677  0.2382 -0.8563  0.0520
 5802TIP3   OH238820   4.602   5.607  13.055  0.4277  0.1816 -0.4350
 5802TIP3    H138821   4.507   5.603  13.039  0.4187  0.1085 -0.3685
 5802TIP3    H238822   4.641   5.560  12.981  0.2833 -1.8881  0.7251
 5803TIP3   OH238823   0.870   3.808   3.016 -0.0275 -0.6009 -0.3247
 5803TIP3    H138824   0.883   3.895   3.053 -2.0964 -1.6311  3.3115
 5803TIP3    H238825   0.920   3.809   2.934 -1.2928  4.4840 -1.3499
 5804TIP3   OH238826   1.363   5.700   4.397 -0.0576  0.5611 -0.0170
 5804TIP3    H138827   1.400   5.687   4.484  1.6431  1.4979 -0.5600
 5804TIP3    H238828   1.268   5.697   4.411  0.1170 -2.3173  1.3794
 5805TIP3   OH238829   6.295   2.291  15.563  0.1304  0.0029 -0.1218
 5805TIP3    H138830   6.337   2.278  15.478 -0.4033 -2.0362 -0.1276
 5805TIP3    H238831   6.280   2.202  15.596 -0.0190  0.7430  1.9432
 5806TIP3   OH238832   5.807   2.108  14.449  0.4106 -0.0215  0.0407
 5806TIP3    H138833   5.800   2.013  14.447  0.8543 -0.3039  4.0287
 5806TIP3    H238834   5.899   2.126  14.431  0.6529 -0.4855  0.7849
 5807TIP3   OH238835   2.093   6.321  16.134  0.1477 -0.2120  0.5041
 5807TIP3    H138836   2.095   6.400  16.188 -0.5498  0.0679  0.1407
 5807TIP3    H238837   2.065   6.352  16.047  1.7053 -0.5833 -0.1599
 5808TIP3   OH238838   0.883   4.439   1.911  0.4310 -0.1810  0.1638
 5808TIP3    H138839   0.892   4.371   1.978 -0.4582 -0.4177  0.0505
 5808TIP3    H238840   0.793   4.432   1.881  0.7562  0.0402 -0.9329
 5809TIP3   OH238841   3.981   4.350  14.336 -0.0083 -0.1013 -0.1962
 5809TIP3    H138842   3.939   4.281  14.388  0.9024 -0.8823 -0.4556
 5809TIP3    H238843   3.935   4.347  14.252 -0.9852  0.6584  0.2892
 5810TIP3   OH238844   0.497   0.287   3.341  0.9154 -0.4972  0.0420
 5810TIP3    H138845   0.465   0.347   3.274  1.5679 -1.2388 -0.9546
 5810TIP3    H238846   0.423   0.229   3.359  1.2731 -1.4366 -1.3724
 5811TIP3   OH238847   6.558   4.828   5.851 -0.1224  0.0310  0.3135
 5811TIP3    H138848   6.605   4.888   5.909  1.4313 -1.6135  0.8403
 5811TIP3    H238849   6.617   4.815   5.777 -0.9781  0.0848 -0.3980
 5812TIP3   OH238850   1.332   0.902   4.422  0.7368 -0.3352 -0.1456
 5812TIP3    H138851   1.333   0.843   4.347  1.9550 -1.1668  0.5051
 5812TIP3    H238852   1.253   0.877   4.471 -0.4661  0.6782 -1.4564
 5813TIP3   OH238853   1.523   0.961   5.485  0.1729  0.3823 -0.5755
 5813TIP3    H138854   1.576   1.034   5.515  0.3351 -0.4940  1.4120
 5813TIP3    H238855   1.508   0.979   5.392  1.1931  2.3025 -0.4195
 5814TIP3   OH238856   0.638   2.326  12.302 -0.4131  0.1240 -0.1215
 5814TIP3    H138857   0.600   2.316  12.390 -3.2376 -0.3605 -1.2911
 5814TIP3    H238858   0.692   2.248  12.291 -0.0150  0.1857  1.1431
 5815TIP3   OH238859   3.870   3.741   5.963 -0.6053 -0.7288  1.0313
 5815TIP3    H138860   3.870   3.758   6.057 -1.1358 -0.6868  1.0238
 5815TIP3    H238861   3.912   3.818   5.925 -0.4499 -0.7151  1.2280
 5816TIP3   OH238862   0.739   0.139   4.646 -0.0286  0.1690  0.1022
 5816TIP3    H138863   0.798   0.127   4.721  1.0101 -2.3131 -0.9953
 5816TIP3    H238864   0.764   0.069   4.585 -1.1757  1.7670 -2.3523
 5817TIP3   OH238865   0.420   4.926  13.561 -0.5743  0.1273 -0.0853
 5817TIP3    H138866   0.375   4.955  13.640 -0.0630  0.1979  0.1885
 5817TIP3    H238867   0.511   4.952  13.575 -0.0599 -1.6928  0.2284
 5818TIP3   OH238868   4.463   1.155  13.120  0.1712 -0.3746  0.1695
 5818TIP3    H138869   4.518   1.086  13.083 -1.6081 -0.6010 -2.2849
 5818TIP3    H238870   4.388   1.109  13.158 -0.7317  0.1022 -0.9504
 5819TIP3   OH238871   3.966   4.481  13.368  0.0921 -0.0136  0.4345
 5819TIP3    H138872   4.050   4.523  13.348  0.5433 -1.4419 -0.8808
 5819TIP3    H238873   3.940   4.441  13.285 -1.0779 -0.9886  1.2519
 5820TIP3   OH238874   5.402   2.907  16.567 -0.8586  0.5250  0.8620
 5820TIP3    H138875   5.419   3.001  16.567 -1.2428  0.6092  1.8972
 5820TIP3    H238876   5.431   2.878  16.653 -4.4427  0.4214  2.1793
 5821TIP3   OH238877   1.256   2.366  12.078  0.8846  1.0131 -0.9934
 5821TIP3    H138878   1.339   2.373  12.126 -0.0890  1.1293  0.7393
 5821TIP3    H238879   1.190   2.398  12.139 -0.5559  0.1876 -2.0604
 5822TIP3   OH238880   0.058   6.290   3.478  0.0771 -0.1579  0.3568
 5822TIP3    H138881   0.054   6.301   3.573  1.9257  0.4905  0.4012
 5822TIP3    H238882   0.057   6.195   3.465 -1.9940 -0.2404  0.8876
 5823TIP3   OH238883   1.149   0.796   6.532 -0.2407  0.2894 -0.2004
 5823TIP3    H138884   1.215   0.758   6.591 -0.2485  0.1607 -0.2740
 5823TIP3    H238885   1.066   0.763   6.566 -0.3321  1.0535  0.3494
 5824TIP3   OH238886   1.582   3.215   1.375  0.0948 -0.4899 -0.4311
 5824TIP3    H138887   1.653   3.160   1.410 -0.7524 -0.3432  1.6515
 5824TIP3    H238888   1.552   3.266   1.451  0.3216  2.3137 -2.0946
 5825TIP3   OH238889   1.637   4.136   3.967  0.1851  0.1754 -0.2083
 5825TIP3    H138890   1.563   4.137   3.906 -0.7998  0.7496  0.9576
 5825TIP3    H238891   1.599   4.156   4.052  1.0233 -3.6037  1.2360
 5826TIP3   OH238892   3.262   1.547   5.460 -0.5542 -0.6040  0.6230
 5826TIP3    H138893   3.310   1.590   5.531 -0.5073 -0.2328  0.3685
 5826TIP3    H238894   3.294   1.457   5.460 -0.1092 -0.4494  0.6794
 5827TIP3   OH238895   3.939   4.551  14.570 -0.6064  0.3373 -0.5823
 5827TIP3    H138896   3.966   4.495  14.498 -1.0342  0.5218 -0.8888
 5827TIP3    H238897   3.844   4.546  14.571 -0.5855 -0.3604  0.5323
 5828TIP3   OH238898   6.379   1.785  12.848  0.5494 -0.5653 -0.3734
 5828TIP3    H138899   6.354   1.728  12.921 -0.9981  1.0084  0.4116
 5828TIP3    H238900   6.475   1.780  12.845  0.4681 -3.7659 -0.8808
 5829TIP3   OH238901   6.155   6.278  16.549 -0.4293  0.0151 -0.4396
 5829TIP3    H138902   6.213   6.275  16.473 -1.7028  0.1745 -1.4442
 5829TIP3    H238903   6.104   6.197  16.544 -0.3603 -0.0878  0.3860
 5830TIP3   OH238904   1.383   4.366  17.145  0.4394  0.2035 -0.6548
 5830TIP3    H138905   1.338   4.374  17.061 -1.8760  1.6479  0.6369
 5830TIP3    H238906   1.355   4.281  17.179 -0.0250  0.3807 -0.5875
 5831TIP3   OH238907   2.767   6.640  14.105 -0.7234 -0.6297  0.1837
 5831TIP3    H138908   2.688   6.587  14.113 -0.2486 -1.5305 -0.7644
 5831TIP3    H238909   2.817   6.597  14.035  0.4206  0.1405  0.5033
 5832TIP3   OH238910   4.018   2.053   2.850  0.0253 -0.0774  0.1146
 5832TIP3    H138911   4.078   2.127   2.860  0.7265 -0.6070 -0.1177
 5832TIP3    H238912   3.971   2.071   2.769  0.1687  0.1348  0.0773
 5833TIP3   OH238913   4.202   4.557  17.064  0.2083  0.6244  0.3997
 5833TIP3    H138914   4.121   4.606  17.078  0.1149  0.2910  1.0770
 5833TIP3    H238915   4.245   4.558  17.149  0.6115  0.2559  0.2018
 5834TIP3   OH238916   0.168   0.542   0.011  0.0106 -0.1247 -0.3698
 5834TIP3    H138917   0.257   0.572  -0.002 -0.0626  0.9025  1.1550
 5834TIP3    H238918   0.170   0.448  -0.009  0.9301  0.2863 -2.3523
 5835TIP3   OH238919   3.912   5.982  13.624 -0.4386 -0.3799 -0.6681
 5835TIP3    H138920   3.875   5.939  13.701 -2.3512 -0.7735 -1.7218
 5835TIP3    H238921   3.848   6.051  13.603  1.0802  1.0683 -0.7436
 5836TIP3   OH238922   2.526   6.334   0.616  0.2608  0.1682  0.2317
 5836TIP3    H138923   2.600   6.295   0.662  0.7266 -0.1561 -0.7758
 5836TIP3    H238924   2.472   6.260   0.588 -0.3022  0.3888  0.6937
 5837TIP3   OH238925   1.722   4.309   0.379  0.1870  0.1074 -0.4940
 5837TIP3    H138926   1.817   4.298   0.372  0.3639  1.3621 -0.3349
 5837TIP3    H238927   1.711   4.384   0.437 -0.8674  0.8999 -1.6727
 5838TIP3   OH238928   4.142   6.348   4.274 -0.3800 -0.2566  0.6005
 5838TIP3    H138929   4.160   6.312   4.188  0.8560  0.7946  0.3830
 5838TIP3    H238930   4.225   6.339   4.322 -0.3748  1.1902  0.9091
 5839TIP3   OH238931   2.124   3.902  14.630  0.3121 -0.4942 -0.6087
 5839TIP3    H138932   2.137   3.825  14.574  0.1473  1.0754 -2.9831
 5839TIP3    H238933   2.039   3.936  14.604 -0.8142 -0.8797  2.2547
 5840TIP3   OH238934   4.996   3.821  14.157 -0.2003  0.1496  0.2066
 5840TIP3    H138935   5.047   3.831  14.237  0.5481  0.8147 -0.3431
 5840TIP3    H238936   5.020   3.897  14.104 -0.4485 -0.4569 -0.7833
 5841TIP3   OH238937   0.946   1.625   1.442  0.8112  0.0574  0.0287
 5841TIP3    H138938   0.952   1.719   1.456  0.2515 -0.2121  2.5809
 5841TIP3    H238939   0.926   1.615   1.349 -0.4308  2.5001 -0.0302
 5842TIP3   OH238940   1.154   3.446  13.004  0.1765  0.5106 -0.4306
 5842TIP3    H138941   1.139   3.353  13.023  1.5115  0.4688  0.5559
 5842TIP3    H238942   1.246   3.460  13.024  0.0602  1.9956 -0.8303
 5843TIP3   OH238943   3.351   5.643  13.786 -0.4512 -0.1994 -0.1007
 5843TIP3    H138944   3.413   5.571  13.772  0.5871  0.6425  0.0826
 5843TIP3    H238945   3.392   5.719  13.745 -0.7442  0.6650  1.1278
 5844TIP3   OH238946   0.395   6.733   4.197 -0.6083  0.3369  0.4155
 5844TIP3    H138947   0.300   6.722   4.193 -0.4540 -0.7365 -0.9920
 5844TIP3    H238948   0.430   6.644   4.187  0.5532  0.6972  1.0474
 5845TIP3   OH238949   1.185   0.503   1.082 -0.1340 -0.3325  0.5637
 5845TIP3    H138950   1.089   0.505   1.074 -0.1015 -0.5438  0.1315
 5845TIP3    H238951   1.215   0.578   1.031  0.0964 -1.9313 -1.7954
 5846TIP3   OH238952   4.104   0.179  16.191 -0.0195 -0.3336  0.1982
 5846TIP3    H138953   4.094   0.110  16.257 -1.1266 -1.5412 -1.1588
 5846TIP3    H238954   4.052   0.252  16.224  0.9142 -0.2199  1.5108
 5847TIP3   OH238955   2.632   1.566   2.175  0.1207  0.0962  0.0810
 5847TIP3    H138956   2.652   1.512   2.099  0.1743  0.8835 -0.4867
 5847TIP3    H238957   2.675   1.523   2.248  2.7046  0.9169 -0.8455
 5848TIP3   OH238958   6.258   2.820   5.059  0.3530 -0.5611 -0.3624
 5848TIP3    H138959   6.315   2.895   5.045  0.1160  0.0618  1.6684
 5848TIP3    H238960   6.192   2.851   5.120 -1.6929 -1.5219 -1.9551
 5849TIP3   OH238961   1.120   4.730  15.755 -0.5973  0.2936  0.0745
 5849TIP3    H138962   1.106   4.812  15.708 -1.0676  0.0163 -0.2741
 5849TIP3    H238963   1.211   4.735  15.785  0.2337 -0.1541 -2.1268
 5850TIP3   OH238964   2.915   5.326  13.751 -0.0096  0.4537  0.3087
 5850TIP3    H138965   2.992   5.285  13.713 -0.7202 -0.5680 -0.0874
 5850TIP3    H238966   2.948   5.404  13.796  1.0225  0.9541 -1.2429
 5851TIP3   OH238967   5.917   5.634  12.909 -0.0604 -0.2620  0.1327
 5851TIP3    H138968   5.878   5.552  12.879  0.5876 -0.4141 -0.3088
 5851TIP3    H238969   5.979   5.607  12.977  1.9464 -0.4335 -1.6526
 5852TIP3   OH238970   2.066   0.924  11.389  0.0063 -0.1046 -0.7810
 5852TIP3    H138971   2.142   0.982  11.390 -0.3919  0.4995  2.0525
 5852TIP3    H238972   2.033   0.930  11.299  2.2043  1.0188 -1.6116
 5853TIP3   OH238973   3.706   3.006  14.762  0.0565 -0.3461  0.4883
 5853TIP3    H138974   3.766   3.076  14.738 -1.4703  1.2579  1.1689
 5853TIP3    H238975   3.679   2.967  14.679 -0.9959  1.5570 -0.1087
 5854TIP3   OH238976   5.222   6.667   2.439  0.6333  0.1278  0.3077
 5854TIP3    H138977   5.300   6.718   2.462  0.5409 -0.3273  1.7183
 5854TIP3    H238978   5.235   6.582   2.480 -0.8021  0.1986  0.9902
 5855TIP3   OH238979   2.638   0.022   3.680  0.0430  0.3200 -0.1758
 5855TIP3    H138980   2.686   0.103   3.660  0.6462 -0.0370 -0.2165
 5855TIP3    H238981   2.702  -0.048   3.664 -0.8960 -0.2679 -1.5294
 5856TIP3   OH238982   5.433   3.896   2.805  0.7654 -0.4529 -0.3245
 5856TIP3    H138983   5.373   3.933   2.871 -0.5556 -1.0218 -1.1755
 5856TIP3    H238984   5.401   3.807   2.792  0.4223 -0.0760 -2.3808
 5857TIP3   OH238985   4.763   6.695  13.383 -0.0501 -0.1404 -0.0041
 5857TIP3    H138986   4.691   6.636  13.407 -0.5250  0.5543  0.3029
 5857TIP3    H238987   4.721   6.768  13.339  0.4687  0.2736  0.1788
 5858TIP3   OH238988   3.135   6.312  11.142 -0.2173 -0.2483  0.1775
 5858TIP3    H138989   3.217   6.312  11.191  0.2609 -0.8486 -0.6002
 5858TIP3    H238990   3.124   6.403  11.114  0.7796 -0.3688 -0.6665
 5859TIP3   OH238991   0.657   3.596  17.180  0.1445 -0.1707 -0.0090
 5859TIP3    H138992   0.629   3.505  17.190 -0.3712 -0.0194 -0.0785
 5859TIP3    H238993   0.587   3.648  17.219 -0.1705  0.2554 -1.1033
 5860TIP3   OH238994   0.527   0.721   6.800  0.3781  0.1980 -0.3671
 5860TIP3    H138995   0.602   0.776   6.822  0.2288 -0.8555  3.6134
 5860TIP3    H238996   0.549   0.635   6.836 -1.9009 -0.6738 -0.8598
 5861TIP3   OH238997   3.340   3.425   0.183  0.3031  0.2127 -0.8506
 5861TIP3    H138998   3.326   3.393   0.272 -2.9726  2.1582 -0.5161
 5861TIP3    H238999   3.431   3.401   0.163  0.3616 -2.6018  1.9642
 5862TIP3   OH239000   4.047   2.173   3.381  0.0656 -0.0435 -0.4641
 5862TIP3    H139001   4.110   2.215   3.322  1.6557  0.1375  1.2905
 5862TIP3    H239002   3.963   2.180   3.334  1.2701 -0.1116 -2.7863
 5863TIP3   OH239003   0.043   4.837  11.527 -0.2396  0.0397 -0.4362
 5863TIP3    H139004   0.061   4.922  11.568 -2.5236 -0.2478  1.3559
 5863TIP3    H239005   0.069   4.849  11.436  2.1579  1.7218  0.3409
 5864TIP3   OH239006   2.089   5.006   1.591 -0.4305  0.2723  0.2283
 5864TIP3    H139007   2.071   4.977   1.681 -0.2071  1.6548  0.7596
 5864TIP3    H239008   2.173   5.051   1.598 -1.1344  1.7578 -0.3196
 5865TIP3   OH239009   4.640   2.792   4.725 -0.1201 -0.1478 -0.0791
 5865TIP3    H139010   4.690   2.814   4.804 -3.1449 -0.0430  1.9984
 5865TIP3    H239011   4.618   2.699   4.737 -0.3265 -0.2176 -0.9720
 5866TIP3   OH239012   3.887   3.713  15.708  0.2603  0.5456  0.1514
 5866TIP3    H139013   3.825   3.679  15.643  1.0564 -1.0576  0.1750
 5866TIP3    H239014   3.843   3.701  15.792 -0.0534  0.9650  0.0508
 5867TIP3   OH239015   2.154   5.057  17.021 -0.1925 -0.1353  0.7982
 5867TIP3    H139016   2.193   5.033  16.937  0.3676 -0.9751  1.2747
 5867TIP3    H239017   2.226   5.047  17.084 -0.6394  0.3444  1.3959
 5868TIP3   OH239018   3.041   2.638  14.739  1.0478  0.3035  0.2770
 5868TIP3    H139019   3.102   2.569  14.763  1.2743 -0.3800 -2.0128
 5868TIP3    H239020   2.965   2.624  14.795  3.1447  1.7064  3.8318
 5869TIP3   OH239021   1.285   4.550   1.222 -0.2556 -0.1813 -0.0358
 5869TIP3    H139022   1.296   4.515   1.134  1.5735  2.4235 -0.9790
 5869TIP3    H239023   1.198   4.591   1.221  0.8256  2.3100 -1.7085
 5870TIP3   OH239024   5.683   1.797  14.726  0.5607 -0.5034 -0.3466
 5870TIP3    H139025   5.735   1.758  14.655 -1.1941 -0.1421 -1.9195
 5870TIP3    H239026   5.605   1.741  14.732  0.7296 -0.5882  1.4053
 5871TIP3   OH239027   6.740   3.528   5.653 -0.1256  0.2475  0.2023
 5871TIP3    H139028   6.712   3.445   5.693 -1.0014  0.5635  0.2654
 5871TIP3    H239029   6.771   3.503   5.567 -0.3525 -0.1615  0.2304
 5872TIP3   OH239030   3.609   0.572  11.519  0.3861  0.6173 -0.0035
 5872TIP3    H139031   3.592   0.483  11.549  2.3464 -0.5133 -1.9516
 5872TIP3    H239032   3.646   0.616  11.596 -0.9056 -0.1031  1.0781
 5873TIP3   OH239033   5.374   4.921  12.686  0.2636  0.1850 -0.2476
 5873TIP3    H139034   5.344   5.007  12.716 -0.1965  0.2323 -0.8284
 5873TIP3    H239035   5.464   4.935  12.659 -0.1637  0.7474 -1.4103
 5874TIP3   OH239036   3.402   4.710  11.396 -0.2645 -0.0135 -0.2808
 5874TIP3    H139037   3.377   4.797  11.427 -0.3059 -0.3897  0.7849
 5874TIP3    H239038   3.465   4.726  11.326 -0.1778  0.8708 -0.0051
 5875TIP3   OH239039   4.789   3.538  17.116 -0.6448 -0.1215 -0.0810
 5875TIP3    H139040   4.744   3.458  17.145 -1.2397 -0.0327 -0.7176
 5875TIP3    H239041   4.760   3.605  17.177 -1.5938 -0.0136 -0.6279
 5876TIP3   OH239042   3.591   6.754  11.112  0.9328  0.3592  0.4828
 5876TIP3    H139043   3.606   6.726  11.022  0.8605  1.0784  0.2410
 5876TIP3    H239044   3.579   6.849  11.106 -0.0742  0.2875  1.1194
 5877TIP3   OH239045   2.179   1.680   4.008  0.8004  0.0655  0.5490
 5877TIP3    H139046   2.123   1.613   4.047  0.6625 -0.9724 -1.2767
 5877TIP3    H239047   2.120   1.727   3.948  1.8279 -1.0817 -1.4496
 5878TIP3   OH239048   0.963   0.244   1.282  0.4681  0.1332  0.4687
 5878TIP3    H139049   1.053   0.257   1.311  0.5314 -2.2536  1.5838
 5878TIP3    H239050   0.919   0.327   1.303  2.6068  1.8305 -1.2549
 5879TIP3   OH239051   2.937   1.177  17.223  0.0168 -0.1639  0.1034
 5879TIP3    H139052   2.861   1.132  17.185  0.3920 -0.3365 -0.4679
 5879TIP3    H239053   2.987   1.206  17.147  0.3291  0.2812  0.4773
 5880TIP3   OH239054   3.684   2.072  13.705  0.6000  0.5257 -0.6981
 5880TIP3    H139055   3.645   1.993  13.743  0.9431  0.6246 -0.1181
 5880TIP3    H239056   3.661   2.068  13.612  0.2661 -0.0452 -0.5977
 5881TIP3   OH239057   2.609   0.184   5.124 -0.0315 -0.1990  0.5223
 5881TIP3    H139058   2.523   0.222   5.107 -0.6572 -1.7268  0.0669
 5881TIP3    H239059   2.643   0.162   5.037  1.6323  1.9603  0.5412
 5882TIP3   OH239060   0.847   2.779  12.001  0.0320 -0.2020 -0.3933
 5882TIP3    H139061   0.754   2.789  12.017 -0.0509 -1.0820 -0.2423
 5882TIP3    H239062   0.852   2.736  11.915  0.2006 -1.9010  0.4146
 5883TIP3   OH239063   5.482   3.276  12.854 -0.1435  0.1374 -0.1524
 5883TIP3    H139064   5.575   3.284  12.876 -0.7172  1.2851  2.1736
 5883TIP3    H239065   5.478   3.291  12.759  1.9643  0.6845 -0.1982
 5884TIP3   OH239066   4.469   1.321   6.185 -0.9864 -0.3216  0.3016
 5884TIP3    H139067   4.509   1.330   6.271 -1.9617  2.2444  0.5730
 5884TIP3    H239068   4.402   1.390   6.182 -1.1078 -0.4537 -2.4378
 5885TIP3   OH239069   5.107   4.513   4.500 -0.0685 -0.2439  0.1837
 5885TIP3    H139070   5.072   4.495   4.413 -1.0209  1.0092  0.2733
 5885TIP3    H239071   5.153   4.433   4.524  0.3180 -0.5722 -1.5075
 5886TIP3   OH239072   3.419   5.945   2.209  0.6013  0.1160 -0.1606
 5886TIP3    H139073   3.428   5.886   2.284 -2.0287  1.0930  1.0379
 5886TIP3    H239074   3.464   5.900   2.137 -1.3345 -3.4439  0.6415
 5887TIP3   OH239075   4.229   0.482  13.126  0.2572  0.0310  0.6178
 5887TIP3    H139076   4.309   0.431  13.133  1.9124  2.5970  1.9264
 5887TIP3    H239077   4.221   0.501  13.032  2.5185  1.5508  0.6383
 5888TIP3   OH239078   4.739   0.402   1.202 -0.3223 -0.9196 -0.4196
 5888TIP3    H139079   4.778   0.348   1.133 -0.0373 -2.4376  0.8798
 5888TIP3    H239080   4.797   0.478   1.208 -0.4062 -0.6977 -1.8894
 5889TIP3   OH239081   2.387   0.340   5.079  0.2600  0.0844  0.7317
 5889TIP3    H139082   2.313   0.280   5.076 -1.0355  1.5615  1.7449
 5889TIP3    H239083   2.377   0.387   5.161  0.0195  3.1238 -0.8833
 5890TIP3   OH239084   0.457   3.662  12.858 -0.1829 -0.2292  0.3123
 5890TIP3    H139085   0.416   3.654  12.944 -0.5972 -0.3997  0.1025
 5890TIP3    H239086   0.541   3.704  12.875 -0.2159 -0.3630  0.8132
 5891TIP3   OH239087   1.481   1.519   6.874  0.0035 -0.3645 -0.5637
 5891TIP3    H139088   1.460   1.427   6.891  1.0574 -0.2409  1.8254
 5891TIP3    H239089   1.561   1.516   6.822  0.5794 -0.8302  0.3206
 5892TIP3   OH239090   2.674   5.220  13.450 -0.7612 -0.7243  0.3146
 5892TIP3    H139091   2.654   5.240  13.359  1.0042 -0.2623  0.0030
 5892TIP3    H239092   2.699   5.305  13.488  1.4657 -1.3640  0.4074
 5893TIP3   OH239093   6.021   5.315   3.845  0.1203  0.1532 -1.1118
 5893TIP3    H139094   6.061   5.390   3.888 -1.5318  1.2040 -1.3194
 5893TIP3    H239095   5.927   5.327   3.859 -0.1710 -2.2580 -0.5382
 5894TIP3   OH239096   1.120   5.730   4.016 -0.3871 -0.4788  0.3156
 5894TIP3    H139097   1.037   5.765   4.046  0.6410  0.2318  2.5376
 5894TIP3    H239098   1.100   5.641   3.988 -1.9429 -0.2098  0.5135
 5895TIP3   OH239099   2.961   6.204   4.510  0.4108 -0.2364 -0.2953
 5895TIP3    H139100   2.902   6.247   4.448 -1.0296 -0.3310  0.9363
 5895TIP3    H239101   2.986   6.122   4.468 -1.4281 -0.8209 -0.3546
 5896TIP3   OH239102   1.284   1.867   3.229 -0.7428 -0.3496  0.2442
 5896TIP3    H139103   1.279   1.801   3.298 -0.9257  0.0200  0.5909
 5896TIP3    H239104   1.209   1.925   3.245 -1.1739 -0.6411 -0.6687
 5897TIP3   OH239105   2.193   0.392  11.459 -0.2916  0.1085  0.5702
 5897TIP3    H139106   2.240   0.475  11.455  0.0816 -0.0337  1.5948
 5897TIP3    H239107   2.128   0.397  11.389  0.8503  0.5478 -0.4814
 5898TIP3   OH239108   5.422   6.495  14.434  0.1643  0.1221 -0.2520
 5898TIP3    H139109   5.452   6.474  14.522  1.5496 -0.1375 -0.7545
 5898TIP3    H239110   5.402   6.410  14.395  1.0569  0.0798 -0.6703
 5899TIP3   OH239111   5.079   2.364   4.625  0.4615 -0.0031  0.1910
 5899TIP3    H139112   5.174   2.365   4.612  0.7130 -1.8590  1.4060
 5899TIP3    H239113   5.066   2.392   4.715 -0.2481  1.1739 -0.2563
 5900TIP3   OH239114   1.618   3.354  14.641  0.2150  0.0538  0.2053
 5900TIP3    H139115   1.657   3.329  14.557 -0.5417  0.8920 -0.4137
 5900TIP3    H239116   1.525   3.336  14.631 -0.2167  2.1245  0.0619
 5901TIP3   OH239117   0.549   1.614   2.648  0.0933 -0.3675 -0.6416
 5901TIP3    H139118   0.502   1.610   2.564  0.0185 -2.9799 -0.5704
 5901TIP3    H239119   0.609   1.688   2.638 -1.4449  0.7926 -2.1243
 5902TIP3   OH239120   3.170   2.922   5.847 -0.5756 -0.4380 -0.0061
 5902TIP3    H139121   3.250   2.923   5.900 -0.4115  1.3260 -0.2570
 5902TIP3    H239122   3.189   2.977   5.772 -2.2393  0.5733  0.2571
 5903TIP3   OH239123   3.337   6.053  13.034 -0.1653  0.5946 -0.6216
 5903TIP3    H139124   3.253   6.096  13.051 -0.2032  0.7174 -1.1090
 5903TIP3    H239125   3.400   6.125  13.028  0.0253  0.4869  0.0022
 5904TIP3   OH239126   2.827   2.076  16.745  0.0907 -0.0191  0.0428
 5904TIP3    H139127   2.794   1.987  16.733 -0.8588 -0.0846  2.6747
 5904TIP3    H239128   2.917   2.065  16.776  0.0883 -0.0451  0.0399
 5905TIP3   OH239129   0.333   3.420   3.740 -0.2577 -0.0209 -0.4832
 5905TIP3    H139130   0.282   3.413   3.821  2.2829  0.9922  1.3286
 5905TIP3    H239131   0.362   3.330   3.721  1.4694  0.0591  1.4383
 5906TIP3   OH239132   1.274   3.498  12.445  0.2888 -0.1550  0.1452
 5906TIP3    H139133   1.190   3.542  12.433  1.1962  1.9957  1.1234
 5906TIP3    H239134   1.338   3.569  12.449  2.1708 -1.7164 -0.4642
 5907TIP3   OH239135   1.708   6.050   3.248 -0.4495  0.0473  0.1489
 5907TIP3    H139136   1.746   6.002   3.175 -0.1527  1.2411 -0.5034
 5907TIP3    H239137   1.743   6.007   3.326 -1.0232 -1.4460 -0.3843
 5908TIP3   OH239138   3.716   0.765  15.011  0.1370 -0.1103  0.1658
 5908TIP3    H139139   3.734   0.679  14.973  0.8006  0.3069 -0.4897
 5908TIP3    H239140   3.787   0.780  15.073 -1.6871 -1.4035  2.7423
 5909TIP3   OH239141   2.126   5.551  13.806 -0.0279 -0.8813 -0.8255
 5909TIP3    H139142   2.057   5.520  13.748  0.0120  1.1811 -2.0838
 5909TIP3    H239143   2.157   5.632  13.765  1.8184 -0.7360  0.7239
 5910TIP3   OH239144   1.792   6.173  15.890  0.4175 -0.0803  0.1072
 5910TIP3    H139145   1.804   6.265  15.869 -1.4333  0.1719 -0.0016
 5910TIP3    H239146   1.777   6.172  15.985 -1.7402  0.0404 -0.1776
 5911TIP3   OH239147   5.761   3.927  15.471 -0.1036  0.2321  0.3772
 5911TIP3    H139148   5.827   3.880  15.421  1.6011  1.9554  0.8727
 5911TIP3    H239149   5.738   3.868  15.542  1.1168 -0.3195  0.3398
 5912TIP3   OH239150   6.005   2.162   2.975  0.0674  0.1564 -0.7181
 5912TIP3    H139151   6.038   2.227   2.913  3.6249  1.0753  1.8306
 5912TIP3    H239152   6.054   2.082   2.954  0.7594  0.2762  0.3286
 5913TIP3   OH239153   4.277   2.264   5.329 -0.1610  0.0917 -0.3232
 5913TIP3    H139154   4.320   2.349   5.322  0.6390 -0.1055  1.3960
 5913TIP3    H239155   4.303   2.217   5.250  2.2313  0.2678  0.2745
 5914TIP3   OH239156   2.917   0.687  16.313  0.6401  0.4835  0.2185
 5914TIP3    H139157   2.867   0.624  16.365  0.2128 -0.2328 -1.0227
 5914TIP3    H239158   2.981   0.634  16.264  0.9396  1.1181 -0.1047
 5915TIP3   OH239159   2.512   1.141   3.613  0.1619 -0.4659 -0.1388
 5915TIP3    H139160   2.484   1.233   3.608 -0.8886 -0.8580 -2.6622
 5915TIP3    H239161   2.577   1.133   3.544  0.9298 -1.4561  0.6669
 5916TIP3   OH239162   0.810   3.437   4.943 -0.1021 -0.3745 -0.1954
 5916TIP3    H139163   0.862   3.443   5.023  1.7299 -2.4108 -1.1033
 5916TIP3    H239164   0.819   3.522   4.901  1.6744 -0.3191  0.2243
 5917TIP3   OH239165   2.691   0.396   2.155 -0.5140  0.0235  0.3081
 5917TIP3    H139166   2.625   0.457   2.121  1.8473  1.9018 -1.3001
 5917TIP3    H239167   2.663   0.310   2.124 -3.1448  0.4327  1.3055
 5918TIP3   OH239168   5.425   4.702   4.931  0.2036  0.4640 -0.2328
 5918TIP3    H139169   5.475   4.685   4.851  0.2887  0.0592 -0.0921
 5918TIP3    H239170   5.491   4.709   5.000  0.1707  1.3205 -0.2758
 5919TIP3   OH239171   4.093   5.890  14.808  0.1266  0.0678  0.3415
 5919TIP3    H139172   4.091   5.925  14.897 -1.9389  0.0751  0.3278
 5919TIP3    H239173   4.044   5.954  14.756 -1.7480 -1.6220 -0.1023
 5920TIP3   OH239174   2.264   0.375   5.831  0.2651 -0.1007  0.0019
 5920TIP3    H139175   2.229   0.458   5.798  0.7835  0.8950  1.8193
 5920TIP3    H239176   2.289   0.394   5.922  1.0071 -2.0781  0.2551
 5921TIP3   OH239177   3.571   1.812  11.093  0.5522  0.5403  0.1695
 5921TIP3    H139178   3.485   1.772  11.109  0.1405  0.9439 -0.9024
 5921TIP3    H239179   3.552   1.905  11.081  1.4103  0.9593  1.8897
 5922TIP3   OH239180   5.920   3.990  13.772  0.3350  0.2145  0.1156
 5922TIP3    H139181   5.826   3.977  13.762  0.1583  0.5371  1.1701
 5922TIP3    H239182   5.927   4.081  13.802  0.9792  0.1841  0.0525
 5923TIP3   OH239183   5.739   3.371   4.675 -0.0107  0.0315  0.1790
 5923TIP3    H139184   5.771   3.396   4.589  3.9554  0.7962  1.6691
 5923TIP3    H239185   5.759   3.277   4.682 -0.4838 -0.0686  0.2298
 5924TIP3   OH239186   4.130   4.053   3.216 -0.2565  0.5152  0.1317
 5924TIP3    H139187   4.169   4.040   3.130 -0.1740  0.4450  0.1793
 5924TIP3    H239188   4.170   4.134   3.249  0.5671 -0.0480  0.5737
 5925TIP3   OH239189   2.316   4.100  14.658  0.4920 -0.0257 -0.4824
 5925TIP3    H139190   2.273   4.156  14.723 -0.4648  0.4340 -1.4601
 5925TIP3    H239191   2.259   4.023  14.651  0.6328 -0.1098 -0.7108
 5926TIP3   OH239192   4.207   0.180  15.417 -0.0975 -0.1634 -0.5115
 5926TIP3    H139193   4.202   0.255  15.357 -1.2408 -0.5876 -0.9803
 5926TIP3    H239194   4.165   0.212  15.497  1.1376  0.2977 -0.0275
 5927TIP3   OH239195   2.326   1.812  15.795 -0.1567  0.7386 -0.1777
 5927TIP3    H139196   2.402   1.782  15.745  1.2267  0.2024  2.0789
 5927TIP3    H239197   2.360   1.884  15.849 -1.3347  0.6961  0.6603
 5928TIP3   OH239198   3.702   6.577   0.496 -0.8005  0.0981 -0.5109
 5928TIP3    H139199   3.693   6.654   0.440 -2.4980  0.2737 -0.0265
 5928TIP3    H239200   3.758   6.607   0.568 -0.0876  0.3745 -1.1541
 5929TIP3   OH239201   5.843   0.842   0.483  0.2340 -0.2574  0.2339
 5929TIP3    H139202   5.771   0.833   0.420 -0.6409  0.6990  1.0516
 5929TIP3    H239203   5.906   0.774   0.458 -0.5780 -0.5879 -1.0017
 5930TIP3   OH239204   1.541   3.291   4.336 -0.2788 -0.2843  0.1643
 5930TIP3    H139205   1.570   3.301   4.427  0.4086 -0.8319  0.0218
 5930TIP3    H239206   1.527   3.380   4.305  0.4958 -0.0347  0.5000
 5931TIP3   OH239207   2.490   6.773  16.169  0.1605  0.5530  0.4291
 5931TIP3    H139208   2.540   6.693  16.188  0.8686  1.1064  0.9471
 5931TIP3    H239209   2.429   6.781  16.242 -0.5993 -0.0335 -0.1213
 5932TIP3   OH239210   6.336   6.594  17.203  0.0292 -0.0288 -0.2815
 5932TIP3    H139211   6.284   6.592  17.123 -2.9241  2.1489  1.3690
 5932TIP3    H239212   6.297   6.526  17.258  1.4301 -0.8800 -0.2903
 5933TIP3   OH239213   5.895   1.943  16.047  0.7726  0.5514 -0.3652
 5933TIP3    H139214   5.947   2.023  16.047  2.2099 -0.3512 -0.5663
 5933TIP3    H239215   5.898   1.911  15.956 -0.4440  0.6525 -0.4675
 5934TIP3   OH239216   3.220   2.486  16.269 -0.0182 -0.4558 -0.2566
 5934TIP3    H139217   3.244   2.465  16.179  0.2188 -0.3417 -0.2211
 5934TIP3    H239218   3.276   2.560  16.292 -1.5326  0.9046 -0.7350
 5935TIP3   OH239219   0.281   6.560  15.970  0.2459 -0.5515 -0.3330
 5935TIP3    H139220   0.190   6.572  15.943 -0.2969 -1.4613  1.0061
 5935TIP3    H239221   0.331   6.570  15.889 -0.9110  1.1607 -0.9106
 5936TIP3   OH239222   5.866   0.664  15.218  0.2717  0.4860 -0.2418
 5936TIP3    H139223   5.881   0.584  15.168  0.2415  0.3215  0.0114
 5936TIP3    H239224   5.895   0.642  15.306 -2.3095 -0.1516  0.5306
 5937TIP3   OH239225   5.244   3.121  13.461 -0.1065  0.3190  0.6293
 5937TIP3    H139226   5.252   3.040  13.411  2.4034  1.8465 -1.7226
 5937TIP3    H239227   5.312   3.115  13.528 -0.7078  0.0238  1.2254
 5938TIP3   OH239228   5.277   3.670   2.753 -0.1450 -0.1115  1.0354
 5938TIP3    H139229   5.203   3.689   2.810 -1.3869 -0.7022 -0.3271
 5938TIP3    H239230   5.244   3.687   2.664  1.3238 -0.4715  0.3951
 5939TIP3   OH239231   2.339   6.697   1.242  0.4383  0.4531 -0.1132
 5939TIP3    H139232   2.405   6.765   1.231  0.6117  0.2392 -0.4208
 5939TIP3    H239233   2.260   6.744   1.269  0.9192  0.6279  1.0138
 5940TIP3   OH239234   6.757   2.125  12.412 -0.0015  0.1239 -0.2972
 5940TIP3    H139235   6.675   2.078  12.398  0.3038 -1.2809  2.0782
 5940TIP3    H239236   6.806   2.069  12.472  2.1204  1.6031 -0.5529
 5941TIP3   OH239237   4.358   1.826   2.551  0.5412  0.5626 -0.0567
 5941TIP3    H139238   4.396   1.853   2.634 -1.8442 -1.2508  1.7640
 5941TIP3    H239239   4.263   1.825   2.567  0.0666 -0.7687 -2.4895
 5942TIP3   OH239240   0.585   0.244   2.938 -0.1070  0.2576  0.6929
 5942TIP3    H139241   0.646   0.260   2.867  0.3246  0.2358  1.0569
 5942TIP3    H239242   0.531   0.323   2.941 -0.7950 -0.1476 -0.3097
 5943TIP3   OH239243   0.635   0.252   1.303  0.1618 -0.1025 -0.1978
 5943TIP3    H139244   0.639   0.203   1.386  1.6159  0.2462 -0.0401
 5943TIP3    H239245   0.686   0.199   1.242  0.5160  0.4893 -0.4160
 5944TIP3   OH239246   2.135   6.065  11.694  0.1398 -0.2313 -0.0814
 5944TIP3    H139247   2.141   6.151  11.736  0.1031  1.2556 -2.8226
 5944TIP3    H239248   2.175   6.005  11.756  0.6759  1.8375  1.7292
 5945TIP3   OH239249   5.893   2.379   1.596 -0.4267 -0.3443 -0.0966
 5945TIP3    H139250   5.945   2.381   1.516  0.6225  1.1411  0.5690
 5945TIP3    H239251   5.927   2.304   1.644  0.5563  0.0985 -0.0552
 5946TIP3   OH239252   3.898   0.678   0.334 -0.0173 -0.0491 -0.0419
 5946TIP3    H139253   3.904   0.741   0.262  0.4592 -0.0179  0.0249
 5946TIP3    H239254   3.804   0.663   0.344 -0.0681 -0.8902 -1.4030
 5947TIP3   OH239255   5.101   4.576   6.054 -0.2926 -0.2807 -0.2057
 5947TIP3    H139256   5.031   4.627   6.096  1.3607  0.6104  1.5936
 5947TIP3    H239257   5.107   4.497   6.107  2.0289  0.9971  1.6187
 5948TIP3   OH239258   5.091   2.507  15.478  0.7770 -0.4790  0.3199
 5948TIP3    H139259   5.109   2.512  15.572 -0.5238  0.4328  0.5431
 5948TIP3    H239260   5.062   2.595  15.454 -1.6465 -1.3730 -0.3382
 5949TIP3   OH239261   0.046   3.525  15.351  0.2349  0.7687 -0.1328
 5949TIP3    H139262   0.068   3.563  15.436 -1.9916 -1.6374  1.6888
 5949TIP3    H239263  -0.049   3.511  15.355  0.2234 -0.3698 -2.5946
 5950TIP3   OH239264   5.092   0.505   1.229 -0.3525  0.1419 -0.4588
 5950TIP3    H139265   5.010   0.552   1.216 -0.5261 -0.1501 -0.4221
 5950TIP3    H239266   5.158   0.558   1.183 -0.5954  0.2591 -0.6700
 5951TIP3   OH239267   1.320   6.576  13.280  0.2048 -0.1917  0.1209
 5951TIP3    H139268   1.341   6.667  13.298 -1.6086  0.3280 -0.2555
 5951TIP3    H239269   1.286   6.542  13.363  1.3196 -0.6942  0.3976
 5952TIP3   OH239270   0.433   0.551   4.468  0.0532  0.3250  0.3648
 5952TIP3    H139271   0.398   0.471   4.507  0.4554 -0.3505 -0.6416
 5952TIP3    H239272   0.359   0.612   4.469 -0.6704 -0.5152 -0.1350
 5953TIP3   OH239273   5.863   4.154  12.544  0.5596  0.3238  0.1478
 5953TIP3    H139274   5.887   4.078  12.492 -0.5629  0.1545 -0.1476
 5953TIP3    H239275   5.939   4.212  12.539  1.1662 -0.4938 -0.1604
 5954TIP3   OH239276   2.255   4.573   0.068  0.2996 -0.2583 -0.5376
 5954TIP3    H139277   2.325   4.631   0.099 -0.1987 -0.1806  0.5164
 5954TIP3    H239278   2.204   4.626   0.007  0.9674 -0.2156 -1.0647
 5955TIP3   OH239279   5.424   6.278  12.946  0.1766  0.3427 -0.4511
 5955TIP3    H139280   5.461   6.223  12.878 -1.2820  0.5148 -1.4329
 5955TIP3    H239281   5.423   6.223  13.024 -0.1229 -0.6056 -1.1136
 5956TIP3   OH239282   1.219   4.230   5.856  0.2729 -0.4904  0.5670
 5956TIP3    H139283   1.150   4.296   5.853  1.4400  0.7429 -1.6595
 5956TIP3    H239284   1.173   4.148   5.836 -0.6727  0.1912 -0.1825
 5957TIP3   OH239285   1.537   0.830  17.041 -0.5024  0.2720 -0.2124
 5957TIP3    H139286   1.551   0.856  16.950 -1.2615  0.6303 -0.2434
 5957TIP3    H239287   1.525   0.913  17.087 -0.9894  0.0587  0.0531
 5958TIP3   OH239288   2.459   5.815   2.198 -0.1374  0.2104  0.1982
 5958TIP3    H139289   2.425   5.731   2.166 -1.4608  0.9635 -0.4296
 5958TIP3    H239290   2.468   5.803   2.292 -1.2621 -0.3207  0.2498
 5959TIP3   OH239291   5.389   2.634   3.978 -0.5335 -0.4052  0.2683
 5959TIP3    H139292   5.440   2.607   4.054 -1.3545  0.9803  1.3694
 5959TIP3    H239293   5.302   2.596   3.992 -1.1987  1.2510  0.9697
 5960TIP3   OH239294   5.833   0.017   4.255  0.1804 -0.1003  0.4395
 5960TIP3    H139295   5.875  -0.066   4.276 -2.8132 -1.5594  1.1605
 5960TIP3    H239296   5.888   0.083   4.297  2.2650 -1.7395  0.4380
 5961TIP3   OH239297   6.343   4.012  15.759 -0.2136  0.0698 -0.2529
 5961TIP3    H139298   6.371   4.080  15.698  0.5792 -0.5120 -0.5469
 5961TIP3    H239299   6.272   4.053  15.809  1.1948  1.6133  0.5938
 5962TIP3   OH239300   4.196   5.706   1.980  0.2539  0.0862  0.0707
 5962TIP3    H139301   4.103   5.688   1.973  0.5608 -1.8903  0.5819
 5962TIP3    H239302   4.205   5.763   2.057 -0.3051 -1.9038  1.6755
 5963TIP3   OH239303   4.271   1.030  16.633 -0.2000  0.5808  0.3697
 5963TIP3    H139304   4.235   1.060  16.550  0.0580  0.3835  0.1867
 5963TIP3    H239305   4.342   0.971  16.609 -2.4048 -2.4463  0.6358
 5964TIP3   OH239306   3.397   6.705   2.892  0.0088 -0.3283 -0.5518
 5964TIP3    H139307   3.356   6.678   2.974  0.4115 -0.6542 -0.4530
 5964TIP3    H239308   3.361   6.791   2.875 -0.6551 -0.5721 -0.4266
 5965TIP3   OH239309   1.714   4.802  15.924 -0.0520  0.6922  0.4026
 5965TIP3    H139310   1.758   4.816  15.840 -0.4104  0.8402  0.2375
 5965TIP3    H239311   1.698   4.890  15.958 -0.6290  0.6575  0.2434
 5966TIP3   OH239312   2.481   3.495  12.664 -0.2127 -0.2016 -0.4135
 5966TIP3    H139313   2.510   3.404  12.670 -0.6101 -0.3468 -0.6010
 5966TIP3    H239314   2.548   3.539  12.613  1.1954  0.1539  1.6270
 5967TIP3   OH239315   4.006   0.072   4.174  0.3995  0.9213 -0.1012
 5967TIP3    H139316   4.017   0.011   4.247  0.4560  0.9349 -0.0981
 5967TIP3    H239317   4.065   0.038   4.106  0.2938  0.8673 -0.1671
 5968TIP3   OH239318   5.403   4.432  16.578  1.0143  0.1202 -0.5400
 5968TIP3    H139319   5.367   4.417  16.665  2.0073  1.2985  0.1152
 5968TIP3    H239320   5.419   4.344  16.543 -0.6616 -0.3977 -0.1158
 5969TIP3   OH239321   0.701   6.497  11.236 -0.6908 -0.2891  0.2287
 5969TIP3    H139322   0.610   6.514  11.260  0.1262  3.4319  1.4279
 5969TIP3    H239323   0.706   6.520  11.143 -1.0279 -0.9406  0.0429
 5970TIP3   OH239324   4.395   4.696   0.367  0.0500  0.5470  0.1137
 5970TIP3    H139325   4.452   4.723   0.439 -0.3910  0.0328  0.6622
 5970TIP3    H239326   4.328   4.641   0.408  0.2217 -0.3801 -0.8037
 5971TIP3   OH239327   1.430   1.237   3.367  0.4756 -0.7888  0.0174
 5971TIP3    H139328   1.395   1.201   3.286  0.5350  0.1072 -0.4136
 5971TIP3    H239329   1.524   1.220   3.363  0.5972 -0.0117 -0.4865
 5972TIP3   OH239330   4.845   3.503   6.903 -0.0510  0.4632 -0.4622
 5972TIP3    H139331   4.935   3.504   6.936 -0.4200 -0.5096  0.6199
 5972TIP3    H239332   4.849   3.555   6.823  1.8348 -0.9688 -1.3816
 5973TIP3   OH239333   5.100   5.131   4.342  0.3062  0.2889 -0.1029
 5973TIP3    H139334   5.104   5.203   4.405 -1.3372 -0.1765  0.6001
 5973TIP3    H239335   5.073   5.173   4.260  1.0463  0.6973 -0.1474
 5974TIP3   OH239336   3.749   0.282  15.476 -0.5633 -0.0031  0.0691
 5974TIP3    H139337   3.685   0.306  15.543  0.3511  0.3100  0.8493
 5974TIP3    H239338   3.761   0.361  15.424 -0.3825  0.1005  0.2721
 5975TIP3   OH239339   0.968   2.990  13.456 -1.0639 -0.3178 -0.3233
 5975TIP3    H139340   0.942   2.921  13.396 -0.2007 -0.0457 -1.0210
 5975TIP3    H239341   0.885   3.031  13.482 -1.5689 -1.4810 -0.0340
 5976TIP3   OH239342   0.083   1.794   2.003 -0.1092  0.1441 -0.0533
 5976TIP3    H139343   0.158   1.764   1.951  1.9661  1.7290  1.8096
 5976TIP3    H239344   0.068   1.884   1.972  0.1520  0.5581  0.9788
 5977TIP3   OH239345   1.127   4.690   6.100 -0.3179  0.0477 -0.1909
 5977TIP3    H139346   1.192   4.716   6.165  0.5161 -1.0432 -0.5512
 5977TIP3    H239347   1.110   4.769   6.049  0.9528  0.2898 -0.2690
 5978TIP3   OH239348   3.841   1.656   5.539  0.2011  0.3540  0.0863
 5978TIP3    H139349   3.902   1.609   5.596  0.1413 -1.2565 -1.0909
 5978TIP3    H239350   3.855   1.617   5.453 -1.2717  1.1834 -0.5640
 5979TIP3   OH239351   3.437   3.499  12.229  0.3575  0.1199 -0.0378
 5979TIP3    H139352   3.431   3.576  12.173  0.2736 -0.7972 -1.3430
 5979TIP3    H239353   3.472   3.532  12.312 -1.7538  1.9029  0.2085
 5980TIP3   OH239354   2.927   6.532   5.583 -0.1402  0.1371 -0.8589
 5980TIP3    H139355   2.923   6.593   5.657  0.1350  0.4324 -1.0826
 5980TIP3    H239356   2.845   6.485   5.586 -1.1323  1.7201 -1.6966
 5981TIP3   OH239357   1.944   5.895  15.459  0.1453 -0.5108  0.1713
 5981TIP3    H139358   1.965   5.891  15.552  2.8031 -0.9405 -0.3626
 5981TIP3    H239359   1.922   5.987  15.443 -0.9974 -0.5597  1.3021
 5982TIP3   OH239360   1.350   3.099   0.285  0.3241  0.5204 -0.4661
 5982TIP3    H139361   1.285   3.105   0.215 -1.6300 -1.5498  1.0010
 5982TIP3    H239362   1.434   3.099   0.239 -0.8378 -0.3200 -2.8063
 5983TIP3   OH239363   0.860   3.369   5.211 -0.3782 -0.2128 -0.1090
 5983TIP3    H139364   0.853   3.420   5.291  0.8824 -0.0314 -0.0981
 5983TIP3    H239365   0.914   3.294   5.234  1.2933  0.6242 -1.1380
 5984TIP3   OH239366   3.533   1.286   5.215 -0.4323  0.6246  0.5730
 5984TIP3    H139367   3.540   1.200   5.175  0.6151 -0.6072  3.1509
 5984TIP3    H239368   3.481   1.337   5.153 -1.3404 -1.9117 -0.9260
 5985TIP3   OH239369   2.092   0.467   4.034  0.1277 -0.7544  0.5324
 5985TIP3    H139370   2.153   0.530   4.073  0.7584  0.1733 -1.7915
 5985TIP3    H239371   2.029   0.521   3.987 -1.8326 -1.7526  1.8556
 5986TIP3   OH239372   3.987   0.972   3.698  0.6265  0.1436 -0.3580
 5986TIP3    H139373   4.019   0.962   3.608  2.6727  0.9592  0.2364
 5986TIP3    H239374   3.985   1.066   3.713  1.9005 -0.0149  0.9674
 5987TIP3   OH239375   1.274   1.538   3.786 -0.6230  0.1705  0.7660
 5987TIP3    H139376   1.299   1.466   3.728  1.3911  0.4985  1.1459
 5987TIP3    H239377   1.352   1.554   3.839 -1.1808  2.3188  1.0349
 5988TIP3   OH239378   4.639   2.308  16.958  0.4240 -0.7971  0.0497
 5988TIP3    H139379   4.721   2.260  16.971 -0.2889 -2.0746 -0.1197
 5988TIP3    H239380   4.615   2.338  17.045  2.1728  1.4973 -0.1549
 5989TIP3   OH239381   4.874   6.663   1.203  0.3876  0.2361  0.3145
 5989TIP3    H139382   4.911   6.579   1.176  0.4338  0.8288 -1.6558
 5989TIP3    H239383   4.910   6.727   1.141 -2.4882  1.1085 -0.6633
 5990TIP3   OH239384   0.318   2.135   4.200 -0.5599  0.3966  0.2297
 5990TIP3    H139385   0.268   2.076   4.257 -0.7514  1.2941  1.0104
 5990TIP3    H239386   0.398   2.155   4.250  0.7712 -1.2387 -1.1118
 5991TIP3   OH239387   0.346   5.153  10.599 -0.3303 -0.5013 -0.3198
 5991TIP3    H139388   0.369   5.240  10.566  2.1918 -1.4998 -1.4520
 5991TIP3    H239389   0.330   5.101  10.521 -0.9208 -1.2892  0.3128
 5992TIP3   OH239390   2.828   5.414   2.307  0.5568  0.3655 -0.8002
 5992TIP3    H139391   2.758   5.401   2.371  0.5945  2.3896 -0.2696
 5992TIP3    H239392   2.785   5.406   2.222 -0.0964  0.4840 -0.4876
 5993TIP3   OH239393   5.447   2.108   3.826  0.1691  0.4784  0.0874
 5993TIP3    H139394   5.422   2.186   3.777 -1.3291  1.7406  2.6192
 5993TIP3    H239395   5.526   2.134   3.874  0.4595 -0.0497 -0.0924
 5994TIP3   OH239396   4.348   5.736  12.714  0.3535 -0.9427 -0.1071
 5994TIP3    H139397   4.324   5.649  12.744 -2.3740 -0.7775 -1.5056
 5994TIP3    H239398   4.345   5.790  12.793 -1.1520 -1.5452  0.2862
 5995TIP3   OH239399   2.770   5.406   2.599 -0.1581  0.3131 -0.0494
 5995TIP3    H139400   2.822   5.351   2.657  0.3474  0.3255 -0.4829
 5995TIP3    H239401   2.793   5.496   2.625 -0.6314  0.3265  0.3448
 5996TIP3   OH239402   2.938   0.820   5.606 -0.2612 -0.3900 -1.1556
 5996TIP3    H139403   2.965   0.729   5.589  0.8974 -0.2741 -0.0930
 5996TIP3    H239404   2.853   0.811   5.651 -1.0605 -0.8471 -2.6880
 5997TIP3   OH239405   2.637   3.975  11.549  0.3104 -0.3176 -0.0506
 5997TIP3    H139406   2.597   3.986  11.463 -0.8548 -1.3785  0.3251
 5997TIP3    H239407   2.731   3.983  11.533  0.1187 -0.5482 -1.4343
 5998TIP3   OH239408   2.049   6.508   5.712  0.0205 -0.3701  0.0006
 5998TIP3    H139409   2.044   6.525   5.618  1.0050 -1.5474 -0.2873
 5998TIP3    H239410   1.960   6.523   5.744 -0.1581  0.7943 -0.9601
 5999TIP3   OH239411   4.407   6.151  14.373 -0.7485  0.6845  0.4335
 5999TIP3    H139412   4.419   6.082  14.307  1.9180  0.7401  0.7551
 5999TIP3    H239413   4.315   6.175  14.365 -1.1333 -1.0775 -1.5024
 6000TIP3   OH239414   2.139   6.001  16.924 -1.1960 -0.0219 -0.5012
 6000TIP3    H139415   2.215   6.014  16.867 -1.0286  0.7581 -0.1188
 6000TIP3    H239416   2.128   6.086  16.968 -0.0636 -1.1695  2.1769
 6001TIP3   OH239417   3.735   2.316  16.060  0.4494 -0.0962 -0.3763
 6001TIP3    H139418   3.784   2.236  16.081  1.7594  0.2902 -1.7695
 6001TIP3    H239419   3.652   2.285  16.024  0.5920 -0.8187 -0.1002
 6002TIP3   OH239420   6.163   6.397   0.042  0.0698 -0.0844  0.1932
 6002TIP3    H139421   6.077   6.390   0.002 -0.2650  0.3677  0.8192
 6002TIP3    H239422   6.204   6.313   0.026 -0.9570 -0.7538  0.9488
 6003TIP3   OH239423   1.971   5.606   3.985  0.1477  0.0726  0.0040
 6003TIP3    H139424   1.956   5.602   4.079  0.2623 -1.1435 -0.0139
 6003TIP3    H239425   2.041   5.543   3.969 -0.8143 -0.7808 -1.0606
 6004TIP3   OH239426   5.861   4.788   1.265  0.0005  0.4203  0.0269
 6004TIP3    H139427   5.936   4.728   1.258 -0.7717 -0.6786  0.9558
 6004TIP3    H239428   5.785   4.733   1.246 -0.5894  1.5344 -0.9175
 6005TIP3   OH239429   1.170   5.367   5.705  0.4168 -0.4709 -0.0670
 6005TIP3    H139430   1.213   5.294   5.748  0.2041 -3.3901 -4.2162
 6005TIP3    H239431   1.235   5.437   5.705  1.0828 -0.9652  2.9621
 6006TIP3   OH239432   5.449   3.614   4.592 -0.6091  0.0137 -0.1969
 6006TIP3    H139433   5.461   3.624   4.498 -1.5830  0.9757 -0.2336
 6006TIP3    H239434   5.532   3.641   4.631  0.4762 -2.1719 -0.8328
 6007TIP3   OH239435   3.300   5.306  16.749 -0.2830  0.1112  0.2526
 6007TIP3    H139436   3.304   5.401  16.744 -1.5466  0.1251 -0.9278
 6007TIP3    H239437   3.296   5.287  16.843  2.0995  1.0813  0.5957
 6008TIP3   OH239438   5.334   6.737  14.736  0.2699  0.1288 -0.3615
 6008TIP3    H139439   5.331   6.816  14.681  0.3655 -0.1077 -0.7044
 6008TIP3    H239440   5.323   6.770  14.825 -2.4604  0.2965 -0.6966
 6009TIP3   OH239441   0.693   3.190   3.626  0.2366  0.1047  0.2866
 6009TIP3    H139442   0.732   3.169   3.711  1.6707 -0.3336 -0.4474
 6009TIP3    H239443   0.763   3.172   3.563 -0.9719 -0.0720 -1.0368
 6010TIP3   OH239444   2.884   0.735   6.069 -0.2394  0.1297  0.3619
 6010TIP3    H139445   2.940   0.722   6.146 -1.2932  1.1370  1.3466
 6010TIP3    H239446   2.863   0.829   6.071 -0.1642  0.2044 -1.2596
 6011TIP3   OH239447   4.921   5.286  11.729  0.0577 -0.7334 -0.3449
 6011TIP3    H139448   4.868   5.256  11.655 -0.5788 -1.1150  0.2483
 6011TIP3    H239449   4.885   5.240  11.805 -0.0472  0.4931  0.3864
 6012TIP3   OH239450   5.810   6.593   1.084 -0.1050 -0.3854 -0.0475
 6012TIP3    H139451   5.791   6.566   1.174 -0.2219 -0.0734  0.0229
 6012TIP3    H239452   5.731   6.569   1.036  1.2574 -3.9228 -0.8345
 6013TIP3   OH239453   3.429   5.645  12.723 -0.0356 -0.0474  0.1358
 6013TIP3    H139454   3.523   5.664  12.726  0.2506 -1.4372  0.9557
 6013TIP3    H239455   3.394   5.686  12.802 -0.3394  1.3895 -0.7053
 6014TIP3   OH239456   2.710   4.917  11.969  0.0053  0.1348  0.2050
 6014TIP3    H139457   2.628   4.866  11.964  0.5598 -0.7000 -0.8528
 6014TIP3    H239458   2.718   4.957  11.882  0.5782  0.4428  0.3972
 6015TIP3   OH239459   3.840   1.932   2.184  0.2167 -0.2421  0.2197
 6015TIP3    H139460   3.860   1.843   2.156 -0.5996 -0.7713  1.2527
 6015TIP3    H239461   3.894   1.988   2.128  0.5291 -1.3672 -0.6324
 6016TIP3   OH239462   5.893   3.191   3.715  0.0139  0.0069 -0.3896
 6016TIP3    H139463   5.824   3.124   3.716 -1.4715  1.4916 -0.6228
 6016TIP3    H239464   5.849   3.271   3.742  1.8139  0.8798  0.0924
 6017TIP3   OH239465   3.424   1.944   3.620 -0.5737 -0.1783 -0.4155
 6017TIP3    H139466   3.456   1.945   3.530 -1.1120  0.7477 -0.6029
 6017TIP3    H239467   3.344   1.891   3.616  0.9676 -2.7018  0.0977
 6018TIP3   OH239468   3.906   0.443   3.068  0.4018  0.3939 -0.2475
 6018TIP3    H139469   3.934   0.355   3.095 -1.1663 -0.8003 -2.1877
 6018TIP3    H239470   3.812   0.445   3.088 -0.3698  0.2135 -3.3780
 6019TIP3   OH239471   5.082   4.379  16.871  0.2752 -0.4820 -0.1766
 6019TIP3    H139472   5.137   4.457  16.861 -0.7517  0.6519  2.1307
 6019TIP3    H239473   4.994   4.409  16.848  0.1006 -1.3743 -0.6971
 6020TIP3   OH239474   6.457   6.658  16.499 -0.2640  0.8567  0.1974
 6020TIP3    H139475   6.459   6.737  16.554 -1.3011  0.0659  1.4247
 6020TIP3    H239476   6.375   6.664  16.451  1.1538  2.1352 -2.3001
 6021TIP3   OH239477   5.211   4.266   4.560 -0.0332 -0.3566 -0.8985
 6021TIP3    H139478   5.201   4.266   4.655 -1.1056 -0.2986 -1.0036
 6021TIP3    H239479   5.306   4.273   4.546  0.1786 -0.8589  0.1638
 6022TIP3   OH239480   1.391   0.152   1.531 -0.3382 -0.0770 -0.0527
 6022TIP3    H139481   1.470   0.196   1.562 -0.6507  1.4538 -1.3521
 6022TIP3    H239482   1.421   0.064   1.506  0.5566 -0.1864  1.2769
 6023TIP3   OH239483   4.737   4.169  17.210 -1.0080  0.1297  0.3608
 6023TIP3    H139484   4.740   4.152  17.304 -3.8992 -0.2989  0.4596
 6023TIP3    H239485   4.649   4.204  17.194 -0.6709  0.0162 -2.2142
 6024TIP3   OH239486   5.907   0.772   1.344 -0.0367 -0.3037  0.0194
 6024TIP3    H139487   5.959   0.691   1.343 -0.6783 -0.7185 -0.4830
 6024TIP3    H239488   5.965   0.837   1.385  0.5874 -0.9462  0.1820
 6025TIP3   OH239489   2.081   2.730   0.458 -0.3335 -0.1053 -0.7908
 6025TIP3    H139490   2.058   2.793   0.390  0.1417 -1.0005 -1.8217
 6025TIP3    H239491   2.176   2.736   0.465 -0.5605  2.5435  2.4138
 6026TIP3   OH239492   4.699   1.709  15.814  0.3833 -0.1813  0.6181
 6026TIP3    H139493   4.608   1.710  15.783  0.6571 -0.2929 -0.2277
 6026TIP3    H239494   4.727   1.618  15.802  0.8346  0.0148  0.1685
 6027TIP3   OH239495   2.055   5.178   4.019  0.5135  0.1704  0.0445
 6027TIP3    H139496   1.995   5.136   3.958  1.0555  0.9828 -1.0834
 6027TIP3    H239497   2.011   5.172   4.104 -0.0965 -1.2756 -0.3478
 6028TIP3   OH239498   6.323   0.470  16.282  0.1522  0.1714 -0.4822
 6028TIP3    H139499   6.359   0.387  16.253  0.0288 -1.2602  2.9583
 6028TIP3    H239500   6.246   0.446  16.333  0.5489  2.2662  1.2601
 6029TIP3   OH239501   1.133   4.293  10.506  0.0126 -0.2844 -0.0107
 6029TIP3    H139502   1.126   4.388  10.519  0.5517 -0.2197 -0.1560
 6029TIP3    H239503   1.046   4.259  10.528 -0.6983  0.4290 -1.5365
 6030TIP3   OH239504   4.300   5.484   2.329 -0.0095 -0.2426 -0.7086
 6030TIP3    H139505   4.267   5.567   2.295 -0.7699 -0.5191 -0.6647
 6030TIP3    H239506   4.221   5.436   2.356  0.4371 -0.8871 -0.5273
 6031TIP3   OH239507   0.258   3.294  15.329  0.5072  0.3231 -0.4050
 6031TIP3    H139508   0.186   3.354  15.308  0.4823  0.9921  1.4161
 6031TIP3    H239509   0.276   3.310  15.422  2.0353 -0.8835 -0.4598
 6032TIP3   OH239510   1.336   4.622   4.824  0.2273  0.0754 -0.0828
 6032TIP3    H139511   1.304   4.531   4.822  0.8165 -0.1259 -1.0293
 6032TIP3    H239512   1.285   4.666   4.757 -0.0344  0.4510  0.3561
 6033TIP3   OH239513   0.515   3.021  16.236 -0.1896 -0.4502  0.9006
 6033TIP3    H139514   0.503   2.927  16.226 -0.2674 -0.2106 -1.6955
 6033TIP3    H239515   0.455   3.061  16.174  0.2007  1.3171  1.5884
 6034TIP3   OH239516   3.950   1.016  13.009  0.3129 -0.3376  0.0042
 6034TIP3    H139517   3.899   1.061  12.942  1.4103  1.6656  0.4352
 6034TIP3    H239518   4.008   0.957  12.959  0.3126  0.2663 -0.7273
 6035TIP3   OH239519   4.389   2.434  14.095  0.3594 -0.1399  0.4392
 6035TIP3    H139520   4.387   2.526  14.069  0.5487 -0.2370  0.0666
 6035TIP3    H239521   4.300   2.403  14.079  0.3045 -0.0282  0.5323
 6036TIP3   OH239522   1.930   4.332  15.977  0.3190 -0.2763  0.3095
 6036TIP3    H139523   1.889   4.378  15.903  0.2662  0.3380  0.7179
 6036TIP3    H239524   1.932   4.240  15.949  0.3395 -0.0465 -0.4773
 6037TIP3   OH239525   6.083   6.061  12.598  0.1262 -0.0088  0.0765
 6037TIP3    H139526   6.096   6.142  12.649 -0.0808  0.3829 -0.4837
 6037TIP3    H239527   6.169   6.020  12.596 -0.6212 -2.4267  4.6332
 6038TIP3   OH239528   5.592   0.906   0.313  0.4009  0.0472 -0.1697
 6038TIP3    H139529   5.543   0.927   0.392  1.9269 -0.9972  1.1307
 6038TIP3    H239530   5.561   0.819   0.287  0.9372 -0.2465  0.1573
 6039TIP3   OH239531   2.826   2.360  14.809 -0.3037 -0.0668 -0.2953
 6039TIP3    H139532   2.803   2.453  14.816  0.8727  0.2708 -0.7068
 6039TIP3    H239533   2.908   2.352  14.858  1.2291 -0.2463 -2.7519
 6040TIP3   OH239534   0.022   4.579   5.440  0.4000 -0.0979 -0.0324
 6040TIP3    H139535  -0.022   4.596   5.357  2.3201 -1.0111 -1.2986
 6040TIP3    H239536   0.106   4.540   5.416  0.4221 -1.7709  2.3859
 6041TIP3   OH239537   2.234   5.330   5.466  0.7964  0.4996  0.0244
 6041TIP3    H139538   2.252   5.394   5.534 -0.0010  1.4202 -0.5864
 6041TIP3    H239539   2.316   5.322   5.417  0.2820  3.0175 -1.4439
 6042TIP3   OH239540   2.938   6.116  13.375  0.0256  0.3256  0.2711
 6042TIP3    H139541   3.022   6.071  13.380  0.0533  0.4129  0.5976
 6042TIP3    H239542   2.927   6.156  13.461 -0.6330 -0.1883  0.4342
 6043TIP3   OH239543   4.780   4.040   0.162 -0.0493  0.4272 -0.8400
 6043TIP3    H139544   4.773   4.009   0.252  0.6332 -0.2349 -1.0094
 6043TIP3    H239545   4.696   4.083   0.145 -0.6964 -0.6127 -0.3323
 6044TIP3   OH239546   2.510   4.738   1.483 -0.1662 -0.0807  0.6952
 6044TIP3    H139547   2.418   4.744   1.457 -0.1371 -1.0267  0.3535
 6044TIP3    H239548   2.557   4.719   1.402  0.1312 -1.2872  1.1390
 6045TIP3   OH239549   5.191   4.892  14.536  0.2987 -0.3819 -0.0079
 6045TIP3    H139550   5.138   4.854  14.465 -3.1468 -1.2843  2.7375
 6045TIP3    H239551   5.248   4.821  14.564  0.4499 -0.5587 -0.7258
 6046TIP3   OH239552   2.460   1.751  10.945  0.1602  0.2268  0.0734
 6046TIP3    H139553   2.386   1.747  11.005  0.1369  1.8386  0.2015
 6046TIP3    H239554   2.511   1.672  10.963 -0.5378  0.0363  1.2838
 6047TIP3   OH239555   3.380   5.433   1.635  0.0519  0.0919  0.2414
 6047TIP3    H139556   3.312   5.376   1.598 -0.3158 -0.9070  2.3210
 6047TIP3    H239557   3.438   5.451   1.561 -1.9505  0.2482 -1.3876
 6048TIP3   OH239558   5.012   2.887   1.704 -0.3081  0.1122 -0.0247
 6048TIP3    H139559   4.927   2.869   1.745  0.5840  0.6293  2.2431
 6048TIP3    H239560   5.055   2.801   1.701 -0.1533  0.1525  0.7429
 6049TIP3   OH239561   4.467   5.513  14.282 -0.2252  0.4094 -0.3634
 6049TIP3    H139562   4.548   5.557  14.254 -1.2919  2.2729 -0.6624
 6049TIP3    H239563   4.405   5.529  14.211 -1.3708  0.5211  0.6218
 6050TIP3   OH239564   0.073   6.561   4.326  0.4898 -1.1233 -0.1021
 6050TIP3    H139565  -0.010   6.562   4.375 -0.0348  0.6149 -0.9419
 6050TIP3    H239566   0.047   6.538   4.237  0.2891  2.6159 -1.1881
 6051TIP3   OH239567   5.829   3.554   2.094  0.3456  0.5869  0.5422
 6051TIP3    H139568   5.775   3.583   2.167  2.0872 -1.4020  2.7636
 6051TIP3    H239569   5.817   3.459   2.091  1.7301  0.4080 -0.5898
 6052TIP3   OH239570   0.453   1.210   5.726 -0.1385 -0.0585  0.4449
 6052TIP3    H139571   0.400   1.186   5.651 -2.1472  1.0964  1.4104
 6052TIP3    H239572   0.522   1.266   5.690  0.4329 -1.5257 -0.8289
 6053TIP3   OH239573   5.510   1.068   5.582 -0.2308 -0.0112  1.0062
 6053TIP3    H139574   5.590   1.015   5.580 -0.5249 -0.4468  0.5225
 6053TIP3    H239575   5.463   1.044   5.502 -0.0304  1.5319  0.3899
 6054TIP3   OH239576   1.175   0.580  13.972  0.3204  0.0982  0.2032
 6054TIP3    H139577   1.087   0.571  14.008 -0.8437  0.8824 -2.2270
 6054TIP3    H239578   1.197   0.493  13.938  0.8692 -0.3058  1.5362
 6055TIP3   OH239579   5.247   5.352  13.080 -0.2565 -0.6273 -0.2941
 6055TIP3    H139580   5.221   5.268  13.043 -0.9165 -0.6280  0.1629
 6055TIP3    H239581   5.199   5.359  13.162 -1.0496  0.6782 -0.8369
 6056TIP3   OH239582   0.642   5.774   5.246 -0.2191  0.4813 -0.0606
 6056TIP3    H139583   0.615   5.760   5.156 -1.0051 -0.7591  0.3459
 6056TIP3    H239584   0.645   5.686   5.284  0.4966  0.9475  1.0128
 6057TIP3   OH239585   2.393   4.914   2.718 -0.2098 -0.6567 -0.3670
 6057TIP3    H139586   2.356   4.839   2.672 -0.5089 -0.2214 -0.8470
 6057TIP3    H239587   2.421   4.879   2.803 -1.5302 -1.0469 -0.0632
 6058TIP3   OH239588   2.418   6.376  16.084  0.5156 -0.3004  0.0256
 6058TIP3    H139589   2.488   6.407  16.141 -1.0837  0.5927  1.6165
 6058TIP3    H239590   2.338   6.389  16.135 -1.0840  0.9732 -2.5813
 6059TIP3   OH239591   4.518   1.387   5.895  0.0153  0.1688  0.0956
 6059TIP3    H139592   4.515   1.380   5.991  1.0643  0.9041  0.2064
 6059TIP3    H239593   4.544   1.478   5.879 -0.6718  0.1972 -0.9046
 6060TIP3   OH239594   5.111   1.804  13.356 -0.1408  0.2283  0.0931
 6060TIP3    H139595   5.135   1.740  13.289  1.0256 -1.2890  1.8577
 6060TIP3    H239596   5.097   1.886  13.307 -1.1214 -1.1921 -2.1778
 6061TIP3   OH239597   6.448   3.744  14.660  0.1611  0.2018 -0.5045
 6061TIP3    H139598   6.422   3.827  14.621 -2.7914 -1.6495 -2.8957
 6061TIP3    H239599   6.517   3.767  14.722 -2.5395  4.8414  1.2909
 6062TIP3   OH239600   0.500   5.556   1.077  0.4162 -0.6558 -0.0653
 6062TIP3    H139601   0.484   5.461   1.076  0.3294 -0.6466 -1.5786
 6062TIP3    H239602   0.570   5.567   1.142 -1.2037 -1.4330  1.9440
 6063TIP3   OH239603   4.551   3.285  13.427  0.1582  0.2829  0.0611
 6063TIP3    H139604   4.633   3.238  13.442  0.9683  1.2296 -1.1979
 6063TIP3    H239605   4.557   3.362  13.484  1.5785  1.9475 -2.1718
 6064TIP3   OH239606   1.269   1.804  12.423 -0.0378  0.0508  0.4972
 6064TIP3    H139607   1.204   1.734  12.412 -0.5048  0.4798  0.5123
 6064TIP3    H239608   1.259   1.831  12.514 -1.3768  1.6092 -0.0656
 6065TIP3   OH239609   4.061   6.558   4.628 -0.2537  0.2669 -0.1295
 6065TIP3    H139610   4.154   6.579   4.620 -0.6622  2.4884  0.2693
 6065TIP3    H239611   4.034   6.598   4.710 -1.4239 -1.0525  0.1728
 6066TIP3   OH239612   2.873   6.037   1.488 -0.2668  0.5461 -0.1597
 6066TIP3    H139613   2.887   6.108   1.551 -1.3258  0.3481  0.3166
 6066TIP3    H239614   2.943   5.974   1.508  0.5877  1.3712 -0.4892
 6067TIP3   OH239615   2.123   4.183  12.797 -0.3118 -0.3334 -0.2848
 6067TIP3    H139616   2.203   4.141  12.768  1.2970  0.7913  2.1691
 6067TIP3    H239617   2.070   4.112  12.833  0.2390 -0.8809 -0.5412
 6068TIP3   OH239618   0.968   4.825  12.019 -0.1806  0.4393 -0.0529
 6068TIP3    H139619   1.006   4.913  12.021  1.1220 -0.0407 -1.4155
 6068TIP3    H239620   0.940   4.809  12.109  0.0030  2.0471  0.3259
 6069TIP3   OH239621   2.362   6.565   0.956  0.1535  0.4185  0.4508
 6069TIP3    H139622   2.332   6.565   1.047 -2.4051 -1.2431 -0.2866
 6069TIP3    H239623   2.310   6.497   0.913  1.2859  1.1201 -2.2861
 6070TIP3   OH239624   4.476   1.077   1.490  0.1623  0.6990  0.0038
 6070TIP3    H139625   4.490   0.993   1.535 -3.2930  0.3764  0.7308
 6070TIP3    H239626   4.462   1.053   1.398 -1.5968  0.3394  0.3421
 6071TIP3   OH239627   5.892   5.241  14.811  0.2431 -0.3665  0.1551
 6071TIP3    H139628   5.849   5.314  14.768 -0.5052 -1.3101 -0.7674
 6071TIP3    H239629   5.833   5.217  14.882 -0.8892 -1.7099 -1.1568
 6072TIP3   OH239630   0.457   1.332  14.236 -0.0404  0.2002  0.2132
 6072TIP3    H139631   0.502   1.394  14.293  1.3738 -1.5652  1.1048
 6072TIP3    H239632   0.456   1.376  14.150  1.0019  1.4141  0.7824
 6073TIP3   OH239633   1.814   1.549  16.263 -0.1335  0.0623  0.3356
 6073TIP3    H139634   1.863   1.520  16.340 -1.5196  0.0802  1.2644
 6073TIP3    H239635   1.722   1.537  16.288 -0.6083 -0.0718 -1.3825
 6074TIP3   OH239636   0.279   0.364  11.916 -0.1128  0.4076 -0.5762
 6074TIP3    H139637   0.346   0.392  11.979 -0.5879  0.1692  0.0399
 6074TIP3    H239638   0.235   0.290  11.958 -0.9764  0.7609 -0.8307
 6075TIP3   OH239639   1.303   1.317   0.004 -0.3569 -0.3375 -0.7308
 6075TIP3    H139640   1.289   1.401  -0.040 -1.2188 -1.0707 -1.9145
 6075TIP3    H239641   1.397   1.302  -0.001 -0.1268  0.7741 -0.0705
 6076TIP3   OH239642   3.981   2.151  12.396 -0.1425  0.1784 -0.0433
 6076TIP3    H139643   4.033   2.173  12.318  1.8750 -1.0999  0.8779
 6076TIP3    H239644   3.980   2.232  12.447  0.6832  0.3307 -0.2495
 6077TIP3   OH239645   2.783   1.800  11.827 -0.2385 -0.4066 -0.0620
 6077TIP3    H139646   2.853   1.737  11.842  0.5460  0.5243  0.2361
 6077TIP3    H239647   2.729   1.796  11.906  1.5381  1.4718  1.3496
 6078TIP3   OH239648   3.112   3.978  11.316 -0.3056  0.4177 -0.2426
 6078TIP3    H139649   3.186   3.940  11.364  1.2989  1.3432 -1.8687
 6078TIP3    H239650   3.034   3.948  11.364  1.1401  0.4077  2.2487
 6079TIP3   OH239651   3.779   2.904   4.253  0.6676  1.0577 -0.0524
 6079TIP3    H139652   3.782   2.936   4.163  0.4679 -1.5756 -1.0580
 6079TIP3    H239653   3.686   2.899   4.274  0.7144  1.8555  0.4280
 6080TIP3   OH239654   2.332   5.645   3.888 -0.0935  0.0345 -0.1416
 6080TIP3    H139655   2.416   5.609   3.860  0.3407  0.4680  0.5887
 6080TIP3    H239656   2.284   5.570   3.923 -0.9462 -0.6910 -2.6405
 6081TIP3   OH239657   6.359   3.298   1.979  0.3762  0.2414  0.1366
 6081TIP3    H139658   6.440   3.345   1.997 -0.3592  1.1331  1.2982
 6081TIP3    H239659   6.342   3.248   2.058  0.5156 -1.0858 -0.6402
 6082TIP3   OH239660   5.258   6.120   1.427  0.7403  0.3690 -0.2079
 6082TIP3    H139661   5.202   6.145   1.354  0.2083  0.0474  0.0845
 6082TIP3    H239662   5.199   6.117   1.503  1.1640  0.1007  0.1181
 6083TIP3   OH239663   0.924   3.490  10.500  0.0911 -0.0316  0.0984
 6083TIP3    H139664   0.869   3.555  10.456 -0.3594 -0.4269  0.0725
 6083TIP3    H239665   1.013   3.526  10.494 -0.0825  0.3341 -0.3690
 6084TIP3   OH239666   3.710   6.652   4.925  0.2220 -0.0856 -0.1453
 6084TIP3    H139667   3.668   6.615   5.003 -1.2810  0.8437 -0.4620
 6084TIP3    H239668   3.638   6.662   4.862  0.6202  2.7888 -0.2662
 6085TIP3   OH239669   4.735   5.595  17.169 -1.1052 -0.6589  0.1476
 6085TIP3    H139670   4.751   5.666  17.107 -0.2784 -1.2605 -0.3387
 6085TIP3    H239671   4.807   5.534  17.155 -2.0174 -1.7918  0.2788
 6086TIP3   OH239672   6.308   1.212   2.999 -0.2989 -0.7669 -0.4009
 6086TIP3    H139673   6.387   1.173   3.038 -0.0659 -0.4480 -0.5468
 6086TIP3    H239674   6.258   1.245   3.073  1.0943  1.6574 -0.4334
 6087TIP3   OH239675   0.494   0.740   1.700  0.1020  0.2617  0.4733
 6087TIP3    H139676   0.528   0.657   1.732 -1.4719 -0.5926 -0.0150
 6087TIP3    H239677   0.572   0.787   1.669  0.8993 -1.3958 -0.1365
 6088TIP3   OH239678   6.712   2.706   6.312  0.5090 -0.3536 -0.1884
 6088TIP3    H139679   6.687   2.759   6.389  0.4070 -1.0657  0.2743
 6088TIP3    H239680   6.762   2.633   6.349  0.4876 -0.6829 -0.8085
 6089TIP3   OH239681   3.581   1.236   4.584  0.2734 -0.1618  0.6179
 6089TIP3    H139682   3.610   1.303   4.523  1.7784 -1.2644  0.0742
 6089TIP3    H239683   3.493   1.264   4.611  0.1378  1.0488 -0.9878
 6090TIP3   OH239684   6.618   4.869  12.124 -0.6303  0.1792 -0.1184
 6090TIP3    H139685   6.539   4.820  12.145 -0.5971 -1.3797 -3.1559
 6090TIP3    H239686   6.590   4.933  12.057  0.3574  0.7431 -0.0203
 6091TIP3   OH239687   6.205   1.623  16.123  0.2609  0.0028 -0.4464
 6091TIP3    H139688   6.118   1.592  16.102  0.6400 -2.2744  1.0128
 6091TIP3    H239689   6.191   1.694  16.186 -0.5522  0.9796 -1.6959
 6092TIP3   OH239690   2.262   6.001   4.222  0.6276  0.0692 -0.0173
 6092TIP3    H139691   2.246   6.089   4.187 -0.3142  0.4205  1.2458
 6092TIP3    H239692   2.307   5.955   4.150  1.1946  1.5806 -0.6837
 6093TIP3   OH239693   2.514   2.231   3.294  0.2077  0.1125  0.3225
 6093TIP3    H139694   2.567   2.309   3.311 -0.0195  0.5339 -0.8269
 6093TIP3    H239695   2.475   2.210   3.379  1.0356  0.6717  0.8593
 6094TIP3   OH239696   2.095   0.257   3.752  0.0220  0.1799  0.2104
 6094TIP3    H139697   2.036   0.239   3.680 -0.8924 -0.6877  1.1440
 6094TIP3    H239698   2.040   0.295   3.820  0.5913 -0.3187  0.9693
 6095TIP3   OH239699   1.399   0.388  15.321  0.5231  0.0763 -0.3465
 6095TIP3    H139700   1.347   0.348  15.390  1.4335 -1.6892 -0.6108
 6095TIP3    H239701   1.442   0.314  15.278  1.4278  1.2813 -1.6037
 6096TIP3   OH239702   5.028   6.235   4.534  0.1573 -0.2229  0.0098
 6096TIP3    H139703   4.966   6.169   4.564  0.1484  0.4713  1.6554
 6096TIP3    H239704   5.113   6.192   4.537 -0.1255 -0.9945 -1.6838
 6097TIP3   OH239705   4.023   3.294  15.354  0.2818  0.3862  0.4462
 6097TIP3    H139706   4.068   3.293  15.269  0.7466 -1.2994  0.6928
 6097TIP3    H239707   3.953   3.359  15.342  0.6160  0.5063 -1.0801
 6098TIP3   OH239708   0.153   3.166  17.242  0.4897 -0.0097  0.3592
 6098TIP3    H139709   0.185   3.250  17.209  1.8091 -0.0355  1.4785
 6098TIP3    H239710   0.064   3.185  17.272  0.2455  0.6242 -0.7146
 6099TIP3   OH239711   1.623   2.199   2.362  0.2024  0.6657  0.3147
 6099TIP3    H139712   1.538   2.237   2.340  1.3675  3.4919  0.2185
 6099TIP3    H239713   1.617   2.178   2.455 -0.6147  0.8371  0.3090
 6100TIP3   OH239714   3.072   1.839  14.226 -0.3078  0.2641  0.0272
 6100TIP3    H139715   3.109   1.927  14.216  0.1842 -0.0897 -1.7459
 6100TIP3    H239716   3.016   1.828  14.149 -0.8243 -0.7655  0.5265
 6101TIP3   OH239717   1.018   4.619  15.544 -0.3590  0.3819  0.1506
 6101TIP3    H139718   1.085   4.563  15.505 -1.2599 -1.0715  0.5976
 6101TIP3    H239719   1.059   4.656  15.622 -0.0067 -0.3621  0.3262
 6102TIP3   OH239720   2.090   2.384   2.503 -0.5906 -0.2636 -0.3714
 6102TIP3    H139721   2.134   2.467   2.485  0.1611 -0.2853  1.2036
 6102TIP3    H239722   2.023   2.378   2.435 -2.0326  2.6389  0.5953
 6103TIP3   OH239723   1.957   3.328   3.994 -0.3587  0.1593  0.6162
 6103TIP3    H139724   2.050   3.309   3.980 -0.4451 -0.1114  0.4030
 6103TIP3    H239725   1.956   3.384   4.071  0.0316  0.7188  0.2229
 6104TIP3   OH239726   5.170   1.623  16.997 -0.7682  0.0414  0.6438
 6104TIP3    H139727   5.208   1.707  16.972  1.3604 -1.3983 -1.4222
 6104TIP3    H239728   5.191   1.613  17.090 -0.1677  1.3137  0.6628
 6105TIP3   OH239729   6.230   4.790   6.491 -0.1367  0.4096 -0.2817
 6105TIP3    H139730   6.162   4.798   6.557  1.2724  1.0477  1.1811
 6105TIP3    H239731   6.273   4.706   6.509  0.5417  0.7906 -0.0697
 6106TIP3   OH239732   1.405   3.836   5.845 -0.0497  0.9598 -0.4264
 6106TIP3    H139733   1.385   3.876   5.930  0.3572 -0.4521  0.3552
 6106TIP3    H239734   1.381   3.744   5.855  1.5738  0.4139 -1.2872
 6107TIP3   OH239735   3.564   2.432   0.412 -0.4155  0.7549  0.8348
 6107TIP3    H139736   3.526   2.345   0.429  1.1362  0.0712  0.9556
 6107TIP3    H239737   3.581   2.433   0.318 -0.9622  1.1696  0.7339
 6108TIP3   OH239738   3.136   3.022  13.046  0.1613 -0.0877 -0.2694
 6108TIP3    H139739   3.163   3.078  12.974  0.3799 -0.1849 -0.2618
 6108TIP3    H239740   3.195   3.045  13.118 -0.2673  0.2491 -0.0144
 6109TIP3   OH239741   6.016   0.373   6.270 -0.6112  0.2055  0.3973
 6109TIP3    H139742   6.012   0.468   6.263 -1.0041  0.2854  1.5962
 6109TIP3    H239743   6.108   0.354   6.288 -0.3726  0.2788 -0.6403
 6110TIP3   OH239744   5.212   6.671  14.487  0.0889  0.1677 -0.1067
 6110TIP3    H139745   5.200   6.656  14.581  1.0745 -0.0940 -0.0190
 6110TIP3    H239746   5.289   6.619  14.464 -0.3361 -0.0327 -1.1295
 6111TIP3   OH239747   0.807   0.557  14.659 -0.6522  0.4922 -0.0365
 6111TIP3    H139748   0.900   0.577  14.672 -0.1476 -0.9231 -1.2671
 6111TIP3    H239749   0.796   0.548  14.565 -1.5580 -1.5181  0.2155
 6112TIP3   OH239750   5.558   2.396  15.739  0.6041  0.6184 -0.1708
 6112TIP3    H139751   5.529   2.305  15.733  1.5157  0.4204 -2.2922
 6112TIP3    H239752   5.595   2.404  15.828 -1.2112 -0.4946  0.7382
 6113TIP3   OH239753   0.109   6.653   2.980 -0.5672  0.0465 -0.5205
 6113TIP3    H139754   0.180   6.615   2.928 -1.3892  1.3055 -2.6956
 6113TIP3    H239755   0.123   6.748   2.974 -0.5709  0.2553  1.8379
 6114TIP3   OH239756   2.278   4.915  10.552 -0.5254  0.3337 -0.2703
 6114TIP3    H139757   2.284   4.833  10.599 -0.9862  0.5277  0.1332
 6114TIP3    H239758   2.344   4.971  10.593 -1.5305  0.7954  0.7545
 6115TIP3   OH239759   2.070   0.180   3.200 -0.0823 -0.3681  0.5550
 6115TIP3    H139760   2.058   0.250   3.136 -0.0603  0.5693  1.5403
 6115TIP3    H239761   1.994   0.123   3.188 -1.1793  0.9246  1.0637
 6116TIP3   OH239762   0.031   0.187  14.312  0.4759  0.1670 -0.4425
 6116TIP3    H139763   0.025   0.271  14.266 -0.1802  0.6687  0.5147
 6116TIP3    H239764   0.094   0.204  14.383  0.7531 -0.3177 -0.5643
 6117TIP3   OH239765   0.034   6.614   0.214  0.4360 -0.7406  0.4249
 6117TIP3    H139766   0.099   6.545   0.216  1.1487 -0.0746  2.0001
 6117TIP3    H239767   0.071   6.684   0.267 -0.1857  0.9430 -1.2473
 6118TIP3   OH239768   0.832   6.128   1.424 -1.2344 -0.3020 -0.2692
 6118TIP3    H139769   0.758   6.068   1.423 -1.4768 -0.0302 -1.8187
 6118TIP3    H239770   0.814   6.188   1.497 -2.6190 -0.1667 -0.6984
 6119TIP3   OH239771   1.346   5.934   4.601  0.4299  0.4894  0.5414
 6119TIP3    H139772   1.296   5.928   4.520  0.6779 -1.6993  0.4950
 6119TIP3    H239773   1.282   5.917   4.670  0.6731 -0.0794  0.6305
 6120TIP3   OH239774   2.836   4.107  10.919  0.3214  0.6653  0.1545
 6120TIP3    H139775   2.829   4.012  10.925  2.4873  0.4931  1.0502
 6120TIP3    H239776   2.874   4.122  10.832  0.1825  0.6916  0.0987
 6121TIP3   OH239777   2.238   1.720  14.478  0.2274  0.4602  0.2739
 6121TIP3    H139778   2.305   1.787  14.488 -0.0241  0.6608  0.6437
 6121TIP3    H239779   2.155   1.767  14.492 -0.2153  0.8260 -2.7939
 6122TIP3   OH239780   3.636   3.429   1.211 -0.1537  0.5653  0.1707
 6122TIP3    H139781   3.568   3.493   1.234 -0.8255  0.5762 -1.7029
 6122TIP3    H239782   3.689   3.422   1.290 -1.6246  1.4571  1.3016
 6123TIP3   OH239783   5.394   0.844   2.274 -0.1237 -0.1757 -0.2381
 6123TIP3    H139784   5.395   0.752   2.302  0.4569 -0.0538  0.1633
 6123TIP3    H239785   5.412   0.839   2.179  1.9770 -0.3991  0.1096
 6124TIP3   OH239786   0.499   0.438   4.191  0.0075 -0.1923 -0.7310
 6124TIP3    H139787   0.563   0.492   4.238 -2.0970  0.3799  1.7299
 6124TIP3    H239788   0.489   0.479   4.106  1.0376  1.1879 -0.2171
 6125TIP3   OH239789   1.776   5.964  13.522 -0.0369 -0.0414 -0.3961
 6125TIP3    H139790   1.867   5.959  13.491  1.0448  0.4753  2.3987
 6125TIP3    H239791   1.741   6.042  13.479  1.1983  0.3788 -0.6903
 6126TIP3   OH239792   6.176   4.819  12.914  0.2512 -0.1921  0.1106
 6126TIP3    H139793   6.184   4.788  13.004 -0.9565 -0.3134  0.1948
 6126TIP3    H239794   6.210   4.909  12.916 -0.4784  0.0806  0.8639
 6127TIP3   OH239795   0.533   1.120   4.232  0.1014 -0.3190 -0.5947
 6127TIP3    H139796   0.491   1.034   4.219 -2.3902 -0.0245  3.7953
 6127TIP3    H239797   0.471   1.183   4.194 -0.8107 -0.2114  1.0117
 6128TIP3   OH239798   3.176   0.289  14.941  0.5533  0.1488 -0.5195
 6128TIP3    H139799   3.108   0.221  14.935  0.6811 -0.0869  0.5371
 6128TIP3    H239800   3.187   0.320  14.851 -0.9642  0.2001 -0.7126
 6129TIP3   OH239801   5.359   6.462  14.934  0.0616 -0.1528 -0.4082
 6129TIP3    H139802   5.354   6.471  15.029 -0.5492  0.0056 -0.4479
 6129TIP3    H239803   5.275   6.496  14.903 -0.7598 -2.4334 -0.8324
 6130TIP3   OH239804   5.866   5.292  16.195 -0.4572 -0.2967  0.0416
 6130TIP3    H139805   5.864   5.359  16.263 -4.1024  0.3963 -0.5400
 6130TIP3    H239806   5.926   5.326  16.129 -0.0155  0.9418  1.0369
 6131TIP3   OH239807   1.145   4.812   2.831  0.4617 -0.1574 -0.0734
 6131TIP3    H139808   1.209   4.839   2.897  0.4367 -0.3395  0.0241
 6131TIP3    H239809   1.178   4.729   2.797 -0.2524 -0.7634  0.6956
 6132TIP3   OH239810   5.797   6.405  11.772  0.0513  0.3456 -0.1853
 6132TIP3    H139811   5.844   6.468  11.826  0.8398 -0.2808 -0.1105
 6132TIP3    H239812   5.858   6.384  11.701 -1.3228  1.8863 -1.9349
 6133TIP3   OH239813   3.121   1.503  17.315  0.2879 -0.5284 -0.2330
 6133TIP3    H139814   3.068   1.580  17.340 -0.4169 -0.7812 -0.9263
 6133TIP3    H239815   3.080   1.470  17.236  0.3985 -1.8112  0.2212
 6134TIP3   OH239816   3.100   0.448  13.008 -0.1365  0.3802 -0.3579
 6134TIP3    H139817   3.045   0.384  12.964 -0.9075  0.0109  1.1148
 6134TIP3    H239818   3.177   0.398  13.036  0.6943  0.7607 -1.8323
 6135TIP3   OH239819   4.340   5.227  16.846  0.1689  0.1924  0.1255
 6135TIP3    H139820   4.299   5.313  16.841 -1.0313 -0.3996 -0.6498
 6135TIP3    H239821   4.298   5.176  16.777  1.3163 -0.8347  0.1482
 6136TIP3   OH239822   5.268   3.901  16.782 -0.0926 -0.7893  0.1430
 6136TIP3    H139823   5.254   3.827  16.842  0.3239 -0.6722  0.3893
 6136TIP3    H239824   5.283   3.976  16.840  1.8398 -0.9530 -0.0615
 6137TIP3   OH239825   0.695   4.483   1.615 -0.6997  0.1654  0.3144
 6137TIP3    H139826   0.683   4.391   1.641 -2.8426  0.1466 -0.5216
 6137TIP3    H239827   0.785   4.487   1.582 -1.3677 -2.3230 -2.1513
 6138TIP3   OH239828   5.017   3.838   4.648  0.1798 -0.0228  0.3771
 6138TIP3    H139829   4.966   3.879   4.718 -0.5675 -0.2276 -0.0351
 6138TIP3    H239830   4.952   3.792   4.595  0.6866  0.4784 -0.7007
 6139TIP3   OH239831   0.254   0.862  10.784 -0.3203 -1.0266 -0.1019
 6139TIP3    H139832   0.335   0.893  10.741 -1.1311  0.1046 -0.8822
 6139TIP3    H239833   0.285   0.812  10.859  1.1336  0.8308  0.6411
 6140TIP3   OH239834   3.407   2.712  14.963 -0.1562  0.4914  0.3000
 6140TIP3    H139835   3.400   2.716  14.868  1.5939 -0.3156  0.0978
 6140TIP3    H239836   3.455   2.791  14.987 -1.7864  1.4080  0.6974
 6141TIP3   OH239837   4.838   0.036  12.490 -0.1605 -0.4403  0.3356
 6141TIP3    H139838   4.799   0.015  12.406  0.6672 -1.8493  0.2626
 6141TIP3    H239839   4.859   0.129  12.485 -0.0670 -0.5212 -1.0345
 6142TIP3   OH239840   2.139   0.475   2.682  0.0662  0.3152  0.1326
 6142TIP3    H139841   2.195   0.517   2.747 -0.4034 -1.6185  1.8860
 6142TIP3    H239842   2.054   0.520   2.691 -0.8076 -1.5881  2.8692
 6143TIP3   OH239843   2.261   6.677   5.789 -0.5671  0.3749 -0.5537
 6143TIP3    H139844   2.195   6.636   5.733  0.9983 -1.8343 -0.8846
 6143TIP3    H239845   2.210   6.723   5.856 -2.4466  0.6323 -2.0612
 6144TIP3   OH239846   2.044   4.764   5.628  0.1973  0.5405 -0.1460
 6144TIP3    H139847   2.026   4.685   5.576  0.2906 -0.3456  1.1283
 6144TIP3    H239848   2.030   4.836   5.567 -0.0391 -0.4498 -1.3071
 6145TIP3   OH239849   0.078   2.581   1.486 -0.1941 -0.3446  0.1070
 6145TIP3    H139850   0.038   2.577   1.573  1.1008 -0.5769  0.7175
 6145TIP3    H239851   0.038   2.509   1.438 -0.1098 -0.9210  0.8801
 6146TIP3   OH239852   5.684   0.033   2.389  0.2142  0.3150 -0.4411
 6146TIP3    H139853   5.596   0.042   2.425  0.1812  1.0184 -0.6853
 6146TIP3    H239854   5.686   0.093   2.315  0.8315  0.1475 -0.5637
 6147TIP3   OH239855   1.313   5.367   2.087  0.0479 -0.4563  0.4327
 6147TIP3    H139856   1.253   5.294   2.070 -0.9988  0.6624 -0.9837
 6147TIP3    H239857   1.390   5.347   2.034  0.0980 -0.9184  0.6721
 6148TIP3   OH239858   4.498   5.495  16.259 -0.3274  0.1013  0.3671
 6148TIP3    H139859   4.415   5.538  16.281 -0.2033  0.7471 -0.3904
 6148TIP3    H239860   4.472   5.418  16.207 -0.4615  0.2722  0.1778
 6149TIP3   OH239861   2.382   2.442   1.884 -0.6122  0.2077  0.1493
 6149TIP3    H139862   2.438   2.370   1.913  0.7343  1.0237 -0.3265
 6149TIP3    H239863   2.356   2.418   1.795 -1.2737 -0.3028  0.4695
 6150TIP3   OH239864   0.557   2.466   4.940 -0.2875 -0.3808  0.2577
 6150TIP3    H139865   0.503   2.509   4.874 -2.3137  0.1857  2.1474
 6150TIP3    H239866   0.631   2.430   4.892 -1.1762  0.8175 -2.1384
 6151TIP3   OH239867   3.983   0.738   0.576  0.6727 -0.6685 -0.1601
 6151TIP3    H139868   3.966   0.687   0.656 -0.0353  0.1576  0.2420
 6151TIP3    H239869   3.935   0.691   0.508  0.6267 -0.9454  0.0581
 6152TIP3   OH239870   0.990   5.162   4.963 -0.3491  0.3078  0.2426
 6152TIP3    H139871   0.982   5.240   5.018 -0.6455  0.3099  0.1968
 6152TIP3    H239872   0.951   5.187   4.879  0.3791  0.4045 -0.0759
 6153TIP3   OH239873   4.346   4.411  15.674  0.7844  0.7867 -0.7921
 6153TIP3    H139874   4.438   4.436  15.680  0.2202  3.0183 -0.7179
 6153TIP3    H239875   4.337   4.339  15.736  2.2910  1.0988 -0.1653
 6154TIP3   OH239876   3.095   5.901  13.438 -0.2076  0.0594  0.3790
 6154TIP3    H139877   3.185   5.876  13.459  0.9577  2.1064 -1.7145
 6154TIP3    H239878   3.074   5.850  13.360 -0.2063  0.8057 -0.1179
 6155TIP3   OH239879   5.998   6.067   3.610  0.4696  0.1911  0.3079
 6155TIP3    H139880   6.007   6.030   3.698  0.0877  0.3123  0.4013
 6155TIP3    H239881   5.954   6.151   3.623  2.4024  1.2588  0.2088
 6156TIP3   OH239882   6.746   6.277  16.224  0.0804  0.2068 -0.2677
 6156TIP3    H139883   6.738   6.215  16.296  2.5245  0.6903  0.5230
 6156TIP3    H239884   6.706   6.358  16.257  1.4649  0.5180  0.7320
 6157TIP3   OH239885   3.482   4.258  15.416  0.0286  0.6136 -0.1089
 6157TIP3    H139886   3.408   4.271  15.476  0.9097 -0.9169  1.3731
 6157TIP3    H239887   3.560   4.272  15.470  0.8424 -0.7884 -0.8539
 6158TIP3   OH239888   3.830   4.940  12.898  0.0132  0.5347  0.0493
 6158TIP3    H139889   3.768   4.880  12.939  0.5734 -1.4248 -1.7911
 6158TIP3    H239890   3.862   4.893  12.820  0.2930  3.3237 -1.6744
 6159TIP3   OH239891   2.742   6.340  14.372 -0.3072 -0.4365  0.4707
 6159TIP3    H139892   2.649   6.348  14.353 -0.5180  1.8237  2.0273
 6159TIP3    H239893   2.771   6.264  14.321 -2.5596 -0.0484 -1.5565
 6160TIP3   OH239894   4.249   3.956  14.045  0.3735  0.1040  0.0030
 6160TIP3    H139895   4.232   4.040  14.087  1.8916  0.5503 -0.2186
 6160TIP3    H239896   4.338   3.933  14.071 -0.1030 -1.5740  0.2650
 6161TIP3   OH239897   5.764   3.771  11.098 -0.0170  0.2501 -0.4882
 6161TIP3    H139898   5.834   3.721  11.139 -0.3909  1.3792  1.6604
 6161TIP3    H239899   5.808   3.845  11.058  0.0942  0.6181  0.3033
 6162TIP3   OH239900   0.393   5.479  14.402 -0.2973  0.1044 -0.7117
 6162TIP3    H139901   0.382   5.544  14.333 -0.9917 -0.0045 -0.7109
 6162TIP3    H239902   0.332   5.409  14.379  0.0876 -0.3233 -0.4467
 6163TIP3   OH239903   2.313   3.506  16.410  0.5049  0.3390  0.2435
 6163TIP3    H139904   2.243   3.511  16.345 -1.1193 -2.2325  1.6614
 6163TIP3    H239905   2.315   3.593  16.450 -0.0408  1.2408 -1.5885
 6164TIP3   OH239906   0.924   1.202   4.689 -0.2235 -0.1137  0.0512
 6164TIP3    H139907   0.998   1.205   4.749 -0.0347 -0.0195 -0.1879
 6164TIP3    H239908   0.963   1.195   4.602 -0.4927 -0.0696 -0.0752
 6165TIP3   OH239909   3.430   4.011   0.510 -0.1701  0.1681  0.4380
 6165TIP3    H139910   3.453   4.078   0.575  1.2229  1.2578 -1.0859
 6165TIP3    H239911   3.409   3.933   0.562  0.1177  1.2029  2.1965
 6166TIP3   OH239912   2.442   3.840  11.680 -0.1975  0.0967 -0.4166
 6166TIP3    H139913   2.498   3.897  11.627 -0.4383  1.1684  0.4374
 6166TIP3    H239914   2.375   3.899  11.716 -2.3774 -1.2574 -1.9998
 6167TIP3   OH239915   1.867   3.685  16.897  0.1602 -0.3177  0.3360
 6167TIP3    H139916   1.836   3.612  16.951 -1.1464 -0.5410 -0.6902
 6167TIP3    H239917   1.811   3.758  16.921 -0.7304 -0.5317 -0.9959
 6168TIP3   OH239918   2.774   4.107   3.046 -0.0731  0.3796  0.2022
 6168TIP3    H139919   2.805   4.033   2.994  1.1892  0.5806  0.6435
 6168TIP3    H239920   2.779   4.077   3.137 -1.8768  0.1754  0.2776
 6169TIP3   OH239921   3.659   6.044   6.612  0.3107 -0.2264 -0.9943
 6169TIP3    H139922   3.685   6.015   6.699 -0.9460 -0.4297 -0.6762
 6169TIP3    H239923   3.608   5.972   6.576 -0.4697  0.4585 -1.2943
 6170TIP3   OH239924   3.366   5.227  12.685 -0.1226  0.1746  0.0456
 6170TIP3    H139925   3.332   5.290  12.748  0.6948 -1.0016  1.7385
 6170TIP3    H239926   3.459   5.220  12.706  0.5218  0.8341 -2.2835
 6171TIP3   OH239927   5.236   4.782   4.157 -0.3771  0.1482 -0.4426
 6171TIP3    H139928   5.189   4.806   4.237  0.4192  1.8266 -0.4537
 6171TIP3    H239929   5.167   4.763   4.093 -1.0574 -2.3836  0.9034
 6172TIP3   OH239930   2.487   6.553   6.084 -0.2501 -0.2288 -0.0344
 6172TIP3    H139931   2.487   6.564   6.179 -0.2954  0.0978 -0.0714
 6172TIP3    H239932   2.395   6.546   6.061 -0.2250 -0.6566 -0.0179
 6173TIP3   OH239933   3.923   3.018  15.658  0.2067 -0.7229 -0.3718
 6173TIP3    H139934   3.946   3.107  15.685  0.0271 -1.2257  1.6251
 6173TIP3    H239935   3.964   3.008  15.572  1.4942  0.7812  0.0025
 6174TIP3   OH239936   6.273   4.383   3.768 -0.2713 -0.2198  0.1212
 6174TIP3    H139937   6.325   4.325   3.824 -0.2376  1.1631  1.5937
 6174TIP3    H239938   6.337   4.427   3.712 -0.2953 -1.5218 -1.0013
 6175TIP3   OH239939   0.813   3.102   6.813 -0.1484  0.1524  0.1374
 6175TIP3    H139940   0.842   3.040   6.746  0.2568 -0.6997  1.0741
 6175TIP3    H239941   0.720   3.116   6.794 -0.0543 -0.1353 -0.5555
 6176TIP3   OH239942   3.771   2.257  16.843 -0.2882  0.1164  0.0047
 6176TIP3    H139943   3.753   2.251  16.936 -1.3562 -1.1423 -0.2614
 6176TIP3    H239944   3.685   2.262  16.802  0.0249 -2.3826 -1.0995
 6177TIP3   OH239945   1.490   1.550   2.300  0.1375  0.1282 -0.0501
 6177TIP3    H139946   1.545   1.479   2.266 -0.9176 -0.1708 -1.2022
 6177TIP3    H239947   1.498   1.620   2.234  0.8199  0.9337  0.8578
 6178TIP3   OH239948   1.653   0.105   0.217 -0.1784  0.2438  0.0084
 6178TIP3    H139949   1.727   0.091   0.157 -0.1436 -0.6321  0.2304
 6178TIP3    H239950   1.694   0.116   0.303 -0.2475  1.1073 -0.0652
 6179TIP3   OH239951   6.214   2.560  15.941  0.3428  0.1176 -0.1234
 6179TIP3    H139952   6.236   2.625  16.008  0.2253  1.2448 -1.1426
 6179TIP3    H239953   6.125   2.532  15.964  0.8435 -0.5916  1.0115
 6180TIP3   OH239954   4.331   4.358   0.389 -0.4066 -0.5142  0.1122
 6180TIP3    H139955   4.247   4.370   0.345 -0.9778 -0.7130  1.1075
 6180TIP3    H239956   4.395   4.393   0.328 -0.8995 -2.7314 -1.8446
 6181TIP3   OH239957   1.298   1.814   4.061 -0.2823  1.2453 -0.0331
 6181TIP3    H139958   1.221   1.808   4.005 -0.5745 -1.1740  0.5410
 6181TIP3    H239959   1.370   1.779   4.007  0.2697  2.6454 -0.2494
 6182TIP3   OH239960   1.059   5.301  14.941 -0.3926 -0.0446  0.6324
 6182TIP3    H139961   0.967   5.298  14.967 -0.0306 -1.8484  1.9317
 6182TIP3    H239962   1.071   5.223  14.887  0.4419 -0.0005  0.7369
 6183TIP3   OH239963   4.594   4.177   1.116 -0.4296  0.7926  0.1606
 6183TIP3    H139964   4.690   4.175   1.119 -0.3916  2.4429  0.9694
 6183TIP3    H239965   4.573   4.170   1.023  0.4292 -0.2678  0.0215
 6184TIP3   OH239966   5.931   1.735  13.331  0.1800 -0.2503  0.1029
 6184TIP3    H139967   5.894   1.782  13.405 -1.3544 -0.9421 -0.1724
 6184TIP3    H239968   5.921   1.795  13.257  2.5479  0.8108  0.5486
 6185TIP3   OH239969   2.838   2.532   4.386  0.2517  0.3415  0.1499
 6185TIP3    H139970   2.898   2.461   4.409  0.4204  0.2767 -0.4934
 6185TIP3    H239971   2.751   2.493   4.391  0.2731  0.3513  0.7608
 6186TIP3   OH239972   6.573   1.430   2.855 -0.2159 -0.2082 -0.3143
 6186TIP3    H139973   6.609   1.456   2.771  0.5773 -1.9729 -0.5667
 6186TIP3    H239974   6.542   1.340   2.842 -0.4802 -0.3599  1.1431
 6187TIP3   OH239975   2.917   0.011  12.116  0.0723  0.3829 -0.2927
 6187TIP3    H139976   2.932   0.045  12.204  1.3681 -1.0767  0.0828
 6187TIP3    H239977   2.826  -0.017  12.117 -0.7740  2.8273 -0.3195
 6188TIP3   OH239978   1.077   1.325  13.405 -0.0832 -0.2498  0.1415
 6188TIP3    H139979   1.022   1.269  13.349 -0.0705  0.0104 -0.1373
 6188TIP3    H239980   1.026   1.405  13.416  1.3225  1.1639 -2.4154
 6189TIP3   OH239981   4.258   6.170   1.213  0.0298 -0.1534 -0.9139
 6189TIP3    H139982   4.285   6.078   1.213 -0.3654 -0.2797 -0.1021
 6189TIP3    H239983   4.178   6.172   1.266 -0.1091  0.6157 -1.1368
 6190TIP3   OH239984   2.232   2.539  12.227 -0.6924 -0.1283 -0.1745
 6190TIP3    H139985   2.311   2.593  12.217 -0.9349  0.3305  0.3244
 6190TIP3    H239986   2.213   2.542  12.321 -0.8912 -0.8335 -0.1873
 6191TIP3   OH239987   0.357   2.156   4.990 -0.0964 -0.3436  0.1823
 6191TIP3    H139988   0.271   2.144   5.030 -0.0023  0.4489  0.6394
 6191TIP3    H239989   0.345   2.226   4.926  0.0444 -0.7477 -0.2957
 6192TIP3   OH239990   2.930   5.801  15.204  0.7891 -0.1018 -0.4143
 6192TIP3    H139991   2.869   5.874  15.189  1.6988  1.0847  1.3199
 6192TIP3    H239992   2.873   5.725  15.217 -0.4371  1.0779  1.7421
 6193TIP3   OH239993   4.849   2.541   0.278 -0.1490 -0.0717  0.4142
 6193TIP3    H139994   4.842   2.557   0.372 -0.5936  0.2320  0.3322
 6193TIP3    H239995   4.887   2.621   0.243 -2.1032  0.7412  0.0421
 6194TIP3   OH239996   2.439   0.450   5.362  0.2857  0.3353  0.1676
 6194TIP3    H139997   2.457   0.539   5.392 -2.4797  0.6845  1.0099
 6194TIP3    H239998   2.451   0.395   5.439  1.3526  0.0209 -0.1977
 6195TIP3   OH239999   3.940   5.960  11.867  0.1213 -0.0671 -0.5463
 6195TIP3    H140000   3.941   5.897  11.939 -0.4190  0.1935 -0.2990
 6195TIP3    H240001   3.989   5.918  11.797  0.9269 -0.1962  0.0770
 6196TIP3   OH240002   6.049   6.736   5.754  0.1574 -0.6118 -0.2785
 6196TIP3    H140003   5.982   6.780   5.701  0.9138 -2.1328 -2.6828
 6196TIP3    H240004   6.000   6.693   5.824 -1.0420  0.5205 -0.3915
 6197TIP3   OH240005   3.962   2.660  14.265  0.8387  0.1342 -0.0737
 6197TIP3    H140006   4.034   2.723  14.269  1.1238 -0.1388 -0.7785
 6197TIP3    H240007   3.908   2.690  14.192  1.1849 -0.6501 -0.6602
 6198TIP3   OH240008   3.912   5.006   4.986 -0.0677 -0.3318  0.6685
 6198TIP3    H140009   3.873   5.086   5.021 -2.3477 -0.5536 -1.1053
 6198TIP3    H240010   3.864   4.935   5.029 -1.7584 -0.6092 -1.4723
 6199TIP3   OH240011   6.278   4.439  14.355  0.0584  0.1413 -0.0715
 6199TIP3    H140012   6.330   4.520  14.353 -1.0833  0.8743 -0.9989
 6199TIP3    H240013   6.194   4.466  14.392  0.2015 -0.9813  1.1522
 6200TIP3   OH240014   1.186   4.090  13.304 -0.2293  0.3535 -0.3235
 6200TIP3    H140015   1.108   4.109  13.356  0.4821  0.8419  0.6086
 6200TIP3    H240016   1.258   4.095  13.368  0.6112  0.3823 -1.2574
 6201TIP3   OH240017   0.326   6.528  14.883 -0.3695 -0.0569 -0.1058
 6201TIP3    H140018   0.348   6.469  14.811  1.4885  0.5281 -0.0690
 6201TIP3    H240019   0.410   6.558  14.916 -1.2267  1.0466  1.2021
 6202TIP3   OH240020   3.064   0.365   6.682  0.4308  0.1635  0.3640
 6202TIP3    H140021   3.125   0.318   6.738 -2.0328 -0.2676  2.9026
 6202TIP3    H240022   2.991   0.304   6.669 -1.1450  1.9202  0.5862
 6203TIP3   OH240023   0.126   1.885   4.135  0.3053  0.1056  0.5129
 6203TIP3    H140024   0.031   1.880   4.123  0.1036 -2.7651  2.2793
 6203TIP3    H240025   0.161   1.888   4.046 -1.4108 -1.7187 -0.3126
 6204TIP3   OH240026   6.211   0.693   3.147  0.3241 -0.5200 -0.5961
 6204TIP3    H140027   6.219   0.743   3.229  0.1124 -1.8162  0.2453
 6204TIP3    H240028   6.155   0.747   3.091 -0.8064 -0.3134  0.6893
 6205TIP3   OH240029   5.423   1.316  17.147  0.5359  0.0465 -0.0197
 6205TIP3    H140030   5.454   1.307  17.237 -0.0471 -1.0002  0.0918
 6205TIP3    H240031   5.340   1.362  17.154 -0.8618 -2.3815  0.2717
 6206TIP3   OH240032   3.059   2.857   3.725 -0.7570  0.1694  0.1711
 6206TIP3    H140033   3.069   2.934   3.669 -0.7902  0.2180  0.2325
 6206TIP3    H240034   2.995   2.802   3.678 -0.8970  0.2777  0.2345
 6207TIP3   OH240035   1.011   6.573   2.067  0.2166  0.1575  0.3848
 6207TIP3    H140036   0.950   6.601   2.135 -1.9472 -1.0021 -0.9404
 6207TIP3    H240037   1.087   6.540   2.114 -0.1083  1.7183  2.1187
 6208TIP3   OH240038   6.100   5.783   4.884 -0.0864  0.1268 -0.3441
 6208TIP3    H140039   6.057   5.769   4.799  1.4583 -0.4930 -1.0619
 6208TIP3    H240040   6.135   5.872   4.878 -0.8694  0.4694  0.0675
 6209TIP3   OH240041   6.511   2.094  13.277  0.2246 -0.5935  0.1684
 6209TIP3    H140042   6.500   2.187  13.254 -1.5485 -1.3779 -2.6248
 6209TIP3    H240043   6.604   2.078  13.266  0.4753  0.7169  0.1323
 6210TIP3   OH240044   3.695   1.379  16.979 -0.0574  0.2830  0.3831
 6210TIP3    H140045   3.647   1.459  16.960  1.9564  1.0066 -2.2517
 6210TIP3    H240046   3.787   1.403  16.968  0.6022 -2.5709 -1.6703
 6211TIP3   OH240047   4.436   4.509  11.380 -0.0047 -0.1622  0.2149
 6211TIP3    H140048   4.391   4.505  11.465 -0.3302 -0.9305  0.0125
 6211TIP3    H240049   4.493   4.432  11.379  0.0373 -0.1270 -0.2457
 6212TIP3   OH240050   1.875   2.804   1.318  0.0463  0.0381 -0.1533
 6212TIP3    H140051   1.878   2.807   1.223  0.2959 -1.7256 -0.2314
 6212TIP3    H240052   1.838   2.718   1.339 -0.8760  0.7444  1.3485
 6213TIP3   OH240053   2.174   0.515  15.351  0.3609 -0.7134  0.5335
 6213TIP3    H140054   2.195   0.574  15.279  1.3294  1.8846  2.7769
 6213TIP3    H240055   2.259   0.484  15.382  0.0300 -0.9653  1.1946
 6214TIP3   OH240056   5.460   0.791  12.404  0.3853  0.1934  0.0319
 6214TIP3    H140057   5.544   0.828  12.377 -0.9751  2.8316 -0.9421
 6214TIP3    H240058   5.458   0.804  12.499  2.5911 -3.4704  0.7583
 6215TIP3   OH240059   6.400   0.258   0.727  0.0235  0.5280 -0.3700
 6215TIP3    H140060   6.385   0.168   0.698  1.0981  0.1712  0.1201
 6215TIP3    H240061   6.458   0.295   0.661  1.7215  0.0010  0.7302
 6216TIP3   OH240062   2.391   6.057  14.215 -0.3852  0.4369 -0.2735
 6216TIP3    H140063   2.387   5.966  14.243 -1.7962  0.3987 -0.5265
 6216TIP3    H240064   2.476   6.065  14.172  0.4205 -0.3428  1.0852
 6217TIP3   OH240065   5.704   1.717   2.416  0.1285 -0.2699  0.1336
 6217TIP3    H140066   5.783   1.699   2.467 -0.3057  1.7816  1.6764
 6217TIP3    H240067   5.633   1.678   2.467 -0.2000  0.8991  0.6003
 6218TIP3   OH240068   3.308   2.474   2.864  0.4643  0.1828 -0.2568
 6218TIP3    H140069   3.244   2.450   2.798 -0.0321  0.3682  0.1557
 6218TIP3    H240070   3.341   2.560   2.834  0.7614 -0.0589 -0.6377
 6219TIP3   OH240071   2.311   2.095  16.556 -0.4786 -0.3815  0.3620
 6219TIP3    H140072   2.219   2.120  16.548 -0.4480 -0.0165  1.0550
 6219TIP3    H240073   2.351   2.167  16.605 -0.1723 -1.3075  1.5239
 6220TIP3   OH240074   2.701   0.661  13.536  0.2479 -0.0581  0.3408
 6220TIP3    H140075   2.615   0.626  13.512 -0.0084 -0.2313  1.4887
 6220TIP3    H240076   2.684   0.753  13.559  0.2237 -0.3235  1.3981
 6221TIP3   OH240077   2.003   2.961   5.890 -0.3393 -0.1445  0.2053
 6221TIP3    H140078   2.031   2.888   5.946  0.8432 -0.2702 -0.5189
 6221TIP3    H240079   2.011   2.927   5.801 -1.4656  0.3038 -0.0800
 6222TIP3   OH240080   3.024   4.136  13.088  0.0371  0.2773 -0.0357
 6222TIP3    H140081   3.092   4.139  13.156 -0.6667  1.3230  0.6607
 6222TIP3    H240082   3.063   4.086  13.017  0.2753 -2.1132  1.6838
 6223TIP3   OH240083   2.858   0.037   3.232 -0.0128  0.4422  0.9639
 6223TIP3    H140084   2.902  -0.048   3.243 -1.2338 -0.1281  1.6140
 6223TIP3    H240085   2.925   0.093   3.194  0.2177 -1.3913 -1.6086
 6224TIP3   OH240086   3.652   2.322   1.581  0.2443 -0.2021 -0.7461
 6224TIP3    H140087   3.709   2.246   1.585 -1.2407 -1.4619 -2.1265
 6224TIP3    H240088   3.564   2.287   1.594 -0.6827  0.9153 -3.2603
 6225TIP3   OH240089   4.014   3.291   5.433  0.3242  0.1273 -0.5291
 6225TIP3    H140090   3.986   3.241   5.357 -2.3221  1.1754 -0.3401
 6225TIP3    H240091   3.934   3.307   5.482  1.2681  3.2537  0.1990
 6226TIP3   OH240092   4.297   4.900   5.979 -0.3569  0.2593  0.2591
 6226TIP3    H140093   4.316   4.817   6.023 -0.4528  0.2205  0.2296
 6226TIP3    H240094   4.283   4.876   5.888  0.7961  0.4718  0.0240
 6227TIP3   OH240095   3.926   2.788  13.547  0.1000 -0.1633  0.0221
 6227TIP3    H140096   3.937   2.858  13.483 -0.4600 -0.3137 -0.2474
 6227TIP3    H240097   3.845   2.810  13.593 -1.5746 -1.9224 -1.8044
 6228TIP3   OH240098   0.499   2.471  11.438  0.2006  0.0450  0.6415
 6228TIP3    H140099   0.576   2.414  11.447 -0.3156 -1.1321 -1.5959
 6228TIP3    H240100   0.531   2.558  11.462  2.6099 -0.1764 -1.3736
 6229TIP3   OH240101   5.206   2.588  17.220 -0.2022  0.2148  0.4177
 6229TIP3    H140102   5.162   2.545  17.146 -0.2582 -0.7532  0.9990
 6229TIP3    H240103   5.150   2.663  17.241 -1.1303 -0.5122  0.5907
 6230TIP3   OH240104   5.511   1.151  13.501  0.4351 -0.2235  0.0185
 6230TIP3    H140105   5.593   1.116  13.536  1.5191  1.6621 -0.5142
 6230TIP3    H240106   5.532   1.180  13.412 -0.9825 -0.2668 -0.3713
 6231TIP3   OH240107   5.711   6.664   4.471 -0.2740 -0.0108 -0.0654
 6231TIP3    H140108   5.616   6.652   4.470 -0.3651  0.4154  1.1995
 6231TIP3    H240109   5.732   6.700   4.385 -1.3688  0.6609 -0.0625
 6232TIP3   OH240110   5.410   4.921  11.160  0.0008 -0.2388 -0.0692
 6232TIP3    H140111   5.394   4.999  11.212  0.2212 -0.5206  0.4241
 6232TIP3    H240112   5.326   4.875  11.157  0.3901 -1.1284  1.5470
 6233TIP3   OH240113   5.736   4.450   4.605  0.0166 -0.3002 -0.0681
 6233TIP3    H140114   5.781   4.434   4.523 -0.2073 -1.3027 -0.0017
 6233TIP3    H240115   5.751   4.543   4.623  0.1608 -0.1018 -1.1739
 6234TIP3   OH240116   5.559   6.745   5.472 -0.0225 -0.2880 -0.0365
 6234TIP3    H140117   5.590   6.684   5.539 -1.1231 -1.2444 -0.3450
 6234TIP3    H240118   5.571   6.698   5.390 -1.4861 -0.3767 -0.2248
 6235TIP3   OH240119   5.906   5.711   0.711 -0.5585  0.0572 -0.6003
 6235TIP3    H140120   5.817   5.703   0.678 -1.7592  2.9554  1.5254
 6235TIP3    H240121   5.947   5.778   0.657 -0.4578  0.3778 -0.1335
 6236TIP3   OH240122   2.791   5.378  12.037  0.0786 -0.2189  0.1817
 6236TIP3    H140123   2.757   5.459  11.999  1.5231  0.2103 -0.2669
 6236TIP3    H240124   2.878   5.368  11.998 -0.1084 -2.0389  0.1608
 6237TIP3   OH240125   3.984   6.092   2.088  0.2778  0.2340  0.6526
 6237TIP3    H140126   3.905   6.037   2.083  1.1589 -0.9189 -2.3291
 6237TIP3    H240127   4.013   6.100   1.998  3.4859  0.8091  1.6356
 6238TIP3   OH240128   5.938   4.329  14.300 -0.0577  0.0572 -0.0759
 6238TIP3    H140129   5.904   4.412  14.269 -0.6077  0.1405  0.7311
 6238TIP3    H240130   5.979   4.349  14.384 -0.0478 -0.4513  0.0469
 6239TIP3   OH240131   4.850   4.808  17.064 -0.1958 -0.0390 -0.2061
 6239TIP3    H140132   4.774   4.790  17.120  0.9232 -0.0629  1.3812
 6239TIP3    H240133   4.914   4.741  17.088  0.9552  1.0110 -0.2519
 6240TIP3   OH240134   0.727   5.809   4.406 -0.3088 -0.1053  0.2767
 6240TIP3    H140135   0.665   5.862   4.356  1.7821 -1.5330 -4.3313
 6240TIP3    H240136   0.708   5.719   4.383 -0.0755 -1.0944  3.3905
 6241TIP3   OH240137   2.552   0.063  16.803  0.1346  0.3635 -0.2997
 6241TIP3    H140138   2.467   0.096  16.831  0.7375  0.0171  2.1316
 6241TIP3    H240139   2.541  -0.032  16.799  0.5851  0.2527  0.7898
 6242TIP3   OH240140   3.609   4.299  13.208 -0.2226 -0.0838 -0.6581
 6242TIP3    H140141   3.698   4.329  13.190  0.2398 -0.1764  1.3010
 6242TIP3    H240142   3.559   4.327  13.131  1.5559 -0.3971 -1.9863
 6243TIP3   OH240143   5.662   5.299   5.797  0.1401  0.2288 -0.4600
 6243TIP3    H140144   5.753   5.271   5.795 -0.0044 -0.3486  0.4017
 6243TIP3    H240145   5.663   5.387   5.758  1.2017  0.5786  0.3011
 6244TIP3   OH240146   5.439   4.246   0.894  0.0001  0.6108 -0.2739
 6244TIP3    H140147   5.370   4.182   0.909 -0.5276  1.2172 -0.0273
 6244TIP3    H240148   5.416   4.320   0.951  0.5738  1.0271 -0.5648
 6245TIP3   OH240149   5.020   4.417   3.367  0.3291 -0.1310  0.1849
 6245TIP3    H140150   5.035   4.337   3.317  1.6174  0.5610 -0.5956
 6245TIP3    H240151   5.103   4.434   3.411  0.1756  0.9431  0.0863
 6246TIP3   OH240152   1.432   3.487  13.046  0.5657  0.4299 -0.4427
 6246TIP3    H140153   1.463   3.542  12.975 -0.7470  1.5019 -0.2276
 6246TIP3    H240154   1.511   3.463  13.095  1.2581  1.3079 -1.1189
 6247TIP3   OH240155   0.620   6.541  12.527 -0.6404  0.0075  0.4023
 6247TIP3    H140156   0.681   6.468  12.539 -0.5815  0.2807  2.1031
 6247TIP3    H240157   0.574   6.522  12.446 -0.3248 -1.6876  0.5957
 6248TIP3   OH240158   5.680   5.282   1.666  0.2998 -0.1537  0.1930
 6248TIP3    H140159   5.751   5.234   1.708  2.2854 -0.2198 -2.8628
 6248TIP3    H240160   5.697   5.374   1.687  0.2404 -0.3076  0.9108
 6249TIP3   OH240161   5.770   4.102   1.628  0.3920 -0.3841 -0.1369
 6249TIP3    H140162   5.679   4.083   1.654  0.1506 -1.2294 -1.4847
 6249TIP3    H240163   5.793   4.029   1.569  1.2670  0.8291 -1.3411
 6250TIP3   OH240164   1.687   3.400   4.565  0.0205 -0.2607  0.4183
 6250TIP3    H140165   1.720   3.489   4.572 -1.8484  0.5749 -0.5971
 6250TIP3    H240166   1.752   3.353   4.513  0.5589  0.7770  0.1486
 6251TIP3   OH240167   2.886   2.083   5.855 -0.1513 -0.3770 -0.2193
 6251TIP3    H140168   2.854   1.995   5.836 -1.3215 -0.3357  1.3570
 6251TIP3    H240169   2.807   2.137   5.855  0.4463  0.5184 -0.3128
 6252TIP3   OH240170   1.857   4.722   5.275  0.4334 -0.2678 -0.3686
 6252TIP3    H140171   1.795   4.747   5.207 -0.4496 -1.2450  0.0570
 6252TIP3    H240172   1.889   4.805   5.311 -1.6092  0.2888  0.2778
 6253TIP3   OH240173   5.409   2.901   5.780  0.3079  0.3470  0.3342
 6253TIP3    H140174   5.362   2.976   5.745 -0.4621 -0.0617  0.4531
 6253TIP3    H240175   5.340   2.843   5.813  0.8366 -0.7076 -0.3484
 6254TIP3   OH240176   3.815   1.325  13.814  0.2964  0.5054  0.0838
 6254TIP3    H140177   3.881   1.320  13.884 -1.0620 -0.0380  1.3707
 6254TIP3    H240178   3.768   1.406  13.833  1.6803  1.8667 -1.8938
 6255TIP3   OH240179   2.274   2.651  16.237  0.0173 -0.6548 -0.8394
 6255TIP3    H140180   2.362   2.615  16.233 -0.2186 -1.2556 -0.6752
 6255TIP3    H240181   2.258   2.665  16.330  0.8907  1.8519 -0.9925
 6256TIP3   OH240182   1.906   6.237  16.775  0.1574 -0.3855  0.4358
 6256TIP3    H140183   1.873   6.151  16.803  1.5638 -0.5760  1.5842
 6256TIP3    H240184   1.962   6.266  16.846  0.8732  0.8421 -0.5863
 6257TIP3   OH240185   2.632   1.595   1.427  0.3180 -0.3903  0.3414
 6257TIP3    H140186   2.640   1.540   1.505  0.1571 -0.7880  0.0813
 6257TIP3    H240187   2.544   1.577   1.394 -1.2386  2.8033  2.3170
 6258TIP3   OH240188   5.648   6.295   4.943 -0.1083 -0.2952  0.0586
 6258TIP3    H140189   5.559   6.330   4.945  0.3381  0.8583  1.0323
 6258TIP3    H240190   5.657   6.258   4.855 -1.6766 -0.8095  0.0842
 6259TIP3   OH240191   1.601   3.852  16.949  0.1906 -0.1636 -0.0437
 6259TIP3    H140192   1.591   3.758  16.937 -1.8699 -0.1209  1.0114
 6259TIP3    H240193   1.513   3.884  16.967  0.9575  1.8539  0.3947
 6260TIP3   OH240194   2.570   1.515  10.739 -0.1835  0.0119 -0.2157
 6260TIP3    H140195   2.553   1.504  10.832 -2.5086  1.5278 -0.3887
 6260TIP3    H240196   2.492   1.481  10.696  0.6786 -0.2778 -1.6269
 6261TIP3   OH240197   3.407   6.571   5.047  0.0876  0.1778 -0.9365
 6261TIP3    H140198   3.375   6.500   5.102  0.8848  0.8016  0.3813
 6261TIP3    H240199   3.328   6.610   5.010 -0.5009  0.0129  0.1166
 6262TIP3   OH240200   1.980   4.237   5.593 -0.6204  0.2485 -0.0006
 6262TIP3    H140201   1.942   4.162   5.547 -0.1508 -0.3939  0.6199
 6262TIP3    H240202   2.072   4.213   5.605  0.2050  2.0632 -2.0934
 6263TIP3   OH240203   3.700   3.130   2.777 -0.1128 -0.1527 -0.4748
 6263TIP3    H140204   3.759   3.168   2.842 -0.3303 -2.2473  1.0636
 6263TIP3    H240205   3.696   3.195   2.707 -1.2189  3.0540  2.3104
 6264TIP3   OH240206   3.021   4.726   3.111 -0.4477  0.2646  0.2706
 6264TIP3    H140207   2.972   4.808   3.113 -1.5294 -0.2856 -1.8203
 6264TIP3    H240208   2.959   4.660   3.143 -0.4038 -0.1058 -0.3908
 6265TIP3   OH240209   1.684   5.672   1.560 -0.6210  0.7078  0.6312
 6265TIP3    H140210   1.701   5.759   1.596  2.8435 -0.0296  1.0953
 6265TIP3    H240211   1.682   5.614   1.636  1.2793 -0.1222  0.1021
 6266TIP3   OH240212   3.957   2.648  11.713  0.5576  0.6051 -0.5109
 6266TIP3    H140213   4.035   2.691  11.678  0.5308  0.6626 -0.4996
 6266TIP3    H240214   3.985   2.614  11.798  0.4403  1.0276 -0.3008
 6267TIP3   OH240215   3.946   1.300  15.472  0.4117  0.3709 -0.1667
 6267TIP3    H140216   3.864   1.302  15.522 -0.3998 -1.3478 -1.3296
 6267TIP3    H240217   3.938   1.374  15.411  0.5607  1.3086  0.9144
 6268TIP3   OH240218   0.414   4.064  14.379 -0.0708  0.1868  0.2460
 6268TIP3    H140219   0.352   3.993  14.396  0.2027  0.1993  1.3782
 6268TIP3    H240220   0.442   4.050  14.288  0.8698 -1.8839  0.7962
 6269TIP3   OH240221   4.872   3.255   2.570 -0.2669 -0.0979  0.6467
 6269TIP3    H140222   4.932   3.238   2.643  1.3250  0.6309 -0.4302
 6269TIP3    H240223   4.791   3.284   2.611  0.9932  1.5411  2.1268
 6270TIP3   OH240224   1.166   0.380  13.802 -0.0589  0.1514  0.4814
 6270TIP3    H140225   1.086   0.330  13.821  0.8570 -0.8316  1.9536
 6270TIP3    H240226   1.170   0.383  13.707 -1.2235 -0.8238  0.3703
 6271TIP3   OH240227   3.308   3.351   6.097  0.2708 -0.1353  0.1281
 6271TIP3    H140228   3.331   3.324   6.185 -1.9514  1.5194  1.3077
 6271TIP3    H240229   3.267   3.437   6.107  1.9360  1.1618 -2.7747
 6272TIP3   OH240230   4.356   3.007  17.029  0.7057  0.0731  0.3759
 6272TIP3    H140231   4.316   3.070  17.090  1.3280  1.0775 -0.2221
 6272TIP3    H240232   4.355   2.924  17.077 -0.5550  0.4246  1.0131
 6273TIP3   OH240233   0.685   3.775  12.238 -0.2691 -0.0275  0.0494
 6273TIP3    H140234   0.597   3.746  12.261 -0.6946  1.2644  0.1156
 6273TIP3    H240235   0.689   3.769  12.142 -0.3399 -0.3210  0.0651
 6274TIP3   OH240236   5.671   3.713   0.002 -0.5155  0.0989 -0.3317
 6274TIP3    H140237   5.612   3.740   0.073  0.9314 -0.8402  1.3004
 6274TIP3    H240238   5.758   3.739   0.032  0.4705 -2.6842 -0.5169
 6275TIP3   OH240239   4.452   1.173  14.289 -0.0892 -0.4526 -0.1813
 6275TIP3    H140240   4.541   1.195  14.262  0.5076  0.8079  2.4729
 6275TIP3    H240241   4.461   1.094  14.342 -0.7639 -1.0608 -0.9432
 6276TIP3   OH240242   2.132   5.324  10.881  0.1147  0.7486 -0.2854
 6276TIP3    H140243   2.090   5.399  10.923 -4.4884 -2.0966  0.9291
 6276TIP3    H240244   2.221   5.323  10.916 -1.3819  2.4432  4.2171
 6277TIP3   OH240245   5.667   3.095  17.124  0.0890 -0.1578 -0.2340
 6277TIP3    H140246   5.666   3.051  17.039  0.5899 -0.1709 -0.2360
 6277TIP3    H240247   5.729   3.044  17.176  0.0828  0.0864  0.0123
 6278TIP3   OH240248   6.624   1.999  15.933 -0.0847 -0.0225  0.2743
 6278TIP3    H140249   6.570   2.041  16.000 -0.2289  0.3648 -0.0775
 6278TIP3    H240250   6.672   2.072  15.893 -1.3517  0.0316 -1.2848
 6279TIP3   OH240251   3.668   0.504  13.087  0.1316 -0.2032 -0.9438
 6279TIP3    H140252   3.657   0.515  12.992 -0.2902  0.2379 -0.8510
 6279TIP3    H240253   3.683   0.593  13.120  0.7647 -0.4171 -0.6543
 6280TIP3   OH240254   3.009   4.777  16.284  0.2486  0.1293  0.1736
 6280TIP3    H140255   2.970   4.745  16.365 -0.6979  2.2295  0.6162
 6280TIP3    H240256   2.935   4.791  16.225  0.8646 -0.7346 -0.8240
 6281TIP3   OH240257   0.478   5.703  10.165  0.2501 -0.4112  0.2280
 6281TIP3    H140258   0.550   5.753  10.203  1.2212 -2.0720  0.6970
 6281TIP3    H240259   0.436   5.660  10.240 -1.3122  0.5782 -0.0280
 6282TIP3   OH240260   3.718   2.735   5.718 -0.4033  0.0125 -0.3479
 6282TIP3    H140261   3.702   2.699   5.631  0.2356  1.4441 -1.1006
 6282TIP3    H240262   3.682   2.670   5.778 -1.2930 -0.7847 -1.6881
 6283TIP3   OH240263   6.097   2.163  14.455  0.4427 -0.1407  0.1965
 6283TIP3    H140264   6.084   2.258  14.450 -0.8972 -0.1752  2.0932
 6283TIP3    H240265   6.105   2.144  14.548  1.1047 -1.8700 -0.1662
 6284TIP3   OH240266   0.765   2.326  13.047 -0.7383  0.3888  0.3553
 6284TIP3    H140267   0.762   2.241  13.003 -1.8195 -0.0842  1.2987
 6284TIP3    H240268   0.769   2.305  13.140  1.4300  1.3730  0.5585
 6285TIP3   OH240269   1.765   1.147  11.358 -0.4871 -0.5367 -0.0487
 6285TIP3    H140270   1.829   1.100  11.304  1.0222  0.5438  0.7432
 6285TIP3    H240271   1.787   1.122  11.448  0.0480  1.2723  0.3565
 6286TIP3   OH240272   2.301   4.036   0.874  0.2207 -0.3816 -0.3790
 6286TIP3    H140273   2.301   3.941   0.880  1.2811 -0.3876 -0.2860
 6286TIP3    H240274   2.251   4.056   0.795 -0.5135 -0.9854 -0.0705
 6287TIP3   OH240275   3.270   0.944   4.512 -0.0768  0.6025 -0.1316
 6287TIP3    H140276   3.294   0.917   4.601 -0.0214  1.1579  0.0258
 6287TIP3    H240277   3.353   0.962   4.469 -0.1316  0.8806 -0.1197
 6288TIP3   OH240278   1.011   1.096   2.462  0.1209 -0.0399 -0.1675
 6288TIP3    H140279   1.037   1.186   2.482 -0.4186  0.7245 -2.5378
 6288TIP3    H240280   0.920   1.103   2.434  0.1485 -1.2902 -0.6337
 6289TIP3   OH240281   1.168   1.600   0.550  0.1441 -0.3437 -0.9278
 6289TIP3    H140282   1.113   1.541   0.499 -2.0938 -0.4946  1.4493
 6289TIP3    H240283   1.143   1.688   0.521 -0.9361 -0.4360 -0.3363
 6290TIP3   OH240284   6.329   5.438  14.959  0.2718 -0.9514 -0.3246
 6290TIP3    H140285   6.409   5.477  14.923 -0.4821 -1.0598 -2.2421
 6290TIP3    H240286   6.357   5.355  14.996  1.4818  0.2179  1.5443
 6291TIP3   OH240287   4.129   1.443   4.859  0.7004 -0.1604 -0.4283
 6291TIP3    H140288   4.192   1.514   4.871 -1.2385  1.4540  0.9872
 6291TIP3    H240289   4.090   1.431   4.946  1.6479 -3.7543 -0.3516
 6292TIP3   OH240290   3.267   4.137   2.164 -0.4750 -0.8352 -0.8005
 6292TIP3    H140291   3.246   4.131   2.071 -0.2261  0.5741 -0.9591
 6292TIP3    H240292   3.245   4.227   2.189  1.5194 -0.5124 -0.0197
 6293TIP3   OH240293   5.643   3.404   3.733  0.3279 -0.3575  0.7076
 6293TIP3    H140294   5.572   3.382   3.672 -0.7421  0.0698  1.7739
 6293TIP3    H240295   5.640   3.499   3.740  1.6735 -0.2344  0.0109
 6294TIP3   OH240296   1.115   4.517   4.026 -0.0999 -0.1605 -0.2857
 6294TIP3    H140297   1.171   4.562   3.962 -1.1267  0.7353 -0.5754
 6294TIP3    H240298   1.105   4.429   3.991  1.5897 -0.5393  0.0719
 6295TIP3   OH240299   4.541   2.482   3.004 -0.3163  0.8248 -0.3909
 6295TIP3    H140300   4.536   2.438   3.089 -0.2495  2.0801  0.2924
 6295TIP3    H240301   4.518   2.573   3.023  3.0642  1.9673 -1.0231
 6296TIP3   OH240302   4.171   3.811   5.549 -0.2511  0.2737  0.3716
 6296TIP3    H140303   4.219   3.868   5.488  1.1148 -0.0459  1.1024
 6296TIP3    H240304   4.122   3.752   5.493  0.5991  0.2943 -0.4275
 6297TIP3   OH240305   3.195   4.221   4.377  0.1692  0.4198  0.2881
 6297TIP3    H140306   3.221   4.277   4.304 -0.4125  1.1894  0.6600
 6297TIP3    H240307   3.144   4.151   4.336 -1.1510  1.4783  0.0603
 6298TIP3   OH240308   2.198   6.230  13.666 -0.4959  0.0618  0.1632
 6298TIP3    H140309   2.217   6.150  13.714 -0.9073  0.6189  1.2743
 6298TIP3    H240310   2.280   6.253  13.623 -0.6850 -1.6575 -1.2838
 6299TIP3   OH240311   2.160   1.465  15.332  0.5887  0.2796  0.2471
 6299TIP3    H140312   2.156   1.553  15.369 -3.4124  0.0092  0.8881
 6299TIP3    H240313   2.122   1.409  15.399 -3.0253 -0.8727 -2.4400
 6300TIP3   OH240314   4.289   3.716   1.167 -0.9333 -0.0217  0.5266
 6300TIP3    H140315   4.380   3.716   1.195 -0.0487  2.3522 -1.9250
 6300TIP3    H240316   4.256   3.802   1.191 -2.1155 -0.3401  0.1084
 6301TIP3   OH240317   3.025   3.808  14.637  0.0832 -0.0835 -0.0046
 6301TIP3    H140318   3.079   3.729  14.624  0.7798  0.8514 -4.7182
 6301TIP3    H240319   3.065   3.852  14.711 -0.0378 -3.7922  2.5247
 6302TIP3   OH240320   6.229   1.315   0.031  0.4625  0.0682 -0.0213
 6302TIP3    H140321   6.254   1.377  -0.038  0.7561 -0.5236 -0.4574
 6302TIP3    H240322   6.139   1.338   0.052 -0.3126 -0.9716 -1.9775
 6303TIP3   OH240323   1.464   6.540   2.610 -0.1528 -0.0381  0.2608
 6303TIP3    H140324   1.447   6.446   2.618  1.6677 -0.3415  1.2214
 6303TIP3    H240325   1.552   6.545   2.574 -0.8200  1.3478 -1.2968
 6304TIP3   OH240326   0.921   6.333  11.186  0.1650 -0.0833 -0.0748
 6304TIP3    H140327   0.852   6.398  11.196 -0.0696 -0.5436  1.4316
 6304TIP3    H240328   0.881   6.263  11.135 -0.3247 -0.1316  0.3746
 6305TIP3   OH240329   4.983   3.942  16.886 -0.3265  0.0426 -0.0117
 6305TIP3    H140330   4.971   3.914  16.977  0.2700 -0.0532  0.0434
 6305TIP3    H240331   5.056   4.004  16.890 -0.5318  0.3166 -0.3780
 6306TIP3   OH240332   0.020   0.405   5.610  0.1781 -0.0425 -0.1554
 6306TIP3    H140333   0.064   0.330   5.571  0.9120 -1.0552  2.4261
 6306TIP3    H240334  -0.072   0.394   5.585  0.1764 -2.1440  0.6452
 6307TIP3   OH240335   6.624   3.375  11.586 -0.2609 -0.5007 -0.1845
 6307TIP3    H140336   6.566   3.424  11.529 -0.9471 -0.3418  0.6244
 6307TIP3    H240337   6.712   3.403  11.562 -0.6145  0.6348 -0.1762
 6308TIP3   OH240338   2.523   6.631   5.485 -0.2130  0.0678  0.1657
 6308TIP3    H140339   2.430   6.612   5.497 -0.1947  0.3441  0.8200
 6308TIP3    H240340   2.565   6.545   5.484 -0.2401 -0.0342  2.1731
 6309TIP3   OH240341   1.211   0.579  14.855  0.2648  0.0716 -0.5178
 6309TIP3    H140342   1.171   0.647  14.908  3.0674  0.8512  0.7996
 6309TIP3    H240343   1.200   0.499  14.907  0.9272  0.4097  0.1764
 6310TIP3   OH240344   3.682   6.259   0.136  0.5897 -0.0558 -0.0943
 6310TIP3    H140345   3.747   6.323   0.109  0.7414  0.2052  0.8752
 6310TIP3    H240346   3.599   6.292   0.101  0.4846  1.2535  1.2894
 6311TIP3   OH240347   4.834   1.852   1.184  0.6099 -0.0054 -0.3279
 6311TIP3    H140348   4.807   1.812   1.102 -1.6179  2.5368 -0.9626
 6311TIP3    H240349   4.774   1.816   1.249  1.1551 -0.5944 -0.1384
 6312TIP3   OH240350   2.464   2.265  14.387  0.1803  0.0105 -0.1065
 6312TIP3    H140351   2.448   2.182  14.342  0.0967  0.4725 -0.9449
 6312TIP3    H240352   2.377   2.292  14.419  0.2096 -0.2311  0.1763
 6313TIP3   OH240353   1.701   0.586  12.860  0.3641 -0.5462  0.5575
 6313TIP3    H140354   1.733   0.499  12.882  0.2104 -0.3372  1.7027
 6313TIP3    H240355   1.779   0.634  12.832  0.4947 -0.9690  0.1924
 6314TIP3   OH240356   1.454   5.059  12.312  0.3109 -0.0478 -0.5477
 6314TIP3    H140357   1.506   5.049  12.392 -4.0528  1.3055  2.8612
 6314TIP3    H240358   1.406   4.976  12.304 -0.4367  0.4072 -0.8534
 6315TIP3   OH240359   4.315   3.781  13.125  0.2630  0.2281  0.0278
 6315TIP3    H140360   4.279   3.832  13.052  0.6940  0.1729 -0.2304
 6315TIP3    H240361   4.382   3.726  13.084 -1.5009 -1.9940 -0.0661
 6316TIP3   OH240362   2.936   3.931  14.989 -0.6981  0.0915 -0.1322
 6316TIP3    H140363   2.908   3.842  14.972 -1.3351  0.2665 -0.0041
 6316TIP3    H240364   3.015   3.921  15.043 -0.1684 -0.4015 -0.9739
 6317TIP3   OH240365   2.775   0.475  15.840  0.3718 -0.5126  0.0266
 6317TIP3    H140366   2.792   0.554  15.788 -0.0804 -0.2371  0.2915
 6317TIP3    H240367   2.708   0.501  15.902 -0.5430 -1.3976 -0.5603
 6318TIP3   OH240368   3.833   5.158  13.076  0.0163 -0.4750  0.3481
 6318TIP3    H140369   3.825   5.101  13.152  3.9331 -0.5909  0.8701
 6318TIP3    H240370   3.857   5.099  13.004 -0.6763  0.0141 -0.3107
 6319TIP3   OH240371   3.541   2.711   1.602 -0.1190  0.0002  0.2830
 6319TIP3    H140372   3.632   2.688   1.583  0.2936  0.6528  1.3919
 6319TIP3    H240373   3.507   2.638   1.652 -0.5363 -0.7056 -0.9766
 6320TIP3   OH240374   2.140   6.021  13.475  0.6023  0.0075  0.0951
 6320TIP3    H140375   2.146   5.939  13.524 -0.3724  0.7097  1.4199
 6320TIP3    H240376   2.169   6.088  13.536 -0.1789  0.8507 -0.4337
 6321TIP3   OH240377   3.218   4.280   4.849 -0.2436  0.4074 -0.0110
 6321TIP3    H140378   3.246   4.305   4.761 -1.3947  2.2846  0.1089
 6321TIP3    H240379   3.159   4.206   4.835  0.4922 -0.0597 -0.7082
 6322TIP3   OH240380   4.222   5.136  13.079  0.4230 -0.0576 -0.5665
 6322TIP3    H140381   4.143   5.089  13.052  1.4195 -1.1644 -1.7000
 6322TIP3    H240382   4.233   5.116  13.172 -1.4925  1.4437  0.0432
 6323TIP3   OH240383   2.058   5.607  14.083  0.0348 -0.7619 -0.1881
 6323TIP3    H140384   2.115   5.531  14.095  1.3572  0.3603  1.0384
 6323TIP3    H240385   2.044   5.611  13.988  1.8189 -1.2332 -0.5205
 6324TIP3   OH240386   2.770   5.962  15.080  0.0943 -0.0655 -0.4210
 6324TIP3    H140387   2.791   6.032  15.018  0.0410  0.9622  0.6843
 6324TIP3    H240388   2.690   5.921  15.045  0.5191 -0.0422 -1.4407
 6325TIP3   OH240389   4.457   3.686   6.798 -0.0292  0.2264  0.1937
 6325TIP3    H140390   4.535   3.739   6.785  0.3821  0.3267  2.5419
 6325TIP3    H240391   4.468   3.648   6.886 -0.8792 -2.8184 -0.8844
 6326TIP3   OH240392   5.249   3.217   5.300  0.7843 -0.1624  0.0928
 6326TIP3    H140393   5.178   3.234   5.238 -0.5724 -1.9671  1.0784
 6326TIP3    H240394   5.212   3.239   5.386  1.2748 -1.4680  0.6601
 6327TIP3   OH240395   2.846   0.401   4.362 -0.6629  0.2003  0.7965
 6327TIP3    H140396   2.788   0.357   4.424 -1.7337 -0.2118 -0.4455
 6327TIP3    H240397   2.803   0.390   4.277  2.0574 -1.5866 -0.4698
 6328TIP3   OH240398   1.586   1.377  15.100 -0.4077  0.7816  0.4589
 6328TIP3    H140399   1.649   1.352  15.167 -1.4711  2.6770  2.2950
 6328TIP3    H240400   1.511   1.319  15.115  0.3280 -0.5666 -0.8574
 6329TIP3   OH240401   3.581   0.262  11.101 -0.2238  0.2629 -0.0360
 6329TIP3    H140402   3.660   0.297  11.142 -0.7680  0.7059  0.6667
 6329TIP3    H240403   3.543   0.336  11.054  0.4718 -0.2810 -1.4915
 6330TIP3   OH240404   5.650   6.450  16.645 -0.1652  0.1313  0.1959
 6330TIP3    H140405   5.707   6.415  16.576  0.4101 -1.7605  1.5753
 6330TIP3    H240406   5.586   6.381  16.660 -0.7291  0.8326  1.0629
 6331TIP3   OH240407   0.822   6.589  11.523 -0.7392  0.4478  0.3135
 6331TIP3    H140408   0.764   6.651  11.567 -2.6449 -1.5365  0.7614
 6331TIP3    H240409   0.789   6.586  11.433 -1.0647 -0.3396  0.4526
 6332TIP3   OH240410   3.848   4.036   0.604  0.5526  0.0958 -0.2913
 6332TIP3    H140411   3.919   4.059   0.664 -0.9806  0.6465  1.3957
 6332TIP3    H240412   3.792   3.978   0.654 -0.9662  0.8251 -1.0729
 6333TIP3   OH240413   2.251   5.181   5.080  1.0126  0.4524 -0.0998
 6333TIP3    H140414   2.189   5.153   5.147  1.3173  0.0844  0.0277
 6333TIP3    H240415   2.226   5.131   5.002  0.8161  0.6999 -0.2024
 6334TIP3   OH240416   5.214   3.931  13.105  0.2032 -0.0167  0.1771
 6334TIP3    H140417   5.124   3.965  13.103 -0.7372 -2.3009 -0.7650
 6334TIP3    H240418   5.209   3.850  13.054  2.6961 -0.5104  0.6120
 6335TIP3   OH240419   2.784   0.694   0.050  0.2015 -0.0475 -0.3270
 6335TIP3    H140420   2.823   0.624  -0.003  1.4053  0.1939  0.2107
 6335TIP3    H240421   2.858   0.737   0.091 -0.3991  2.3155 -1.5412
 6336TIP3   OH240422   4.484   4.488   0.212 -0.1220  0.8130 -0.8145
 6336TIP3    H140423   4.578   4.480   0.197  0.6441  0.4098  3.1439
 6336TIP3    H240424   4.471   4.580   0.234 -0.3384  0.5457  0.2062
 6337TIP3   OH240425   5.399   0.463   4.261 -0.2018 -0.5022 -0.0953
 6337TIP3    H140426   5.350   0.469   4.179 -0.5336 -0.4057  0.1079
 6337TIP3    H240427   5.340   0.418   4.321  0.6462 -2.0551 -0.3725
 6338TIP3   OH240428   1.973   2.227  13.982 -0.0582 -0.2077 -0.0275
 6338TIP3    H140429   1.963   2.287  13.908 -0.4475 -1.3116 -0.8985
 6338TIP3    H240430   2.061   2.245  14.015  0.2564  0.0533 -0.9780
 6339TIP3   OH240431   1.959   5.598   5.904  0.0705 -0.4923 -0.2257
 6339TIP3    H140432   1.870   5.562   5.900  0.5383 -1.6757 -0.3312
 6339TIP3    H240433   1.978   5.604   5.998 -0.0919 -0.3177 -0.2041
 6340TIP3   OH240434   6.265   4.034  14.575 -0.4125 -0.5212 -0.4492
 6340TIP3    H140435   6.306   4.091  14.639 -0.3597  0.8505 -1.6384
 6340TIP3    H240436   6.192   3.993  14.622 -0.0537  0.0318  0.6152
 6341TIP3   OH240437   2.582   6.104   5.595 -0.4349 -0.2460  0.6393
 6341TIP3    H140438   2.521   6.038   5.629  0.0185 -0.8897  0.2172
 6341TIP3    H240439   2.651   6.108   5.661 -0.7363  0.2006  0.9282
 6342TIP3   OH240440   6.695   4.449  15.979 -0.4445  0.2608 -0.0836
 6342TIP3    H140441   6.748   4.425  15.903  0.2015 -0.5478  0.6023
 6342TIP3    H240442   6.740   4.526  16.016 -1.0770  1.0058 -0.8208
 6343TIP3   OH240443   5.382   3.085  14.136  0.4467 -0.3908  0.5554
 6343TIP3    H140444   5.413   3.140  14.208 -0.3604 -1.9016  2.1413
 6343TIP3    H240445   5.299   3.124  14.109  0.4694 -0.1377  0.8530
 6344TIP3   OH240446   6.771   3.538   0.941  0.2200  0.2518  0.2981
 6344TIP3    H140447   6.839   3.560   1.005  2.0855 -0.9910 -1.1610
 6344TIP3    H240448   6.757   3.444   0.953 -0.7678  0.3687  0.1211
 6345TIP3   OH240449   2.019   1.674  11.130 -0.1968  0.2532 -0.2803
 6345TIP3    H140450   2.040   1.747  11.071 -1.1836  0.8436  0.0816
 6345TIP3    H240451   2.038   1.707  11.217  0.5625 -0.3746 -0.1960
 6346TIP3   OH240452   6.174   0.007   4.944  0.9479 -0.3317  0.3983
 6346TIP3    H140453   6.166   0.006   4.849  3.2624  0.4569  0.1440
 6346TIP3    H240454   6.186  -0.085   4.968  0.3359 -0.5341 -0.0456
 6347TIP3   OH240455   0.656   6.014  14.890  0.1381 -0.2588  0.3221
 6347TIP3    H140456   0.695   6.102  14.883 -0.7870  0.2354  1.0828
 6347TIP3    H240457   0.718   5.957  14.844  1.5735  0.5499  1.1555
 6348TIP3   OH240458   6.700   2.703   1.131 -0.1799 -0.0398 -0.3590
 6348TIP3    H140459   6.663   2.692   1.043  1.3539 -0.8875 -0.9320
 6348TIP3    H240460   6.655   2.780   1.166 -0.3615  0.7203 -2.1459
 6349TIP3   OH240461   1.914   3.245   4.776 -0.0845 -0.3862  0.5763
 6349TIP3    H140462   1.860   3.211   4.847 -0.0895 -1.7592 -0.0485
 6349TIP3    H240463   1.878   3.204   4.697 -0.0654  1.0810 -0.2283
 6350TIP3   OH240464   0.338   6.533   1.734  0.2751 -0.2274  0.2557
 6350TIP3    H140465   0.410   6.472   1.751  0.6989 -0.4190 -1.9380
 6350TIP3    H240466   0.262   6.476   1.719  0.6060 -0.2875 -1.4901
 6351TIP3   OH240467   5.000   4.246  17.163 -0.0935 -0.1217  0.0402
 6351TIP3    H140468   5.048   4.191  17.101 -0.4898 -0.6014  0.1576
 6351TIP3    H240469   4.911   4.211  17.163 -0.1592  0.0302  0.6876
 6352TIP3   OH240470   0.725   6.111  16.441  0.0700  0.5449 -0.6114
 6352TIP3    H140471   0.767   6.196  16.451  0.1260  0.4927 -0.3861
 6352TIP3    H240472   0.779   6.052  16.494 -1.0906  0.7424  0.8625
 6353TIP3   OH240473   3.054   3.886   2.965  0.4634  0.3157 -0.3204
 6353TIP3    H140474   3.127   3.881   2.902 -0.8511 -2.5298 -1.8645
 6353TIP3    H240475   2.976   3.868   2.912 -1.2887  2.1851  1.4580
 6354TIP3   OH240476   5.470   2.008  15.432  0.0843 -0.3358 -0.1558
 6354TIP3    H140477   5.408   1.945  15.395  0.2701 -0.4710 -0.2445
 6354TIP3    H240478   5.418   2.086  15.449 -0.6243 -1.1761  1.9141
 6355TIP3   OH240479   1.895   0.366   5.634 -0.6741  0.1630 -0.0174
 6355TIP3    H140480   1.937   0.331   5.712 -1.9052  1.3293  1.2299
 6355TIP3    H240481   1.938   0.321   5.561 -0.7355 -2.3458  1.3757
 6356TIP3   OH240482   5.868   4.018  14.109  0.2889  0.0238  0.3762
 6356TIP3    H140483   5.804   4.050  14.046 -0.7214  1.8395  2.1782
 6356TIP3    H240484   5.825   4.028  14.194  2.1011 -0.9707  1.4838
 6357TIP3   OH240485   1.925   0.357  12.702 -0.3202  0.7446  0.4343
 6357TIP3    H140486   1.891   0.363  12.613 -0.6044  0.0969  0.4932
 6357TIP3    H240487   2.007   0.406  12.699  0.3841 -0.4137 -0.5549
 6358TIP3   OH240488   4.136   4.279   1.610  0.0763 -0.3728  0.1666
 6358TIP3    H140489   4.224   4.263   1.576  0.0353 -1.6180  0.6083
 6358TIP3    H240490   4.150   4.295   1.704 -0.1193 -0.0809  0.1467
 6359TIP3   OH240491   3.175   0.842   2.123 -0.4863  0.0897  0.6995
 6359TIP3    H140492   3.171   0.861   2.029 -0.3225 -2.1137  0.1917
 6359TIP3    H240493   3.268   0.849   2.145 -0.4426 -0.0292  0.5514
 6360TIP3   OH240494   4.311   0.874   5.992 -0.2903  0.1736 -0.3018
 6360TIP3    H140495   4.282   0.948   5.939  0.1029 -0.9112 -2.0912
 6360TIP3    H240496   4.257   0.879   6.071 -0.3143  2.3127 -0.3894
 6361TIP3   OH240497   2.155   6.667   2.304 -0.8417 -0.3997 -0.2625
 6361TIP3    H140498   2.211   6.726   2.252 -0.9437 -0.9290 -0.9843
 6361TIP3    H240499   2.209   6.643   2.379 -0.1998 -0.6639 -0.7995
 6362TIP3   OH240500   4.984   5.535   6.037 -0.1676 -0.1746  0.1617
 6362TIP3    H140501   4.968   5.497   5.950 -1.2922 -0.0411  0.2913
 6362TIP3    H240502   5.066   5.584   6.027  0.2111 -0.9244 -0.5671
 6363TIP3   OH240503   6.662   4.695  13.590  0.4223 -0.6997  0.0073
 6363TIP3    H140504   6.606   4.650  13.654  0.1490 -0.9778 -0.4222
 6363TIP3    H240505   6.615   4.687  13.507 -0.5283  1.9223  0.1980
 6364TIP3   OH240506   5.468   1.551   1.187  0.3769 -0.1567 -0.4000
 6364TIP3    H140507   5.393   1.562   1.128  0.1129 -0.3180 -0.0978
 6364TIP3    H240508   5.476   1.456   1.198 -0.1689 -0.0948  0.5742
 6365TIP3   OH240509   6.186   4.515   1.907  0.3833 -0.9868  0.4045
 6365TIP3    H140510   6.133   4.460   1.965  1.7716 -2.3274  0.4554
 6365TIP3    H240511   6.161   4.488   1.819 -0.0955 -0.5307  0.3910
 6366TIP3   OH240512   0.378   1.969  12.432  0.1005 -0.1447 -0.9974
 6366TIP3    H140513   0.300   1.920  12.407  0.6746 -1.2453 -0.7316
 6366TIP3    H240514   0.446   1.902  12.443  0.5973  0.5563  0.6510
 6367TIP3   OH240515   0.520   5.006  14.137 -0.4243 -0.2391 -0.4400
 6367TIP3    H140516   0.444   4.990  14.192  0.4731 -1.0506  0.6304
 6367TIP3    H240517   0.496   5.080  14.082 -1.1934  0.9682  1.4303
 6368TIP3   OH240518   2.582   1.586  15.339 -0.2562  0.3965  0.1136
 6368TIP3    H140519   2.635   1.508  15.325  1.9720  1.7082  0.6909
 6368TIP3    H240520   2.524   1.563  15.412  0.8615 -0.4900  0.7502
 6369TIP3   OH240521   5.985   2.138   3.971 -0.4089  0.2686  0.1992
 6369TIP3    H140522   6.034   2.061   3.942 -0.1018  0.0188  1.3157
 6369TIP3    H240523   6.050   2.209   3.972 -0.0192 -0.0714  1.7182
 6370TIP3   OH240524   1.127   3.779  12.589 -0.5215 -0.4679 -0.1518
 6370TIP3    H140525   1.180   3.771  12.510 -1.0218  0.4212 -0.6022
 6370TIP3    H240526   1.180   3.740  12.658  0.7333  0.4301 -0.5748
 6371TIP3   OH240527   0.845   4.028   0.539  0.5646 -0.4960  0.4624
 6371TIP3    H140528   0.792   3.949   0.531 -0.0225 -0.1505  0.8591
 6371TIP3    H240529   0.863   4.035   0.633  0.7476 -0.2395  0.4108
 6372TIP3   OH240530   1.707   6.391  16.595 -0.4330  0.0403  0.1278
 6372TIP3    H140531   1.781   6.332  16.579  0.8939  1.7566 -0.4236
 6372TIP3    H240532   1.694   6.437  16.512 -0.9113  1.0699  0.7428
 6373TIP3   OH240533   5.441   1.202  11.979  0.0132 -0.2315  0.7355
 6373TIP3    H140534   5.443   1.279  11.922 -2.2515  0.5865  1.6361
 6373TIP3    H240535   5.389   1.229  12.054  2.7171 -1.3003  3.2284
 6374TIP3   OH240536   3.124   5.979   3.008 -0.0079 -0.0165  0.1293
 6374TIP3    H140537   3.190   6.000   3.073  1.6202 -1.4506 -0.9512
 6374TIP3    H240538   3.126   6.052   2.946 -0.5192  0.6539  0.8998
 6375TIP3   OH240539   5.294   0.469  10.997 -0.3843 -0.5772  0.3482
 6375TIP3    H140540   5.325   0.416  11.070 -1.1587  0.2988  1.3351
 6375TIP3    H240541   5.210   0.429  10.973  0.4498 -1.6504 -0.9396
 6376TIP3   OH240542   6.345   2.706   3.740 -0.3427  0.2271 -0.7450
 6376TIP3    H140543   6.418   2.741   3.690 -0.2367  0.3594 -0.4997
 6376TIP3    H240544   6.345   2.612   3.721 -0.4404  0.3069 -1.1635
 6377TIP3   OH240545   4.819   3.775   3.946 -0.1633 -0.1649  0.4749
 6377TIP3    H140546   4.891   3.835   3.926  0.9265 -1.1590  1.2952
 6377TIP3    H240547   4.781   3.810   4.026  0.5318 -0.6143  1.0053
 6378TIP3   OH240548   4.919   2.144   0.508 -0.2896  0.2037  0.0452
 6378TIP3    H140549   4.947   2.053   0.519  2.0335  0.6448 -1.5190
 6378TIP3    H240550   4.982   2.195   0.559 -2.5020  0.9546  2.2383
 6379TIP3   OH240551   5.535   3.808   5.304  0.0303  0.3094 -0.7186
 6379TIP3    H140552   5.571   3.895   5.319  0.4067  0.2487 -1.2238
 6379TIP3    H240553   5.612   3.750   5.305  0.0709  0.2585 -2.4277
 6380TIP3   OH240554   6.500   4.594   0.176  0.0435 -0.1612  0.5507
 6380TIP3    H140555   6.540   4.666   0.128 -0.0175  0.9319  2.0477
 6380TIP3    H240556   6.444   4.551   0.112 -0.3107  1.4402 -0.2743
 6381TIP3   OH240557   5.383   6.048  15.914  0.3844 -0.4854  0.1583
 6381TIP3    H140558   5.330   5.975  15.944  1.0729 -0.5542  1.2472
 6381TIP3    H240559   5.320   6.113  15.884 -0.2620 -1.0891  0.1752
 6382TIP3   OH240560   0.848   4.585   3.902 -0.2911 -0.3599  0.1267
 6382TIP3    H140561   0.927   4.534   3.918  0.4042  0.4004 -0.8426
 6382TIP3    H240562   0.853   4.610   3.810  0.0117  2.5234  0.8402
 6383TIP3   OH240563   0.382   1.675  15.040  0.2052  0.5133 -0.3920
 6383TIP3    H140564   0.347   1.722  14.964 -1.6313 -2.1429 -1.3175
 6383TIP3    H240565   0.472   1.654  15.015 -0.5966 -0.9953 -2.2679
 6384TIP3   OH240566   0.668   5.675  14.758  0.5505 -0.3300 -0.4614
 6384TIP3    H140567   0.696   5.658  14.848  1.2315  0.6996 -0.4657
 6384TIP3    H240568   0.707   5.760  14.736 -1.2194  0.3646 -1.0564
 6385TIP3   OH240569   1.562   1.604   0.115  0.3355 -0.4035 -0.4000
 6385TIP3    H140570   1.652   1.599   0.146 -0.3293 -1.8806  1.5461
 6385TIP3    H240571   1.521   1.670   0.171  0.6037  1.7777 -2.6030
 6386TIP3   OH240572   2.941   6.373   3.869 -0.2497  0.4737 -0.2344
 6386TIP3    H140573   2.967   6.453   3.825 -0.0754  0.2606 -0.5198
 6386TIP3    H240574   2.982   6.379   3.956  0.7620  0.1417 -0.6735
 6387TIP3   OH240575   0.316   4.609  16.040 -0.8953 -0.1411  0.7106
 6387TIP3    H140576   0.227   4.644  16.053 -0.0979  1.9119  1.0669
 6387TIP3    H240577   0.371   4.687  16.031  0.9892 -1.3520  1.1819
 6388TIP3   OH240578   3.447   4.242  13.590  0.2308  0.1850  0.2616
 6388TIP3    H140579   3.458   4.286  13.673  1.3929 -0.2086  0.3325
 6388TIP3    H240580   3.371   4.185  13.603 -0.3491  1.0325  0.6428
 6389TIP3   OH240581   3.548   5.537   2.040  0.3656  0.3621  0.4517
 6389TIP3    H140582   3.606   5.461   2.036  0.4300  0.4325 -0.0371
 6389TIP3    H240583   3.466   5.503   2.078  0.7867  0.3074  1.3428
 6390TIP3   OH240584   4.956   0.206   5.780 -0.3773 -0.2599 -0.0522
 6390TIP3    H140585   4.991   0.193   5.868 -0.6245  0.2180  0.1210
 6390TIP3    H240586   4.932   0.118   5.750 -0.5852 -0.3896  0.4866
 6391TIP3   OH240587   1.184   1.983  11.720 -0.4242 -0.0309 -0.0820
 6391TIP3    H140588   1.169   2.024  11.805 -0.8173 -0.2419 -0.0473
 6391TIP3    H240589   1.105   1.930  11.704  0.0827 -0.7851 -0.1220
 6392TIP3   OH240590   2.044   6.386   6.811 -0.3517 -0.7477  0.1847
 6392TIP3    H140591   2.001   6.367   6.728 -0.8976  1.6952 -0.1446
 6392TIP3    H240592   2.096   6.464   6.794  1.0737 -1.3163  1.6624
 6393TIP3   OH240593   4.387   4.863  12.178 -0.6556 -0.1334 -0.5219
 6393TIP3    H140594   4.345   4.894  12.098  0.2879 -0.3470 -1.1177
 6393TIP3    H240595   4.442   4.936  12.207 -0.7196 -0.1834 -0.2682
 6394TIP3   OH240596   0.603   6.282  13.301 -0.3438  0.1763 -0.7121
 6394TIP3    H140597   0.567   6.328  13.225  0.5616 -0.4570 -1.5537
 6394TIP3    H240598   0.532   6.284  13.365 -1.4093  0.1131 -1.8311
 6395TIP3   OH240599   2.075   0.343  16.180 -0.0214  0.2081 -0.3731
 6395TIP3    H140600   2.002   0.393  16.216  1.2183  0.7022  1.6056
 6395TIP3    H240601   2.116   0.402  16.117  0.4406  1.1025  0.7325
 6396TIP3   OH240602   5.921   1.157  17.048 -0.0963  0.7034 -0.1842
 6396TIP3    H140603   5.897   1.137  17.139 -0.3398  0.0417 -0.3895
 6396TIP3    H240604   6.016   1.149  17.047 -0.2333 -1.3519 -0.4489
 6397TIP3   OH240605   0.197   0.315   2.974  0.2886 -0.2796  0.4784
 6397TIP3    H140606   0.183   0.321   3.068  0.7645  0.8422  0.4928
 6397TIP3    H240607   0.201   0.221   2.956 -1.6578 -0.5591  1.2830
 6398TIP3   OH240608   0.867   1.526  14.603  0.3928 -0.0491  0.1436
 6398TIP3    H140609   0.901   1.615  14.610  0.7976 -0.0704 -1.3485
 6398TIP3    H240610   0.924   1.483  14.540 -0.4218 -1.0657  0.0696
 6399TIP3   OH240611   5.415   3.134   0.128  0.2265 -0.0473 -0.3801
 6399TIP3    H140612   5.348   3.100   0.068  0.5390  1.0405 -1.3567
 6399TIP3    H240613   5.494   3.084   0.107  0.5605  0.9095 -1.4896
 6400TIP3   OH240614   3.825   5.699  11.497 -0.3487 -0.4435 -0.0384
 6400TIP3    H140615   3.858   5.635  11.434  1.1230 -0.7586  1.0042
 6400TIP3    H240616   3.775   5.648  11.560  0.6357 -0.5601  0.6669
 6401TIP3   OH240617   0.862   6.468  13.835  0.0279 -0.1164  0.0029
 6401TIP3    H140618   0.929   6.528  13.802 -1.6239  1.6858 -0.2194
 6401TIP3    H240619   0.779   6.512  13.817 -1.1501 -1.2446  2.2643
 6402TIP3   OH240620   2.216   3.840   5.204 -0.1026  0.0276  0.1126
 6402TIP3    H140621   2.279   3.890   5.256  0.8984 -1.4728  0.4170
 6402TIP3    H240622   2.134   3.889   5.212  0.4696  0.8133  1.5938
 6403TIP3   OH240623   5.012   2.285  13.999  0.4065 -0.5869  0.1165
 6403TIP3    H140624   5.071   2.326  13.936 -0.8680  1.8300  0.3722
 6403TIP3    H240625   5.033   2.327  14.082 -1.3799  0.0695  0.2776
 6404TIP3   OH240626   2.923   5.610   1.292 -0.0864  0.3736  0.1944
 6404TIP3    H140627   3.012   5.606   1.327 -0.4162  0.4168  1.0726
 6404TIP3    H240628   2.890   5.695   1.320 -0.4573  0.2880  0.0255
 6405TIP3   OH240629   0.641   3.443   3.746 -0.2202  0.2000 -0.1106
 6405TIP3    H140630   0.732   3.453   3.773 -1.0017  2.4477  2.1682
 6405TIP3    H240631   0.631   3.350   3.727  2.0298 -0.5049  1.6908
 6406TIP3   OH240632   1.353   3.654  14.020  0.3724 -0.1393  0.3602
 6406TIP3    H140633   1.394   3.737  13.999  0.1380  0.3040  1.5651
 6406TIP3    H240634   1.260   3.666  13.999  0.3604 -0.1277  0.4169
 6407TIP3   OH240635   0.486   3.549  11.017  0.0822  0.7908 -0.0396
 6407TIP3    H140636   0.497   3.541  11.112 -1.3293 -0.8523  0.0441
 6407TIP3    H240637   0.396   3.520  11.002 -1.3732  5.2655 -1.4387
 6408TIP3   OH240638   5.634   6.726  14.574 -0.4442 -0.2619 -0.0635
 6408TIP3    H140639   5.590   6.810  14.588  0.7254  0.2681  0.4887
 6408TIP3    H240640   5.685   6.739  14.494  0.0907 -0.2936  0.2691
 6409TIP3   OH240641   4.135   3.721  16.976  0.2335 -0.5616 -0.0644
 6409TIP3    H140642   4.205   3.769  17.019  0.5238 -0.7286 -0.3494
 6409TIP3    H240643   4.160   3.629  16.984  0.1049 -0.6145 -0.2646
 6410TIP3   OH240644   0.191   4.854  12.346 -0.3523  0.1358  0.5000
 6410TIP3    H140645   0.154   4.920  12.406 -2.5779 -1.8585  1.4804
 6410TIP3    H240646   0.215   4.781  12.402 -1.8579 -1.5247 -0.8952
 6411TIP3   OH240647   2.944   0.678   4.378 -0.1139  0.1070 -0.3745
 6411TIP3    H140648   2.874   0.628   4.421  0.5903  0.3526  1.1517
 6411TIP3    H240649   2.898   0.738   4.320 -1.0803 -0.8829 -0.6760
 6412TIP3   OH240650   5.975   6.433  13.030  0.3563  0.2073  0.0085
 6412TIP3    H140651   6.044   6.479  13.077  1.2919  0.6260 -1.6636
 6412TIP3    H240652   5.907   6.417  13.095  1.7530  0.3537  1.5628
 6413TIP3   OH240653   6.124   4.982  12.439 -0.1147  0.3474  0.5275
 6413TIP3    H140654   6.174   5.058  12.470 -2.9269  2.3673  0.5144
 6413TIP3    H240655   6.137   4.915  12.506  1.7948  1.0901  0.9563
 6414TIP3   OH240656   2.150   4.802  13.796 -0.0189  0.3188 -0.5705
 6414TIP3    H140657   2.155   4.834  13.706 -0.1540  0.8667 -0.3840
 6414TIP3    H240658   2.125   4.879  13.848  2.6361  0.6669  0.3186
 6415TIP3   OH240659   0.289   1.925  14.422 -0.2672  0.1206 -0.5968
 6415TIP3    H140660   0.303   2.019  14.433  1.4052 -0.2152  0.2995
 6415TIP3    H240661   0.363   1.895  14.370  0.0210 -0.9603  0.4067
 6416TIP3   OH240662   1.096   6.415  13.241  0.0322 -0.4086  0.3511
 6416TIP3    H140663   1.016   6.382  13.282 -0.4377 -0.2805 -0.4539
 6416TIP3    H240664   1.067   6.488  13.187  0.8841  0.4747  1.0689
 6417TIP3   OH240665   3.698   1.587   3.526  0.1359 -0.4380 -0.3049
 6417TIP3    H140666   3.717   1.681   3.528  0.5660 -0.5196 -0.6948
 6417TIP3    H240667   3.608   1.581   3.559 -1.0160  0.3842 -3.0036
 6418TIP3   OH240668   4.704   3.435  12.238  0.1907 -0.8227 -0.1103
 6418TIP3    H140669   4.625   3.386  12.260 -0.3935  0.6755  1.3022
 6418TIP3    H240670   4.750   3.446  12.321  0.0905  1.3403 -0.2736
 6419TIP3   OH240671   0.301   1.733  14.642  0.0521 -0.2250 -0.0574
 6419TIP3    H140672   0.286   1.798  14.573  0.8449  0.6954  0.6162
 6419TIP3    H240673   0.273   1.776  14.722 -1.4991 -1.5245  0.1555
 6420TIP3   OH240674   0.962   2.938   6.074  0.3183 -0.4384 -0.0409
 6420TIP3    H140675   0.970   3.003   6.143 -0.6945  0.5148 -0.7701
 6420TIP3    H240676   0.897   2.875   6.107 -0.7480  0.4397 -0.4033
 6421TIP3   OH240677   2.685   5.212   4.570 -0.3659  0.5685 -0.6072
 6421TIP3    H140678   2.754   5.271   4.600  1.2741 -0.8030 -1.4614
 6421TIP3    H240679   2.732   5.143   4.523 -2.4008 -0.0167 -1.9207
 6422TIP3   OH240680   6.456   6.086   1.660 -0.1380  0.1625 -0.2311
 6422TIP3    H140681   6.424   6.176   1.665  0.5852  0.4084  0.0532
 6422TIP3    H240682   6.382   6.036   1.626 -1.3558  0.4556  1.8084
 6423TIP3   OH240683   4.808   3.437  12.482 -0.8432  0.1705 -0.0549
 6423TIP3    H140684   4.795   3.532  12.477 -4.1227 -0.1767  0.1018
 6423TIP3    H240685   4.778   3.413  12.570 -1.9114 -1.2182 -0.7598
 6424TIP3   OH240686   5.969   2.850   1.722 -0.1156 -0.0529  0.1495
 6424TIP3    H140687   6.061   2.829   1.711 -0.1631  0.0076 -0.4206
 6424TIP3    H240688   5.926   2.765   1.737 -0.1602 -0.2647 -1.0614
 6425TIP3   OH240689   0.318   0.835   0.217  0.1432 -0.2893 -0.2214
 6425TIP3    H140690   0.249   0.901   0.220  1.1658  0.8832 -1.3936
 6425TIP3    H240691   0.394   0.878   0.256  0.5207 -1.1849  0.0546
 6426TIP3   OH240692   1.959   6.419  12.195 -0.1822 -0.6077 -0.1567
 6426TIP3    H140693   2.015   6.453  12.125  0.5039 -2.8209 -0.7437
 6426TIP3    H240694   1.878   6.469  12.186  0.2072 -0.2219 -1.9898
 6427TIP3   OH240695   0.967   1.116   1.093  0.2830 -0.3368 -0.0967
 6427TIP3    H140696   0.884   1.161   1.109  0.5003  0.1293 -0.2555
 6427TIP3    H240697   1.005   1.163   1.019  0.1445 -1.2977 -0.7962
 6428TIP3   OH240698   5.840   1.575   1.519  0.0481 -1.2147 -0.0305
 6428TIP3    H140699   5.883   1.634   1.458 -0.4627 -1.8632 -1.0498
 6428TIP3    H240700   5.810   1.631   1.591 -2.1139  0.1051 -1.8623
 6429TIP3   OH240701   0.696   5.583  12.380 -1.1412  0.4342 -0.4941
 6429TIP3    H140702   0.690   5.524  12.304  1.4209 -0.8789  0.2179
 6429TIP3    H240703   0.784   5.619  12.376 -1.1484  0.7877  1.5487
 6430TIP3   OH240704   4.496   2.304   0.801  0.2080  0.2233 -0.3955
 6430TIP3    H140705   4.580   2.302   0.755  1.0500 -1.7153  1.0824
 6430TIP3    H240706   4.448   2.229   0.765 -0.5084  0.7428 -0.5305
 6431TIP3   OH240707   4.342   4.658   5.586 -0.3314 -0.1268  0.3029
 6431TIP3    H140708   4.411   4.623   5.530  0.4901 -0.9579  1.7631
 6431TIP3    H240709   4.334   4.594   5.658 -1.3682  0.8600  1.1184
 6432TIP3   OH240710   4.979   3.829   0.407 -0.0311 -0.3066  0.3623
 6432TIP3    H140711   4.887   3.857   0.408 -0.0555  0.1255 -2.8342
 6432TIP3    H240712   4.977   3.741   0.445 -1.4997  0.2394  1.6571
 6433TIP3   OH240713   1.266   2.512   3.726  0.2385  0.1417  0.0166
 6433TIP3    H140714   1.194   2.521   3.788  0.5717  0.2851  0.3863
 6433TIP3    H240715   1.266   2.420   3.702  0.8229 -0.1451  1.0992
 6434TIP3   OH240716   5.410   6.179   0.544 -0.2139  0.2570  0.3914
 6434TIP3    H140717   5.317   6.183   0.522  0.1045  0.4180 -1.0720
 6434TIP3    H240718   5.440   6.097   0.505  0.3596  0.4623  0.3936
 6435TIP3   OH240719   0.432   5.548   2.094  0.1735 -0.0715 -0.3975
 6435TIP3    H140720   0.392   5.516   2.013  0.1495 -2.9293  0.6263
 6435TIP3    H240721   0.358   5.581   2.146 -0.2126 -0.7513 -0.4953
 6436TIP3   OH240722   0.656   4.244  12.622 -0.8060  0.1473  0.3154
 6436TIP3    H140723   0.675   4.301  12.547  0.1947  1.0585  1.2286
 6436TIP3    H240724   0.678   4.156  12.591  0.9017  0.6628 -0.0645
 6437TIP3   OH240725   4.871   2.566  12.813 -0.5476 -0.3717 -0.4076
 6437TIP3    H140726   4.931   2.535  12.881 -1.3477  0.3675  0.6696
 6437TIP3    H240727   4.909   2.649  12.784 -0.0185 -0.8560 -1.1352
 6438TIP3   OH240728   3.800   4.327   1.578  0.2837 -0.0951  0.5171
 6438TIP3    H140729   3.881   4.348   1.625  0.0548 -1.2259  1.4687
 6438TIP3    H240730   3.801   4.231   1.570  0.5043  0.0473 -2.1677
 6439TIP3   OH240731   4.760   4.361   6.169  0.4372 -0.1610  0.2407
 6439TIP3    H140732   4.827   4.328   6.229 -0.0695 -0.2660  0.7636
 6439TIP3    H240733   4.730   4.443   6.209 -0.5865 -0.7170  0.6647
 6440TIP3   OH240734   2.032   4.958  16.608  0.3250 -0.5944  0.3796
 6440TIP3    H140735   2.127   4.964  16.600  0.5026 -2.6559  0.2795
 6440TIP3    H240736   2.017   4.867  16.635 -1.5766 -0.0944  1.1275
 6441TIP3   OH240737   1.923   2.721  14.554 -0.2150 -0.0572  0.3248
 6441TIP3    H140738   1.908   2.672  14.473  0.9523  1.8100 -1.1038
 6441TIP3    H240739   1.836   2.755  14.578 -0.6103 -0.8144  0.0079
 6442TIP3   OH240740   2.001   3.687   3.560  0.3259  0.5520  0.6193
 6442TIP3    H140741   1.918   3.720   3.526  1.2999  2.0846 -0.4213
 6442TIP3    H240742   1.994   3.696   3.655 -0.4814  1.2434  0.5021
 6443TIP3   OH240743   5.004   1.917  13.598  0.4206  0.0933  0.5587
 6443TIP3    H140744   5.042   1.881  13.518 -0.2698  0.8848 -0.1420
 6443TIP3    H240745   5.078   1.922  13.659  1.0098 -0.2712 -0.1129
 6444TIP3   OH240746   1.973   5.240  16.677 -0.3323 -0.3779 -0.3572
 6444TIP3    H140747   2.017   5.293  16.744 -2.0985  0.1904  0.3973
 6444TIP3    H240748   1.948   5.159  16.723  0.2520 -0.8718 -0.8874
 6445TIP3   OH240749   4.279   5.053   3.659  0.0905  0.4608 -0.3286
 6445TIP3    H140750   4.250   4.962   3.657 -0.9977  0.7768  0.4028
 6445TIP3    H240751   4.228   5.096   3.590  0.9381  0.4369 -0.9878
 6446TIP3   OH240752   5.838   1.890  13.567  0.7274 -0.3847 -0.1076
 6446TIP3    H140753   5.918   1.868  13.616  0.7375 -0.1925 -0.0392
 6446TIP3    H240754   5.774   1.912  13.635 -0.3217 -3.4612  0.0696
 6447TIP3   OH240755   3.325   2.101   1.227 -0.3769  0.2334  0.3774
 6447TIP3    H140756   3.235   2.072   1.209  0.1287 -0.4454 -1.2910
 6447TIP3    H240757   3.353   2.144   1.146  1.7270 -2.0331 -0.2271
 6448TIP3   OH240758   2.269   4.782  15.587 -0.7164  0.3255  0.0470
 6448TIP3    H140759   2.309   4.741  15.664  1.2274  0.3932 -0.8677
 6448TIP3    H240760   2.237   4.708  15.535  0.7160  0.0533 -0.4985
 6449TIP3   OH240761   5.166   0.780   0.980 -0.1215  0.0814 -0.2701
 6449TIP3    H140762   5.219   0.778   0.901  0.5483 -0.9279  0.1802
 6449TIP3    H240763   5.225   0.749   1.049 -0.1339  2.6115  0.9868
 6450TIP3   OH240764   0.278   5.749  12.590 -0.5438  0.5618 -0.7252
 6450TIP3    H140765   0.262   5.781  12.501 -0.7045  1.2441 -0.4582
 6450TIP3    H240766   0.344   5.809  12.625  0.4791 -0.4746 -0.8152
 6451TIP3   OH240767   4.134   3.798  16.091 -0.2969  0.0837 -0.1091
 6451TIP3    H140768   4.224   3.829  16.101 -0.6469  1.4318 -0.8631
 6451TIP3    H240769   4.142   3.705  16.074  0.8131 -0.3979  2.5130
 6452TIP3   OH240770   6.429   1.930   1.790 -0.7492  0.0792 -0.2543
 6452TIP3    H140771   6.453   1.857   1.847 -2.0004 -0.0499  0.1249
 6452TIP3    H240772   6.402   2.000   1.850 -0.9147  0.3659 -0.6565
 6453TIP3   OH240773   3.336   4.515   0.036  0.0082 -0.3786  0.1869
 6453TIP3    H140774   3.337   4.423   0.011 -0.5187 -0.0995 -0.8973
 6453TIP3    H240775   3.243   4.538   0.042  0.0818 -0.3785  2.3045
 6454TIP3   OH240776   0.579   3.560   2.334  0.0389 -0.0021 -0.5640
 6454TIP3    H140777   0.493   3.585   2.368 -1.0617  0.3174 -3.3777
 6454TIP3    H240778   0.608   3.637   2.285  2.0854 -0.0316  0.5125
 6455TIP3   OH240779   3.932   5.640   2.584 -0.2720  0.8575 -0.3170
 6455TIP3    H140780   3.984   5.673   2.657  0.0310  0.7607 -0.4865
 6455TIP3    H240781   3.997   5.613   2.519 -0.4085 -1.9677  0.5910
 6456TIP3   OH240782   1.568   2.930   6.815 -0.0122 -0.2742  0.6809
 6456TIP3    H140783   1.493   2.978   6.781 -1.0166 -0.6362  2.3093
 6456TIP3    H240784   1.600   2.983   6.888  0.7896 -0.5597  0.5534
 6457TIP3   OH240785   4.695   5.246   0.668  0.1166 -0.3805 -0.6575
 6457TIP3    H140786   4.604   5.267   0.646  0.1182  0.3443 -0.0491
 6457TIP3    H240787   4.715   5.303   0.742  0.7555 -1.2368 -0.1466
 6458TIP3   OH240788   6.294   2.773  16.132 -0.3450 -0.3611  0.3123
 6458TIP3    H140789   6.215   2.761  16.185  0.2149 -0.6780  1.0797
 6458TIP3    H240790   6.356   2.708  16.165 -0.0017 -0.6173 -0.7685
 6459TIP3   OH240791   1.635   2.118  15.660  0.0179  0.0889  0.3422
 6459TIP3    H140792   1.582   2.087  15.587  1.3588 -1.2407 -0.1203
 6459TIP3    H240793   1.572   2.152  15.723 -1.3189 -0.6399 -0.5651
 6460TIP3   OH240794   6.413   5.562  12.907 -0.5153 -0.2143  0.0716
 6460TIP3    H140795   6.408   5.482  12.960  0.9491  1.4621  2.9449
 6460TIP3    H240796   6.475   5.540  12.837  0.6160 -1.3305  1.3678
 6461TIP3   OH240797   2.160   0.839   6.149  0.0944  0.1156 -0.9681
 6461TIP3    H140798   2.198   0.866   6.232 -1.8163  1.8234 -0.5729
 6461TIP3    H240799   2.112   0.758   6.168  2.0879 -1.1900 -1.1456
 6462TIP3   OH240800   4.697   0.692   4.175 -0.1537 -0.4597  0.1716
 6462TIP3    H140801   4.711   0.700   4.270 -0.8729 -1.1396  0.3449
 6462TIP3    H240802   4.631   0.758   4.155 -1.3152 -1.4851  0.4735
 6463TIP3   OH240803   2.297   0.838  13.431 -0.2406  0.2457  0.3821
 6463TIP3    H140804   2.384   0.867  13.403  0.9997 -0.5200  3.0822
 6463TIP3    H240805   2.246   0.832  13.350  2.2418  0.6103 -1.3195
 6464TIP3   OH240806   4.239   3.223   0.652 -0.4050 -0.1147  0.4567
 6464TIP3    H140807   4.219   3.315   0.669  0.7402  0.4365 -0.9458
 6464TIP3    H240808   4.213   3.177   0.732  0.3726  1.6316  1.7821
 6465TIP3   OH240809   3.338   6.371  15.069 -0.0881 -0.5946  0.0823
 6465TIP3    H140810   3.315   6.415  15.151  0.2915 -0.5149  0.1470
 6465TIP3    H240811   3.274   6.404  15.006 -1.9837 -2.5116  0.8678
 6466TIP3   OH240812   2.076   5.245  15.021  1.0412  0.4906 -0.1123
 6466TIP3    H140813   2.113   5.305  14.956  1.1963 -0.9352 -1.3802
 6466TIP3    H240814   1.987   5.278  15.036  0.9950  0.8128 -1.0710
 6467TIP3   OH240815   1.446   1.494  11.794 -0.4512 -0.4839 -0.5497
 6467TIP3    H140816   1.403   1.544  11.863 -0.1572 -0.5019 -0.3496
 6467TIP3    H240817   1.505   1.557  11.752  0.7705 -0.9210  0.4388
 6468TIP3   OH240818   1.435   0.078  13.356  0.4238  0.3829 -0.1349
 6468TIP3    H140819   1.451   0.161  13.400 -1.9245  0.9086 -0.1216
 6468TIP3    H240820   1.497   0.016  13.395  0.9644  1.7040  1.1578
 6469TIP3   OH240821   1.432   3.203  14.342  0.2433  0.2324 -0.0603
 6469TIP3    H140822   1.378   3.261  14.289  0.4809  0.4898 -0.0196
 6469TIP3    H240823   1.513   3.193  14.292 -0.3756 -1.3296 -0.8572
 6470TIP3   OH240824   3.196   3.568  11.471  0.0600  0.2822  0.1587
 6470TIP3    H140825   3.283   3.558  11.510  0.2918 -2.0351 -0.7894
 6470TIP3    H240826   3.212   3.563  11.376 -1.1887 -1.3316 -0.0051
 6471TIP3   OH240827   1.672   4.208  11.788  0.6795  0.8640 -0.0844
 6471TIP3    H140828   1.662   4.240  11.698  2.8230  2.6684  0.2283
 6471TIP3    H240829   1.649   4.282  11.843  2.4916  0.8755  0.7510
 6472TIP3   OH240830   0.103   5.652   5.344  0.0062  0.1026 -0.0788
 6472TIP3    H140831   0.026   5.596   5.352 -0.4364  0.7207  0.1063
 6472TIP3    H240832   0.177   5.594   5.359 -0.4029 -0.5694 -0.5885
 6473TIP3   OH240833   4.370   2.058  11.673 -0.4204  0.7617  0.3875
 6473TIP3    H140834   4.465   2.071  11.682 -0.1056 -0.2491 -0.9860
 6473TIP3    H240835   4.337   2.143  11.643 -0.3334  1.7713  2.8810
 6474TIP3   OH240836   1.205   0.599  16.526  0.0244  0.0458  0.3319
 6474TIP3    H140837   1.174   0.550  16.603 -0.6530  0.7564  0.5291
 6474TIP3    H240838   1.158   0.683  16.531  1.1170  0.6940 -0.0339
 6475TIP3   OH240839   2.588   5.296  11.809 -0.1171 -0.4852 -0.1518
 6475TIP3    H140840   2.649   5.332  11.874 -0.7072  0.1715  0.0464
 6475TIP3    H240841   2.516   5.359  11.806 -1.6590 -2.0996  0.9010
 6476TIP3   OH240842   3.746   1.545   0.950 -0.4806  0.0515 -0.6251
 6476TIP3    H140843   3.798   1.525   0.872  1.7195  2.3024  0.1092
 6476TIP3    H240844   3.672   1.597   0.917 -0.2373 -0.0485 -1.3374
 6477TIP3   OH240845   4.988   1.117  17.054  0.4986  0.4603 -0.1338
 6477TIP3    H140846   5.079   1.098  17.032  0.4975  0.9639 -0.5877
 6477TIP3    H240847   4.991   1.194  17.110  0.3953  0.0364  0.4733
 6478TIP3   OH240848   3.862   1.157   5.100  0.1693  0.1997  0.3408
 6478TIP3    H140849   3.777   1.131   5.066  0.1864  0.0677  0.3971
 6478TIP3    H240850   3.843   1.199   5.184 -0.1760  3.3421 -1.1714
 6479TIP3   OH240851   4.144   5.823   3.377 -0.3482 -0.2248 -0.2673
 6479TIP3    H140852   4.223   5.773   3.356  2.6872  2.7697  2.5943
 6479TIP3    H240853   4.130   5.879   3.300  1.4781  0.3869 -0.2140
 6480TIP3   OH240854   1.652   6.506  15.634  0.7087 -0.3746 -0.0958
 6480TIP3    H140855   1.631   6.477  15.723  2.0482 -1.4176 -0.0826
 6480TIP3    H240856   1.747   6.512  15.632  0.8198 -1.7576 -1.8455
 6481TIP3   OH240857   3.949   1.387  11.617 -0.0509  0.1375 -0.0586
 6481TIP3    H140858   3.939   1.435  11.535  0.4218 -0.1556 -0.2936
 6481TIP3    H240859   3.860   1.377  11.650 -0.2475  0.2219 -0.5571
 6482TIP3   OH240860   1.018   1.247  17.309 -0.1306  0.2223  0.1905
 6482TIP3    H140861   1.026   1.155  17.334 -0.0886 -0.2609 -1.5249
 6482TIP3    H240862   1.103   1.285  17.331 -0.4163  0.0750  1.6703
 6483TIP3   OH240863   6.489   6.564   4.724 -0.2706  0.0296  0.3311
 6483TIP3    H140864   6.394   6.565   4.715 -0.1655 -0.1610 -0.9815
 6483TIP3    H240865   6.512   6.471   4.720  0.0022  0.1002  0.2413
 6484TIP3   OH240866   5.422   2.182   6.326 -0.0194 -0.2411 -0.2033
 6484TIP3    H140867   5.350   2.224   6.374  0.4601  1.0896 -0.5823
 6484TIP3    H240868   5.414   2.089   6.346 -1.6293 -0.0808  0.0453
 6485TIP3   OH240869   4.694   4.228   2.871 -0.1924  0.1945 -0.2377
 6485TIP3    H140870   4.763   4.265   2.926  0.5818  0.9201 -1.6439
 6485TIP3    H240871   4.656   4.158   2.924  0.8492  0.5386  1.0140
 6486TIP3   OH240872   0.561   5.307  17.327 -0.2431  0.2128 -0.5004
 6486TIP3    H140873   0.574   5.393  17.286  0.7346 -1.1783 -3.4519
 6486TIP3    H240874   0.650   5.273  17.341 -0.5200 -1.5635 -2.5017
 6487TIP3   OH240875   1.143   4.991  13.800 -0.3684 -0.1256 -1.1107
 6487TIP3    H140876   1.212   5.041  13.844 -0.2868 -1.2356  0.1072
 6487TIP3    H240877   1.062   5.029  13.832 -0.3055 -0.5187 -0.4549
 6488TIP3   OH240878   0.259   0.187  11.241 -0.0446  0.7025  0.1947
 6488TIP3    H140879   0.341   0.140  11.257 -0.8641 -1.0430 -0.5000
 6488TIP3    H240880   0.200   0.154  11.309 -0.5861  0.8528 -0.2017
 6489TIP3   OH240881   5.486   1.813   6.609  0.0518  0.0297 -0.2239
 6489TIP3    H140882   5.529   1.899   6.610  0.4254 -0.1296 -1.4982
 6489TIP3    H240883   5.393   1.833   6.595 -0.6391  0.4544  3.6877
 6490TIP3   OH240884   0.515   3.919   3.773 -0.1134 -0.5043 -0.2379
 6490TIP3    H140885   0.451   3.895   3.706  0.1578 -1.3958 -0.1839
 6490TIP3    H240886   0.599   3.886   3.740  0.1289 -0.3666  0.2305
 6491TIP3   OH240887   3.035   2.665   2.135 -0.4925  0.0621  0.4732
 6491TIP3    H140888   3.074   2.753   2.139 -0.5462  0.1794 -0.9913
 6491TIP3    H240889   3.084   2.621   2.065 -1.2236 -0.6912  0.4274
 6492TIP3   OH240890   1.838   0.075  13.529  0.0503 -0.3528  0.8012
 6492TIP3    H140891   1.882  -0.003  13.562  1.0072 -0.8984 -1.5261
 6492TIP3    H240892   1.826   0.058  13.436 -1.5716  1.4536  0.6144
 6493TIP3   OH240893   6.254   3.742   1.140  0.0822 -0.1674 -0.5576
 6493TIP3    H140894   6.317   3.779   1.203 -0.5905  0.1633 -0.0664
 6493TIP3    H240895   6.276   3.785   1.057 -0.9553  1.7219  0.0843
 6494TIP3   OH240896   1.497   3.146  13.977  0.4696  1.2399  0.5040
 6494TIP3    H140897   1.408   3.165  14.009 -0.9422  0.4186 -2.5343
 6494TIP3    H240898   1.483   3.088  13.903  3.4833  2.2707 -1.0140
 6495TIP3   OH240899   6.089   1.320  16.358 -0.1166  0.5490  0.5424
 6495TIP3    H140900   6.126   1.241  16.396 -1.1100  0.7300  1.9246
 6495TIP3    H240901   6.101   1.388  16.425  0.3891  1.5145 -0.4717
 6496TIP3   OH240902   1.862   1.819  13.223 -0.1899  0.6455 -0.8202
 6496TIP3    H140903   1.775   1.852  13.204 -0.4054 -0.1131 -1.1752
 6496TIP3    H240904   1.878   1.843  13.314 -0.6761  0.9845 -0.8256
 6497TIP3   OH240905   5.613   0.548  14.519 -0.1140 -0.8071 -0.0285
 6497TIP3    H140906   5.617   0.622  14.458 -2.6644 -0.1228  0.5074
 6497TIP3    H240907   5.570   0.478  14.470 -0.7704 -0.7797  0.4968
 6498TIP3   OH240908   3.517   5.216  11.950  0.6070  0.0747  0.5192
 6498TIP3    H140909   3.544   5.160  12.022  1.1064 -0.0995  0.2009
 6498TIP3    H240910   3.430   5.247  11.975 -1.5054 -3.9031 -0.9911
 6499TIP3   OH240911   3.932   0.831   4.635  0.1648  0.5860  0.2804
 6499TIP3    H140912   3.911   0.743   4.664  0.4164  0.4321  0.0070
 6499TIP3    H240913   3.992   0.818   4.561 -0.6358  0.9538 -0.4484
 6500TIP3   OH240914   6.227   0.932   3.286 -0.3239  0.4799 -0.3808
 6500TIP3    H140915   6.157   0.997   3.291  0.4167  1.2735 -0.0287
 6500TIP3    H240916   6.290   0.961   3.352  0.5179  0.0098 -0.9768
 6501TIP3   OH240917   5.263   1.678  15.479  0.2680 -0.3309  0.2787
 6501TIP3    H140918   5.263   1.760  15.529 -0.6028  0.3670 -0.8089
 6501TIP3    H240919   5.177   1.640  15.496 -0.1839  0.0932 -0.9233
 6502TIP3   OH240920   5.454   0.685   0.233  0.3945 -0.4297 -0.4627
 6502TIP3    H140921   5.374   0.632   0.235 -0.3565  0.6432 -0.9790
 6502TIP3    H240922   5.522   0.625   0.204  0.2331 -1.8992  1.8904
 6503TIP3   OH240923   1.656   2.700  12.369 -0.1550 -0.0726  0.1039
 6503TIP3    H140924   1.692   2.612  12.365 -3.2264 -1.4168 -0.2994
 6503TIP3    H240925   1.567   2.692  12.335 -0.6105  3.1639  0.2111
 6504TIP3   OH240926   2.643   5.155   1.677  0.7027 -0.0170  0.4309
 6504TIP3    H140927   2.648   5.095   1.751 -0.0947 -1.1083 -0.3610
 6504TIP3    H240928   2.678   5.106   1.603 -0.3932  0.3014 -0.3373
 6505TIP3   OH240929   4.177   3.399  12.030 -0.3731 -0.0517  0.7181
 6505TIP3    H140930   4.172   3.408  12.125  1.2859  1.2090  0.7223
 6505TIP3    H240931   4.191   3.488  11.998  1.1515 -0.7123 -0.5459
 6506TIP3   OH240932   4.891   0.475   2.092 -0.4959  0.1892 -0.2084
 6506TIP3    H140933   4.931   0.412   2.151  0.3098  0.7181 -0.1858
 6506TIP3    H240934   4.858   0.545   2.149 -3.3121 -1.1516  0.0001
 6507TIP3   OH240935   1.222   3.898  11.998 -0.5921  0.2707 -0.3340
 6507TIP3    H140936   1.300   3.931  11.953  0.1797 -0.4133  0.4492
 6507TIP3    H240937   1.201   3.965  12.063 -0.8569  0.6041 -0.7598
 6508TIP3   OH240938   6.410   5.234  13.343  0.0463  0.6019  0.5345
 6508TIP3    H140939   6.453   5.162  13.297  0.7018 -0.9251  3.3100
 6508TIP3    H240940   6.321   5.202  13.360 -0.2035  1.1610  0.3137
 6509TIP3   OH240941   2.274   6.070  15.479 -0.1689  0.3191 -0.6536
 6509TIP3    H140942   2.343   6.013  15.445 -0.8591 -0.4967 -0.7173
 6509TIP3    H240943   2.263   6.137  15.411  2.0652  1.7713  0.3359
 6510TIP3   OH240944   4.868   1.185  12.184  0.5254 -0.5655  0.7076
 6510TIP3    H140945   4.784   1.169  12.227  0.2017 -1.1528 -0.1173
 6510TIP3    H240946   4.865   1.277  12.159 -0.5774 -0.9673 -0.7561
 6511TIP3   OH240947   1.219   5.480   4.978 -0.1960 -0.1755 -0.7212
 6511TIP3    H140948   1.267   5.526   4.909 -1.3153  1.6853 -0.3409
 6511TIP3    H240949   1.280   5.473   5.050  0.2548  0.0005 -1.0811
 6512TIP3   OH240950   2.273   6.669   0.412 -0.8022  0.0657 -0.0358
 6512TIP3    H140951   2.308   6.655   0.324  0.0076 -1.0981  0.4555
 6512TIP3    H240952   2.283   6.585   0.456 -1.5480  0.5285  1.0624
 6513TIP3   OH240953   5.305   3.995   0.863  0.0295  0.1874  0.3078
 6513TIP3    H140954   5.381   3.940   0.880  0.4994  0.7559  0.0708
 6513TIP3    H240955   5.282   3.976   0.772 -1.1551 -1.2292  0.8518
 6514TIP3   OH240956   6.263   1.380   1.119 -0.5368  0.2862  0.5828
 6514TIP3    H140957   6.183   1.411   1.076 -0.1433  1.4784  0.6711
 6514TIP3    H240958   6.287   1.301   1.071 -2.0714 -0.4243  0.9137
 6515TIP3   OH240959   4.937   3.180  12.185  0.0488 -0.2861  0.6436
 6515TIP3    H140960   4.963   3.239  12.256 -0.7372 -0.3543  0.9936
 6515TIP3    H240961   4.927   3.236  12.109 -2.6564  0.4068  1.4180
 6516TIP3   OH240962   3.142   0.771   2.948  0.6905  0.3916 -0.0074
 6516TIP3    H140963   3.100   0.708   3.007  0.2388  1.3736  0.7618
 6516TIP3    H240964   3.191   0.718   2.886  0.9672 -0.6892  1.0997
 6517TIP3   OH240965   2.007   5.564  10.924 -0.7477  0.3135  0.5436
 6517TIP3    H140966   1.981   5.583  11.014  1.5697  4.0112  0.6381
 6517TIP3    H240967   2.019   5.650  10.884 -2.6045 -1.1388 -3.7106
 6518TIP3   OH240968   1.310   2.002  17.290 -0.1902  0.0396 -0.9922
 6518TIP3    H140969   1.405   1.991  17.281 -0.4290 -1.6051 -1.9532
 6518TIP3    H240970   1.281   1.924  17.338 -1.2127 -0.2584 -2.0382
 6519TIP3   OH240971   6.606   0.276  14.603 -0.4632  0.0445  0.1004
 6519TIP3    H140972   6.687   0.324  14.622  0.4711 -1.9315  1.4979
 6519TIP3    H240973   6.636   0.189  14.578 -2.1491 -0.7078  0.5877
 6520TIP3   OH240974   4.321   6.681   4.534 -0.0623  0.3470  0.8355
 6520TIP3    H140975   4.288   6.753   4.589 -0.5494  0.6272  0.1960
 6520TIP3    H240976   4.362   6.725   4.460 -1.9234  0.0057 -0.4777
 6521TIP3   OH240977   1.026   6.450  16.187 -0.1634 -0.3727 -0.4459
 6521TIP3    H140978   0.960   6.381  16.177  0.1614 -0.8356  0.4028
 6521TIP3    H240979   0.977   6.532  16.181 -0.7197 -0.7004 -0.4451
 6522TIP3   OH240980   3.185   2.332   5.099 -0.0568  0.2514 -0.1295
 6522TIP3    H140981   3.153   2.267   5.160 -0.4227  1.2719  0.7938
 6522TIP3    H240982   3.110   2.353   5.044  0.0155  0.0299 -0.3159
 6523TIP3   OH240983   3.299   5.297  11.665 -0.1279  0.1653  0.5488
 6523TIP3    H140984   3.287   5.311  11.759 -0.1971 -0.7001  0.6746
 6523TIP3    H240985   3.325   5.383  11.631 -1.6836  0.8712  1.0856
 6524TIP3   OH240986   2.905   2.730  15.644 -0.0779 -0.1468  0.1579
 6524TIP3    H140987   2.832   2.782  15.678  0.4033  0.5099  0.2071
 6524TIP3    H240988   2.881   2.640  15.663 -1.2475 -0.0023 -0.5456
 6525TIP3   OH240989   3.134   0.457  13.549 -0.1170 -0.7243 -0.2587
 6525TIP3    H140990   3.171   0.525  13.493 -0.5038  0.8219  1.2822
 6525TIP3    H240991   3.077   0.407  13.491 -3.5748  3.1550 -0.6688
 6526TIP3   OH240992   4.040   1.118   0.436  0.0494  0.0547 -0.3107
 6526TIP3    H140993   4.046   1.091   0.344  0.7608  1.9021 -0.8539
 6526TIP3    H240994   3.949   1.147   0.446  0.6262  2.4518 -1.2781
 6527TIP3   OH240995   0.595   0.348  16.443  0.1364 -0.4293  0.9592
 6527TIP3    H140996   0.678   0.308  16.418  0.8257  1.6886 -0.4487
 6527TIP3    H240997   0.536   0.329  16.370  0.4127  0.8638  0.3706
 6528TIP3   OH240998   2.524   4.398   1.837  0.5331  0.4097 -0.4807
 6528TIP3    H140999   2.525   4.484   1.796 -1.4474  0.3316 -0.7969
 6528TIP3    H241000   2.434   4.368   1.828  0.8569 -1.1225  0.8298
 6529TIP3   OH241001   1.507   6.233   3.522  0.3046  0.4403 -0.6487
 6529TIP3    H141002   1.417   6.246   3.493  1.1764 -0.8971 -4.5987
 6529TIP3    H241003   1.502   6.157   3.580 -1.1896  0.8677 -0.1689
 6530TIP3   OH241004   0.939   1.470  11.133 -0.1545  0.3485 -0.0964
 6530TIP3    H141005   0.926   1.558  11.097  0.3471  0.0769 -0.9898
 6530TIP3    H241006   0.894   1.412  11.071 -1.3401  0.0299  1.0117
 6531TIP3   OH241007   3.791   2.515  13.707 -0.0673 -0.7367  0.3138
 6531TIP3    H141008   3.866   2.460  13.688  1.2411  0.9057  0.4473
 6531TIP3    H241009   3.828   2.591  13.752 -1.5794  0.9480 -1.1336
 6532TIP3   OH241010   0.499   2.710   6.066 -0.3142  0.2391 -0.2834
 6532TIP3    H141011   0.542   2.668   5.991  0.2240 -0.4958  0.4269
 6532TIP3    H241012   0.460   2.638   6.115 -0.4423  0.6934  0.2949
 6533TIP3   OH241013   6.314   3.054  11.269  0.2529 -0.5079  0.0525
 6533TIP3    H141014   6.296   3.011  11.352 -0.3263 -0.9378 -0.2848
 6533TIP3    H241015   6.400   3.095  11.281 -0.0098 -0.2244  0.9880
 6534TIP3   OH241016   4.294   0.471  10.937  0.2034  0.0760  0.2812
 6534TIP3    H141017   4.213   0.422  10.926  0.6622 -0.7179  0.3487
 6534TIP3    H241018   4.280   0.553  10.890 -0.4867 -0.2245 -0.0408
 6535TIP3   OH241019   5.995   4.928  15.822  0.1535 -0.3721 -0.2174
 6535TIP3    H141020   5.967   4.846  15.864 -1.2543  0.4091  0.4097
 6535TIP3    H241021   6.074   4.953  15.870  0.0625 -0.8768  0.2084
 6536TIP3   OH241022   3.581   2.546  15.115  0.2355  0.3193 -0.3286
 6536TIP3    H141023   3.567   2.577  15.205  1.0239 -0.4317  0.0759
 6536TIP3    H241024   3.512   2.588  15.064 -0.1246  0.8952  0.5981
 6537TIP3   OH241025   6.654   1.666  14.271  0.3888 -0.3770 -0.1460
 6537TIP3    H141026   6.687   1.755  14.282  0.8609 -0.1876 -2.5190
 6537TIP3    H241027   6.621   1.642  14.358  0.8394  1.8451  0.7224
 6538TIP3   OH241028   4.429   6.129   4.828 -0.0315 -0.1491  0.5777
 6538TIP3    H141029   4.449   6.204   4.884  0.1368  0.5523 -0.3955
 6538TIP3    H241030   4.465   6.152   4.743 -2.1943 -0.1985 -0.4194
 6539TIP3   OH241031   3.943   3.988   3.407  0.7500  0.1220 -0.1279
 6539TIP3    H141032   3.964   3.897   3.427  2.0239  0.3875 -0.1894
 6539TIP3    H241033   4.009   4.014   3.343  0.0915  0.9454 -0.4902
 6540TIP3   OH241034   1.057   2.676   3.513  0.1631 -0.0238  0.0343
 6540TIP3    H141035   1.070   2.607   3.448  0.9567 -0.3038  0.4778
 6540TIP3    H241036   1.007   2.634   3.583  0.8916 -0.2390  0.4347
 6541TIP3   OH241037   5.906   3.618   6.395  1.0693  0.4861  0.4117
 6541TIP3    H141038   5.917   3.587   6.485  1.8919 -0.7322 -0.0775
 6541TIP3    H241039   5.995   3.630   6.362  0.7724  1.4847 -0.0639
 6542TIP3   OH241040   4.366   0.664   1.417  0.5063  0.3438  0.1544
 6542TIP3    H141041   4.399   0.672   1.327 -0.6334  1.7038 -0.1748
 6542TIP3    H241042   4.329   0.750   1.436  2.3230  0.6766  2.6094
 6543TIP3   OH241043   3.640   1.586   2.085 -0.3469 -0.5244  0.1056
 6543TIP3    H141044   3.571   1.620   2.143 -1.3126 -0.8505 -0.8098
 6543TIP3    H241045   3.650   1.494   2.110  1.1489 -0.0201  1.5231
 6544TIP3   OH241046   0.269   4.165   5.633 -0.1416 -0.5831  0.4533
 6544TIP3    H141047   0.358   4.148   5.663  0.3612 -0.4892 -0.9238
 6544TIP3    H241048   0.224   4.082   5.647  0.3691 -0.8695  0.4299
 6545TIP3   OH241049   0.042   5.386   1.056  0.2713 -0.5268 -0.0985
 6545TIP3    H141050   0.020   5.345   0.972  0.2643  2.0470 -1.4641
 6545TIP3    H241051  -0.028   5.449   1.072  0.4276 -0.7511  1.7277
 6546TIP3   OH241052   2.853   0.940  14.645 -0.3910 -0.0816  0.2704
 6546TIP3    H141053   2.902   1.011  14.604  0.6833 -1.4444 -0.8846
 6546TIP3    H241054   2.801   0.902  14.575  1.1244 -2.1521  0.1703
 6547TIP3   OH241055   5.329   6.435  10.427 -0.3433 -0.4557 -0.2474
 6547TIP3    H141056   5.349   6.380  10.351 -1.6794 -1.3666  0.0226
 6547TIP3    H241057   5.248   6.481  10.403  0.1320  0.5306 -0.0141
 6548TIP3   OH241058   0.335   0.484   1.957  0.0171 -0.5246  0.2199
 6548TIP3    H141059   0.360   0.392   1.965 -1.0153 -1.0092 -1.5756
 6548TIP3    H241060   0.394   0.519   1.890 -2.7965 -1.2765 -2.8868
 6549TIP3   OH241061   1.358   5.686  11.707  0.6021  0.0528  0.1036
 6549TIP3    H141062   1.302   5.621  11.666  2.0237 -0.5850 -0.8893
 6549TIP3    H241063   1.307   5.719  11.781 -0.4305 -1.6554  0.1894
 6550TIP3   OH241064   2.446   3.492  15.237  0.1092  0.3024 -0.7518
 6550TIP3    H141065   2.395   3.522  15.161  0.5835 -0.6917 -1.4772
 6550TIP3    H241066   2.407   3.408  15.260  0.2843  0.3739 -0.1813
 6551TIP3   OH241067   0.011   2.762  12.593  1.0018  0.6400 -0.0141
 6551TIP3    H141068  -0.064   2.703  12.586  1.1947  0.4591 -0.6607
 6551TIP3    H241069  -0.027   2.848  12.613  0.8060  0.0491  2.4512
 6552TIP3   OH241070   5.214   5.166  12.654 -0.0767 -0.3686 -0.0731
 6552TIP3    H141071   5.287   5.227  12.663  0.5417 -1.0307 -0.4962
 6552TIP3    H241072   5.158   5.205  12.587 -0.1291  0.1553  0.2718
 6553TIP3   OH241073   6.450   3.790   5.322  0.3520  0.1790  0.2207
 6553TIP3    H141074   6.418   3.878   5.300 -0.5819  0.2689  1.8007
 6553TIP3    H241075   6.424   3.736   5.248 -0.2506  0.9786 -0.1667
 6554TIP3   OH241076   6.764   4.057   5.644 -0.1611 -0.0690  0.3034
 6554TIP3    H141077   6.684   4.110   5.640 -1.3021 -1.7197  0.1496
 6554TIP3    H241078   6.764   4.021   5.732  1.3562  1.2387  0.8853
 6555TIP3   OH241079   4.814   5.545   6.802 -0.1414  0.4622 -0.3017
 6555TIP3    H141080   4.803   5.469   6.860 -3.5410  0.4914 -0.7247
 6555TIP3    H241081   4.838   5.507   6.718  1.0637  0.1321  0.1668
 6556TIP3   OH241082   2.070   3.350   2.492 -0.3083  0.3381  0.5018
 6556TIP3    H141083   2.137   3.284   2.476 -0.4096  0.3591 -0.0387
 6556TIP3    H241084   2.071   3.364   2.587 -0.6105 -0.7697  0.6741
 6557TIP3   OH241085   6.398   5.653  10.342  1.0131  0.2488 -0.1493
 6557TIP3    H141086   6.490   5.628  10.340  1.3171  1.3587 -1.1776
 6557TIP3    H241087   6.395   5.736  10.296 -0.4546  0.4302  0.2304
 6558TIP3   OH241088   5.752   4.310   4.836 -0.1746 -0.0512 -0.4101
 6558TIP3    H141089   5.744   4.363   4.757  1.0375  1.3270  0.3400
 6558TIP3    H241090   5.662   4.297   4.866 -0.5283  3.9251  0.8054
 6559TIP3   OH241091   5.599   5.829  13.541  0.1599 -0.0993  0.1700
 6559TIP3    H141092   5.627   5.805  13.453  0.6429  1.8142 -0.2361
 6559TIP3    H241093   5.660   5.782  13.599  1.2500  0.3237 -0.5879
 6560TIP3   OH241094   4.964   1.086   3.797  0.2848  0.2604  0.1736
 6560TIP3    H141095   5.016   1.161   3.827  1.9162 -0.9801  0.6073
 6560TIP3    H241096   4.873   1.114   3.808  0.8283  1.4133  2.3484
 6561TIP3   OH241097   1.587   3.875  13.863  0.7183 -0.7307 -0.2131
 6561TIP3    H141098   1.616   3.965  13.845 -1.9113  0.2499  0.0414
 6561TIP3    H241099   1.574   3.836  13.777  0.3018 -0.3104 -0.3439
 6562TIP3   OH241100   0.025   4.989  13.482  0.3582 -0.0164 -0.0073
 6562TIP3    H141101   0.005   5.065  13.537 -0.3246 -1.3309  1.6288
 6562TIP3    H241102  -0.037   4.922  13.509  0.4824 -0.9629 -1.9068
 6563TIP3   OH241103   3.436   4.152   4.942 -0.3240  0.1631 -0.5544
 6563TIP3    H141104   3.517   4.201   4.929  0.2011  0.1353  2.0275
 6563TIP3    H241105   3.370   4.200   4.893  0.7962  1.6205 -0.7055
 6564TIP3   OH241106   4.039   1.123  11.533 -0.3112  0.0961 -0.3262
 6564TIP3    H141107   3.988   1.204  11.535  0.7175  0.8009 -1.4031
 6564TIP3    H241108   4.055   1.106  11.441  1.0909 -0.2872 -0.0433
 6565TIP3   OH241109   0.350   3.802  16.276 -0.0981  0.3217 -0.0608
 6565TIP3    H141110   0.282   3.849  16.324 -0.2559 -1.3681  1.4555
 6565TIP3    H241111   0.421   3.789  16.339 -0.7303 -2.8502  0.1683
 6566TIP3   OH241112   0.963   0.531  15.842  0.0367  0.5336  0.9032
 6566TIP3    H141113   0.874   0.527  15.808 -0.4279  0.4995  2.0634
 6566TIP3    H241114   0.984   0.624  15.844  0.7186  0.4572 -1.0244
 6567TIP3   OH241115   1.602   6.518  14.672 -0.1834 -0.1538 -0.2626
 6567TIP3    H141116   1.531   6.580  14.657  0.3566  0.7071  0.6163
 6567TIP3    H241117   1.590   6.451  14.604 -1.4436  0.3054 -0.5218
 6568TIP3   OH241118   4.242   1.238   2.946 -0.7575 -0.6176  0.1238
 6568TIP3    H141119   4.232   1.331   2.926  1.3161 -0.1257  1.1288
 6568TIP3    H241120   4.225   1.194   2.862  0.3813  0.8477 -0.9351
 6569TIP3   OH241121   6.119   2.294  17.064 -0.5511 -0.4683  0.5306
 6569TIP3    H141122   6.147   2.223  17.007  0.0935 -0.4432  0.8079
 6569TIP3    H241123   6.041   2.260  17.109 -0.8257 -0.6302 -0.0634
 6570TIP3   OH241124   6.297   1.349  16.185  0.1482  0.4800  1.0576
 6570TIP3    H141125   6.219   1.324  16.235 -0.9939  0.3436 -0.7031
 6570TIP3    H241126   6.281   1.440  16.159  0.1151  0.1549 -0.1054
 6571TIP3   OH241127   4.165   4.301  14.931 -0.5163 -0.4881  0.0969
 6571TIP3    H141128   4.130   4.372  14.878  0.9320  0.5902  0.5242
 6571TIP3    H241129   4.260   4.305  14.917 -0.0859 -0.2816  2.5777
 6572TIP3   OH241130   6.016   4.009   3.562 -0.1355  0.0176 -0.1407
 6572TIP3    H141131   5.987   4.094   3.531 -3.1112 -0.1960  1.6683
 6572TIP3    H241132   6.056   4.026   3.647 -0.8653 -0.3733  0.2907
 6573TIP3   OH241133   6.766   2.439   0.423  0.7309 -0.1587  0.6404
 6573TIP3    H141134   6.793   2.474   0.338 -1.9059  0.1405 -0.1816
 6573TIP3    H241135   6.795   2.348   0.423  0.6854 -0.1863 -0.6324
 6574TIP3   OH241136   2.706   4.484  11.524  0.2078  0.2552  0.7628
 6574TIP3    H141137   2.616   4.466  11.498 -0.6638  0.8180  3.0893
 6574TIP3    H241138   2.700   4.565  11.575  2.0918  0.4742  0.6920
 6575TIP3   OH241139   4.089   6.253  14.796 -0.4190 -0.1889 -0.3849
 6575TIP3    H141140   4.032   6.283  14.868 -1.2610  1.1863 -1.5449
 6575TIP3    H241141   4.171   6.300  14.810 -0.4120 -0.3067 -0.0331
 6576TIP3   OH241142   0.113   2.805   6.120 -0.1931 -0.7884 -0.9012
 6576TIP3    H141143   0.153   2.719   6.113 -1.0707 -1.2712 -0.1402
 6576TIP3    H241144   0.040   2.794   6.182 -1.7902 -0.0735 -2.5371
 6577TIP3   OH241145   3.459   0.997   0.578  0.4554  0.2075 -0.2217
 6577TIP3    H141146   3.487   1.088   0.584  0.5516  0.1111  0.9759
 6577TIP3    H241147   3.528   0.955   0.526 -0.0949  0.9997 -1.6310
 6578TIP3   OH241148   3.549   1.972   0.948  0.2558  0.1752 -0.2398
 6578TIP3    H141149   3.499   2.050   0.974  0.0588  0.2003 -0.6821
 6578TIP3    H241150   3.638   1.991   0.975 -0.2057 -0.4959  1.9286
 6579TIP3   OH241151   0.172   3.266   5.773 -0.5167  0.0359 -0.1715
 6579TIP3    H141152   0.223   3.188   5.752  0.4612  0.4283  0.6635
 6579TIP3    H241153   0.135   3.294   5.689  1.6266  0.4276 -1.0495
 6580TIP3   OH241154   1.275   2.411   4.789  0.0366 -0.0036 -0.8281
 6580TIP3    H141155   1.355   2.449   4.826 -1.0237  1.2824  0.2437
 6580TIP3    H241156   1.291   2.412   4.694  1.1065  0.6608 -0.6652
 6581TIP3   OH241157   2.739   2.638   5.505  0.3646  0.4833 -1.0035
 6581TIP3    H141158   2.804   2.686   5.557 -1.9604  0.3978  2.3393
 6581TIP3    H241159   2.746   2.548   5.535 -0.4643  0.2425 -1.5060
 6582TIP3   OH241160   6.408   2.210   0.852 -0.7826  0.2177 -0.0763
 6582TIP3    H141161   6.481   2.179   0.906 -1.8263  0.1079  1.3351
 6582TIP3    H241162   6.432   2.299   0.828 -0.6092  0.5357  1.2103
 6583TIP3   OH241163   6.350   0.397  14.926  0.3793 -0.0435 -0.0685
 6583TIP3    H141164   6.440   0.399  14.957  0.7714 -1.4639 -1.0351
 6583TIP3    H241165   6.307   0.330  14.978  0.4017 -0.7200 -0.9000
 6584TIP3   OH241166   5.295   6.033  14.162 -0.0009  0.1046 -0.2632
 6584TIP3    H141167   5.346   6.013  14.083  0.0057 -0.8088 -0.0292
 6584TIP3    H241168   5.227   6.093  14.131  0.2090  0.0240 -0.9015
 6585TIP3   OH241169   0.969   2.024   5.650  0.6879  0.2885 -0.6212
 6585TIP3    H141170   0.894   1.995   5.599 -0.0276  1.0877 -0.0347
 6585TIP3    H241171   0.973   2.118   5.638  0.1292  0.5949  1.2551
 6586TIP3   OH241172   0.700   2.363  15.068 -0.7160  0.3786 -0.2208
 6586TIP3    H141173   0.748   2.354  15.151 -0.3989 -0.7260 -0.5101
 6586TIP3    H241174   0.766   2.395  15.006 -1.0387  1.5641  0.0124
 6587TIP3   OH241175   4.676   3.577   4.682 -0.0236  0.1902  0.1035
 6587TIP3    H141176   4.671   3.527   4.601 -0.3480 -0.5113  0.5395
 6587TIP3    H241177   4.657   3.667   4.657 -3.3086 -0.4503 -0.1973
 6588TIP3   OH241178   1.509   4.039   5.686 -0.0986  0.5516 -0.3314
 6588TIP3    H141179   1.459   3.982   5.743 -0.1023 -0.5769 -1.4234
 6588TIP3    H241180   1.448   4.064   5.616  0.3677  0.5592 -0.7452
 6589TIP3   OH241181   5.055   0.463   0.014 -0.3000 -0.4498 -0.2295
 6589TIP3    H141182   5.056   0.512   0.096 -3.5836 -0.1885 -0.2003
 6589TIP3    H241183   5.109   0.515  -0.046 -0.6887  1.2700  0.8261
 6590TIP3   OH241184   2.600   2.982   3.750  0.0746  0.2298  0.3223
 6590TIP3    H141185   2.654   2.978   3.672 -0.8840  0.0847 -0.3492
 6590TIP3    H241186   2.639   2.918   3.810  0.1723 -0.4449 -0.4550
 6591TIP3   OH241187   2.187   5.437   5.090  0.7233  0.6240 -0.0508
 6591TIP3    H141188   2.133   5.435   5.169 -0.6642  1.0156 -0.9549
 6591TIP3    H241189   2.225   5.349   5.085  0.2059  0.3522  0.6232
 6592TIP3   OH241190   5.303   1.519   0.954 -0.2881 -0.5789 -0.0245
 6592TIP3    H141191   5.250   1.444   0.978 -0.3872 -1.3500 -2.4145
 6592TIP3    H241192   5.371   1.483   0.896 -0.9630  1.2643 -2.0828
 6593TIP3   OH241193   2.141   4.680  16.364 -0.8611 -0.0185  0.5144
 6593TIP3    H141194   2.097   4.607  16.407  0.6776 -0.9525  0.5959
 6593TIP3    H241195   2.156   4.743  16.435 -0.0607 -0.7069  0.9834
 6594TIP3   OH241196   3.462   6.489  14.434  0.3823  0.6151  0.1360
 6594TIP3    H141197   3.474   6.492  14.529 -1.4607  0.3518  0.4143
 6594TIP3    H241198   3.465   6.396  14.412  0.1490  0.6243  0.0554
 6595TIP3   OH241199   1.147   6.456   5.783  0.7886 -0.3217  0.6777
 6595TIP3    H141200   1.052   6.468   5.781  0.9082  0.8127  1.1099
 6595TIP3    H241201   1.174   6.460   5.692  0.3552 -1.3766  0.4865
 6596TIP3   OH241202   3.905   0.308   0.566  0.3326 -0.1502 -0.5852
 6596TIP3    H141203   3.924   0.265   0.483 -0.3583  2.1972 -2.0551
 6596TIP3    H241204   3.979   0.284   0.622  1.7219 -0.4349 -2.4200
 6597TIP3   OH241205   2.638   6.288   0.298 -0.2319  0.4483 -0.3360
 6597TIP3    H141206   2.700   6.217   0.315 -1.4332 -0.3260  1.1599
 6597TIP3    H241207   2.569   6.248   0.245 -0.9891  0.4209  0.6385
 6598TIP3   OH241208   2.504   2.791   1.885 -0.7124 -0.2552  0.1951
 6598TIP3    H141209   2.483   2.736   1.960 -1.7745  0.3742  0.3678
 6598TIP3    H241210   2.539   2.872   1.923  0.9739 -0.8247 -0.0603
 6599TIP3   OH241211   3.950   5.201   3.729 -0.3171  0.7510 -0.1254
 6599TIP3    H141212   4.022   5.259   3.756 -0.2118  0.5369  0.0521
 6599TIP3    H241213   3.947   5.133   3.797 -0.5563  0.6478 -0.2402
 6600TIP3   OH241214   3.298   3.050   3.725  0.0229  0.5154 -0.2398
 6600TIP3    H141215   3.315   3.137   3.761 -0.1940  0.3032  0.3858
 6600TIP3    H241216   3.228   3.014   3.779  0.9272 -0.5311  0.3021
 6601TIP3   OH241217   0.627   4.194  13.102 -0.0646 -0.2458  0.5386
 6601TIP3    H141218   0.702   4.138  13.083 -0.3973 -0.5649  0.1353
 6601TIP3    H241219   0.594   4.221  13.016 -1.2550 -1.2497  0.6449
 6602TIP3   OH241220   4.883   2.980   4.218  0.0348  0.4664 -0.0143
 6602TIP3    H141221   4.913   2.990   4.128  2.3085 -1.4080  0.4357
 6602TIP3    H241222   4.888   3.068   4.255  0.3599  1.0222 -1.3325
 6603TIP3   OH241223   0.004   5.385  10.960  0.3516 -0.0182  0.0997
 6603TIP3    H141224   0.085   5.340  10.940  1.2469  0.4837  2.3357
 6603TIP3    H241225  -0.026   5.346  11.042 -2.3746 -1.0549 -1.2672
 6604TIP3   OH241226   3.501   6.131  12.201 -0.1121 -0.0586 -0.1040
 6604TIP3    H141227   3.422   6.076  12.199 -0.9951  1.1499  0.0266
 6604TIP3    H241228   3.535   6.127  12.112  1.0813 -2.4658  0.3637
 6605TIP3   OH241229   5.779   3.524  12.135  0.0993  0.1969  0.6063
 6605TIP3    H141230   5.702   3.579  12.148 -0.3443  0.2475 -1.7459
 6605TIP3    H241231   5.780   3.507  12.041  1.9593 -1.3002  0.8424
 6606TIP3   OH241232   1.703   2.909   0.816  0.5423 -0.0170  0.0022
 6606TIP3    H141233   1.707   2.843   0.747  0.7723  0.3334 -0.3268
 6606TIP3    H241234   1.667   2.863   0.892 -0.7334 -0.1450 -0.6542
 6607TIP3   OH241235   4.199   0.298   4.081  0.1349 -0.0934  0.0305
 6607TIP3    H141236   4.210   0.225   4.021  3.8500  0.5428 -0.3389
 6607TIP3    H241237   4.106   0.320   4.077 -0.2769 -1.8644 -3.3183
 6608TIP3   OH241238   6.171   4.579  11.683  0.1253  0.3386  0.3135
 6608TIP3    H141239   6.240   4.531  11.637  2.1139  1.9866  1.3981
 6608TIP3    H241240   6.188   4.671  11.661 -1.2862  0.8425  1.2085
 6609TIP3   OH241241   2.266   5.370  12.769 -0.6136 -0.0026  0.0077
 6609TIP3    H141242   2.284   5.346  12.860 -0.0089  1.9359  0.4436
 6609TIP3    H241243   2.239   5.461  12.772  0.1302  0.3396 -1.8279
 6610TIP3   OH241244   0.309   0.579  11.737 -0.0966  0.1734 -0.0481
 6610TIP3    H141245   0.311   0.497  11.788  1.4514  1.4027  2.0213
 6610TIP3    H241246   0.401   0.597  11.718 -0.2601  2.2436  0.9443
 6611TIP3   OH241247   5.747   1.889   3.935  0.0184  0.5088  0.0191
 6611TIP3    H141248   5.668   1.857   3.892  0.9956 -0.1026 -1.4171
 6611TIP3    H241249   5.758   1.978   3.900 -0.2722  0.7788  0.5909
 6612TIP3   OH241250   4.970   0.832   5.765  0.7082 -0.1500  0.2148
 6612TIP3    H141251   4.952   0.784   5.846 -1.0578 -0.6029 -0.3979
 6612TIP3    H241252   4.896   0.892   5.757  0.5764 -0.5010 -1.3333
 6613TIP3   OH241253   5.153   1.822   4.710 -0.3110  0.4207  0.3004
 6613TIP3    H141254   5.087   1.754   4.720  0.5398 -0.1310  3.1969
 6613TIP3    H241255   5.218   1.783   4.651 -0.9789 -0.3205  0.0291
 6614TIP3   OH241256   3.797   4.570  15.536 -0.7607 -0.0589  0.3918
 6614TIP3    H141257   3.859   4.621  15.589 -1.0850 -1.2289  1.9522
 6614TIP3    H241258   3.770   4.630  15.467  1.6380  0.6940  0.0212
 6615TIP3   OH241259   1.596   0.981  13.617  0.1503  0.7419 -0.0768
 6615TIP3    H141260   1.543   0.921  13.669  1.6272  0.3633  1.0796
 6615TIP3    H241261   1.574   1.068  13.651 -0.0328  0.6199  0.1229
 6616TIP3   OH241262   2.466   1.843   0.924  0.1027  0.3179  0.4401
 6616TIP3    H141263   2.552   1.857   0.965 -0.3519  0.8005  1.2749
 6616TIP3    H241264   2.486   1.800   0.841  1.1332  0.1718  0.7390
 6617TIP3   OH241265   4.335   2.962  14.905 -0.2266  0.1240 -0.6107
 6617TIP3    H141266   4.408   2.949  14.844 -0.0459 -1.9198 -0.0165
 6617TIP3    H241267   4.337   2.885  14.961 -2.1931  0.5672  0.1236
 6618TIP3   OH241268   3.739   6.010  12.278 -0.2076 -0.0565  0.0954
 6618TIP3    H141269   3.711   5.919  12.275 -0.6191 -0.0556  2.3410
 6618TIP3    H241270   3.658   6.061  12.273 -0.0095  0.2039 -0.7138
 6619TIP3   OH241271   4.314   5.741  15.181 -0.0195  0.5642  0.0847
 6619TIP3    H141272   4.312   5.657  15.134 -0.0295  0.2988  0.5538
 6619TIP3    H241273   4.356   5.720  15.264 -0.6460  0.8792  0.4844
 6620TIP3   OH241274   2.296   3.576   1.750 -0.5011 -0.1103  0.0979
 6620TIP3    H141275   2.261   3.640   1.688 -0.2633 -0.6977 -0.6565
 6620TIP3    H241276   2.233   3.576   1.822 -0.9108  0.4068 -0.2526
 6621TIP3   OH241277   3.487   0.425  13.761  0.3805  0.0425  0.2044
 6621TIP3    H141278   3.526   0.381  13.836 -2.1532 -1.7216  0.6439
 6621TIP3    H241279   3.427   0.359  13.724 -0.9972  2.0112 -1.2600
 6622TIP3   OH241280   5.678   6.496   1.309  0.2263 -0.1530 -0.3753
 6622TIP3    H141281   5.684   6.423   1.370 -1.9636 -1.4199 -1.5662
 6622TIP3    H241282   5.635   6.566   1.358  2.7205  0.6233  0.9054
 6623TIP3   OH241283   0.917   1.654   1.780  0.5313 -0.8768  0.2199
 6623TIP3    H141284   0.951   1.592   1.716 -1.0798 -0.1042 -1.4738
 6623TIP3    H241285   0.832   1.618   1.805  0.5186 -0.4261  0.8478
 6624TIP3   OH241286   6.091   4.184  10.732 -0.2785 -0.3411 -0.3711
 6624TIP3    H141287   5.998   4.169  10.746 -0.5000  0.1333 -1.2554
 6624TIP3    H241288   6.108   4.267  10.777 -0.1669 -0.6800  0.2186
 6625TIP3   OH241289   4.033   1.798  16.323  0.3546  0.0937  0.4451
 6625TIP3    H141290   4.105   1.859  16.308 -1.1847  2.1046  0.7721
 6625TIP3    H241291   4.073   1.711  16.318  2.6092  1.1073 -0.2224
 6626TIP3   OH241292   3.391   6.195  10.937  0.0937 -0.3809 -0.2717
 6626TIP3    H141293   3.422   6.284  10.923  0.0995 -0.2095  0.7351
 6626TIP3    H241294   3.296   6.201  10.925  0.1110 -0.2690 -0.3517
 6627TIP3   OH241295   6.315   1.164  15.672  0.2296  0.1522 -0.2457
 6627TIP3    H141296   6.245   1.205  15.722  0.0585 -0.6610  0.2058
 6627TIP3    H241297   6.395   1.191  15.717  0.0616 -0.7909  0.6502
 6628TIP3   OH241298   6.553   1.012   0.306 -0.4471  0.0657 -0.4359
 6628TIP3    H141299   6.483   1.075   0.321  0.1258  0.2474  1.8107
 6628TIP3    H241300   6.633   1.061   0.326  0.0894 -1.0035  0.1044
 6629TIP3   OH241301   2.285   0.701  13.763 -0.2832  0.5962  0.5338
 6629TIP3    H141302   2.308   0.664  13.849 -0.7415 -0.9734  0.0256
 6629TIP3    H241303   2.294   0.795  13.774  2.5166  0.3014  1.4804
 6630TIP3   OH241304   0.898   4.765  11.199  0.4840  1.1376  0.1785
 6630TIP3    H141305   0.883   4.860  11.195  1.9592  1.6173  3.0936
 6630TIP3    H241306   0.810   4.728  11.212 -0.1419  2.0365 -1.2600
 6631TIP3   OH241307   4.467   5.746   1.862 -0.1262  0.2615  0.0624
 6631TIP3    H141308   4.395   5.743   1.924  0.3944 -0.4041  0.6533
 6631TIP3    H241309   4.531   5.805   1.902  1.3920 -2.1901  1.5393
 6632TIP3   OH241310   4.783   0.391   1.500 -0.2502  0.1522  0.0420
 6632TIP3    H141311   4.759   0.364   1.412 -2.6510  0.8931  0.4036
 6632TIP3    H241312   4.742   0.325   1.557  0.3001  0.3268  0.6525
 6633TIP3   OH241313   5.343   5.794  14.079 -0.2911  0.4496 -0.1008
 6633TIP3    H141314   5.371   5.851  14.007 -0.9705  1.0877  0.1315
 6633TIP3    H241315   5.296   5.852  14.138 -1.3834 -0.4388 -0.0746
 6634TIP3   OH241316   1.912   0.200   5.081  0.3967  0.0248 -0.7097
 6634TIP3    H141317   1.828   0.205   5.127  0.5650 -0.0364 -0.3857
 6634TIP3    H241318   1.925   0.107   5.066  0.7402 -0.0333 -0.1133
 6635TIP3   OH241319   4.821   0.795   0.006 -0.7356 -0.5562 -0.3834
 6635TIP3    H141320   4.902   0.846   0.010 -2.5710  2.7874 -1.2931
 6635TIP3    H241321   4.829   0.744  -0.074  0.6127 -0.5656 -0.2638
 6636TIP3   OH241322   5.467   4.769  14.009 -0.8386  0.1523  0.2850
 6636TIP3    H141323   5.516   4.850  14.021 -0.1709 -0.1102 -0.5472
 6636TIP3    H241324   5.392   4.777  14.067 -0.5988  1.2169  0.4631
 6637TIP3   OH241325   1.855   5.398  11.993  0.0154 -0.0493  0.3817
 6637TIP3    H141326   1.949   5.383  12.002  0.5243  2.2349 -0.5677
 6637TIP3    H241327   1.824   5.324  11.940  0.7956 -2.0090  2.4716
 6638TIP3   OH241328   2.698   4.007  14.531 -0.1496  0.1546 -0.4305
 6638TIP3    H141329   2.761   4.042  14.594  1.3433 -0.8853 -1.2686
 6638TIP3    H241330   2.751   3.954  14.471 -1.6129  0.5495 -2.1594
 6639TIP3   OH241331   4.402   3.609  11.384  0.3896  0.5449 -0.2321
 6639TIP3    H141332   4.438   3.658  11.458  0.4354  0.7283 -0.3752
 6639TIP3    H241333   4.316   3.648  11.369 -0.1811 -0.3743  0.5733
 6640TIP3   OH241334   6.727   1.880   0.536 -0.1257 -0.4694  0.5694
 6640TIP3    H141335   6.749   1.964   0.578 -1.9692  1.4017 -1.9155
 6640TIP3    H241336   6.811   1.849   0.500  0.0765  2.6093 -2.1364
 6641TIP3   OH241337   6.520   6.505  12.348  0.0385  0.0795  0.3701
 6641TIP3    H141338   6.457   6.467  12.410 -0.5110 -0.8671 -0.7272
 6641TIP3    H241339   6.557   6.429  12.303  1.1074  0.7018  0.1625
 6642TIP3   OH241340   3.894   0.165   4.472 -0.2672  0.0252 -0.3034
 6642TIP3    H141341   3.827   0.124   4.526 -0.6926  1.2732  0.1682
 6642TIP3    H241342   3.963   0.100   4.464 -0.8137 -0.6763  0.5890
 6643TIP3   OH241343   0.048   3.194   2.147 -0.0684  0.3883  0.1383
 6643TIP3    H141344   0.006   3.236   2.222 -0.7004  0.4586 -0.2438
 6643TIP3    H241345   0.108   3.260   2.113 -1.5753  1.3000 -0.8927
 6644TIP3   OH241346   1.925   4.085  11.553  0.0739  0.0903 -0.4268
 6644TIP3    H141347   1.910   4.031  11.475 -0.3871  0.3339 -0.5150
 6644TIP3    H241348   1.861   4.156  11.545  0.8751  0.8129 -0.4621
 6645TIP3   OH241349   2.638   6.549   0.367 -0.0330 -0.1338  0.5702
 6645TIP3    H141350   2.614   6.462   0.337 -0.6760  0.3098 -0.2277
 6645TIP3    H241351   2.734   6.548   0.368  0.0174 -0.2843 -1.1945
 6646TIP3   OH241352   3.392   5.278  16.462 -0.0389 -0.0409 -0.2426
 6646TIP3    H141353   3.342   5.268  16.543  0.4535 -1.3078 -0.0765
 6646TIP3    H241354   3.325   5.291  16.395 -0.5629 -0.7386  0.1248
 6647TIP3   OH241355   5.823   3.687  14.989  0.1971  0.1076  0.0311
 6647TIP3    H141356   5.876   3.675  14.910 -0.3440 -1.3609 -0.1456
 6647TIP3    H241357   5.879   3.737  15.048  1.7425 -1.2059 -0.2306
 6648TIP3   OH241358   6.408   1.797  14.507  0.4635 -0.6991  0.1407
 6648TIP3    H141359   6.455   1.880  14.495  0.2377 -0.6174 -0.1930
 6648TIP3    H241360   6.352   1.812  14.583 -0.0965 -0.3034 -0.3396
 6649TIP3   OH241361   2.423   5.073   5.713  0.9690  0.1564 -0.5548
 6649TIP3    H141362   2.433   4.990   5.760 -1.0152 -0.0328 -0.3660
 6649TIP3    H241363   2.435   5.049   5.621 -1.8047 -0.8884 -0.7476
 6650TIP3   OH241364   4.218   0.699  13.302 -0.2677  0.0395 -0.2263
 6650TIP3    H141365   4.139   0.696  13.356  0.2024  0.6477  0.5004
 6650TIP3    H241366   4.211   0.621  13.246 -0.6963 -0.6690  0.7883
 6651TIP3   OH241367   0.574   3.276   5.270  0.2319  0.1887  0.2549
 6651TIP3    H141368   0.487   3.267   5.231 -0.3114 -0.0626  1.4789
 6651TIP3    H241369   0.633   3.286   5.196 -0.7568 -0.3423 -0.6204
 6652TIP3   OH241370   2.480   6.326  12.686  0.4128 -0.4749 -0.3070
 6652TIP3    H141371   2.565   6.369  12.685 -0.3806  1.1856 -1.8138
 6652TIP3    H241372   2.425   6.382  12.741 -0.5297  0.3366 -1.9792
 6653TIP3   OH241373   6.770   0.200  14.002  0.6086  0.0920 -0.3344
 6653TIP3    H141374   6.776   0.187  14.096  1.2161 -2.1764 -0.6383
 6653TIP3    H241375   6.681   0.174  13.979  0.6228  0.1547 -0.4645
 6654TIP3   OH241376   5.234   4.020  14.633 -0.5114  0.1749 -0.1132
 6654TIP3    H141377   5.164   4.070  14.676  1.0146  1.1545  1.3232
 6654TIP3    H241378   5.301   4.085  14.613 -0.0354 -0.7293 -1.6007
 6655TIP3   OH241379   4.060   2.104  14.913 -0.0935 -0.2951 -0.0273
 6655TIP3    H141380   4.155   2.109  14.920 -0.2940  2.1490  2.8355
 6655TIP3    H241381   4.044   2.026  14.861  3.4899  0.3186 -2.4346
 6656TIP3   OH241382   3.760   5.873   3.373 -0.5481 -0.5813 -1.0962
 6656TIP3    H141383   3.718   5.840   3.452 -0.0029 -1.1764 -1.0453
 6656TIP3    H241384   3.850   5.840   3.378  0.8981  3.0663  0.2631
 6657TIP3   OH241385   6.727   3.158  12.192  0.0825  0.3956 -0.2386
 6657TIP3    H141386   6.674   3.220  12.141  0.7722  1.4271  0.2546
 6657TIP3    H241387   6.817   3.189  12.180  0.3442  0.0495  0.7768
 6658TIP3   OH241388   0.883   6.437  16.578  0.1544 -0.2622 -0.1275
 6658TIP3    H141389   0.967   6.475  16.552  0.7938 -0.8875  0.9544
 6658TIP3    H241390   0.818   6.494  16.539  1.0880  0.5366 -0.5544
 6659TIP3   OH241391   3.082   0.099  15.739  0.4059  0.1806 -0.0235
 6659TIP3    H141392   3.121   0.032  15.795  0.1623  0.9456  1.1133
 6659TIP3    H241393   3.091   0.066  15.650 -2.4083 -2.8341  0.6259
 6660TIP3   OH241394   1.256   6.718  15.111 -0.4098  0.9297  0.5421
 6660TIP3    H141395   1.283   6.803  15.076 -0.2262  0.1519 -1.3232
 6660TIP3    H241396   1.338   6.678  15.141 -0.2640  0.7974 -0.0185
 6661TIP3   OH241397   6.317   4.378   3.131 -0.3407 -0.5514  0.1817
 6661TIP3    H141398   6.265   4.451   3.097  1.4899  0.0890 -1.3901
 6661TIP3    H241399   6.384   4.364   3.065  2.4162 -0.3480  2.7572
 6662TIP3   OH241400   6.361   2.987  14.953  0.1500  0.1717 -1.0494
 6662TIP3    H141401   6.450   2.982  14.918 -0.1911 -1.1222 -1.8119
 6662TIP3    H241402   6.353   2.912  15.012  0.8393  2.5189  2.3130
 6663TIP3   OH241403   0.377   3.180  16.840  0.5447 -0.2563 -0.2022
 6663TIP3    H141404   0.445   3.156  16.777 -0.2784 -1.0628 -0.8135
 6663TIP3    H241405   0.318   3.104  16.841  0.5053 -0.2416  1.5053
 6664TIP3   OH241406   2.464   4.979   2.459 -0.1023  0.9026 -0.1104
 6664TIP3    H141407   2.532   5.032   2.418  1.7819 -1.3436 -0.0644
 6664TIP3    H241408   2.475   4.993   2.553  0.4756  0.3728 -0.0931
 6665TIP3   OH241409   4.465   0.651  14.998  0.3810 -0.2190  0.0400
 6665TIP3    H141410   4.528   0.579  15.001  0.8858  0.2517  0.8752
 6665TIP3    H241411   4.449   0.673  15.089  0.6239  1.0748 -0.2188
 6666TIP3   OH241412   1.986   3.049   5.418  0.1454  0.7151  1.1696
 6666TIP3    H141413   2.069   3.040   5.370 -0.3606 -1.0419  0.5378
 6666TIP3    H241414   1.979   3.142   5.436  0.1987  1.5800 -2.4986
 6667TIP3   OH241415   5.278   3.844  15.697 -0.8372  0.0554 -0.6252
 6667TIP3    H141416   5.252   3.768  15.645  0.3769 -0.8846  0.0860
 6667TIP3    H241417   5.237   3.830  15.782  1.3331 -1.1534  0.3236
 6668TIP3   OH241418   3.556   5.167   1.854 -0.0705  0.1836  0.2899
 6668TIP3    H141419   3.520   5.190   1.768  1.3910 -0.2300 -0.4742
 6668TIP3    H241420   3.639   5.125   1.834  0.6564  0.7451  1.9488
 6669TIP3   OH241421   6.373   6.022   6.116 -0.2950  0.5850 -0.1879
 6669TIP3    H141422   6.436   5.958   6.149 -2.0671 -1.4365 -0.4740
 6669TIP3    H241423   6.405   6.107   6.146  2.1447 -0.4303  0.2389
 6670TIP3   OH241424   5.210   3.734  12.926 -0.1058 -0.9426  0.5337
 6670TIP3    H141425   5.129   3.715  12.880  0.0793 -3.1680  0.9644
 6670TIP3    H241426   5.257   3.650  12.926  0.8172 -0.5199  2.9299
 6671TIP3   OH241427   6.487   5.899   2.909  0.3036  0.2829 -0.2966
 6671TIP3    H141428   6.564   5.862   2.952  1.0136  1.0650 -0.8824
 6671TIP3    H241429   6.522   5.952   2.837 -0.8341 -0.4365 -1.4159
 6672TIP3   OH241430   5.135   6.190  14.446 -0.1688  0.5427  0.5032
 6672TIP3    H141431   5.151   6.248  14.371  0.9271 -0.2955  0.0632
 6672TIP3    H241432   5.222   6.179  14.486 -0.5132 -0.1256  1.0734
 6673TIP3   OH241433   1.334   5.961   5.223  0.3617 -0.0849  0.0876
 6673TIP3    H141434   1.301   6.040   5.181 -0.3255 -1.0629 -1.3011
 6673TIP3    H241435   1.258   5.903   5.228  0.7738 -0.5288  1.4085
 6674TIP3   OH241436   2.131   5.974   3.197 -0.3948  0.1443 -0.5012
 6674TIP3    H141437   2.109   5.882   3.214  0.5815  0.0546  0.3616
 6674TIP3    H241438   2.085   6.021   3.266  1.0667  0.0641  0.5656
 6675TIP3   OH241439   5.865   5.936  11.283  0.5589 -0.1034  0.3431
 6675TIP3    H141440   5.920   5.859  11.273 -0.6789 -0.7405 -2.3802
 6675TIP3    H241441   5.916   6.007  11.244  0.9931  0.1206  1.2984
 6676TIP3   OH241442   5.033   3.173   6.172 -0.4660 -0.0886  0.6794
 6676TIP3    H141443   5.061   3.245   6.116 -0.3817  1.0963  2.1801
 6676TIP3    H241444   5.089   3.180   6.250 -0.7356 -1.5232  1.0337
 6677TIP3   OH241445   5.291   1.891  15.255 -0.3888 -0.3344 -0.2710
 6677TIP3    H141446   5.213   1.920  15.302  1.4015  2.1058  1.4808
 6677TIP3    H241447   5.274   1.912  15.163 -0.9868  2.3780  0.3749
 6678TIP3   OH241448   2.665   2.787   2.147 -0.4858  0.0451  0.1023
 6678TIP3    H141449   2.696   2.793   2.237  3.1614 -3.1210 -0.6828
 6678TIP3    H241450   2.618   2.704   2.143 -1.0278  0.3842 -0.8276
 6679TIP3   OH241451   4.855   4.886   2.058  0.1007  0.6275 -0.2179
 6679TIP3    H141452   4.933   4.929   2.023  0.5127 -0.8083 -1.1795
 6679TIP3    H241453   4.849   4.805   2.008 -0.1464 -0.8443  2.0441
 6680TIP3   OH241454   4.672   5.176  13.266  0.4168 -0.3486 -0.0212
 6680TIP3    H141455   4.621   5.177  13.185 -0.7187  0.6713  0.6671
 6680TIP3    H241456   4.626   5.113  13.322 -0.9420  1.5103  1.0726
 6681TIP3   OH241457   1.411   4.831   4.456  0.5469 -0.0894  0.4556
 6681TIP3    H141458   1.346   4.823   4.526  0.1485 -0.3345  0.0612
 6681TIP3    H241459   1.494   4.844   4.502  0.0305  1.6545  0.9503
 6682TIP3   OH241460   3.267   6.612   4.569  0.3558  0.0125 -0.0858
 6682TIP3    H141461   3.210   6.542   4.600  1.1959 -0.4050  0.5552
 6682TIP3    H241462   3.302   6.652   4.649  1.7256 -0.3951 -0.4456
 6683TIP3   OH241463   0.366   2.192   6.441 -0.1551 -0.6907 -0.1576
 6683TIP3    H141464   0.285   2.143   6.426 -0.1529 -1.0075  0.7754
 6683TIP3    H241465   0.336   2.282   6.459 -0.2643 -0.6889 -0.3491
 6684TIP3   OH241466   0.961   0.445   4.624  0.1873 -0.2608  0.0141
 6684TIP3    H141467   1.000   0.361   4.599 -1.6995 -0.8112 -1.3517
 6684TIP3    H241468   0.876   0.445   4.580 -0.2048  2.0277  0.6662
 6685TIP3   OH241469   5.497   0.738  16.002 -0.6008 -0.0615 -0.2932
 6685TIP3    H141470   5.523   0.816  16.050 -1.0612  0.8965 -1.5340
 6685TIP3    H241471   5.408   0.719  16.032 -0.2101 -0.5574  0.5536
 6686TIP3   OH241472   0.388   1.331  13.919  0.3179  0.1213  0.1803
 6686TIP3    H141473   0.390   1.427  13.929  0.3876  0.0660  0.6960
 6686TIP3    H241474   0.440   1.314  13.840 -1.0900  0.6430 -0.9198
 6687TIP3   OH241475   1.599   4.378  14.310 -0.3456 -0.3867 -0.3744
 6687TIP3    H141476   1.620   4.461  14.351 -1.0142 -1.3504  2.1289
 6687TIP3    H241477   1.677   4.356  14.258  0.4525  1.0439  0.1693
 6688TIP3   OH241478   2.787   0.156   4.557  0.2302 -0.2432 -0.0840
 6688TIP3    H141479   2.706   0.119   4.521 -0.5646  0.6446  0.7538
 6688TIP3    H241480   2.764   0.184   4.645  1.8838 -1.4501  0.7834
 6689TIP3   OH241481   5.337   4.047  11.568  0.2371 -0.4898  0.2001
 6689TIP3    H141482   5.343   3.991  11.491  1.0342 -0.9808  0.6081
 6689TIP3    H241483   5.352   3.988  11.642  1.7393  0.3547  0.6028
 6690TIP3   OH241484   5.861   2.633   4.878  0.3353 -0.6239  0.7400
 6690TIP3    H141485   5.799   2.561   4.888 -1.8370  1.1259  0.6293
 6690TIP3    H241486   5.889   2.655   4.967 -0.0362 -0.7411  0.8838
 6691TIP3   OH241487   0.513   4.008  13.477 -0.3661 -0.0031 -0.7191
 6691TIP3    H141488   0.454   4.075  13.443 -1.3520  0.6564  2.0103
 6691TIP3    H241489   0.588   4.056  13.512 -1.7031 -0.0135  2.5175
 6692TIP3   OH241490   4.960   4.241  12.229 -0.4644 -0.2361  0.3349
 6692TIP3    H141491   4.873   4.267  12.258 -1.1620 -1.3473 -0.6960
 6692TIP3    H241492   4.949   4.153  12.194  0.6239  0.4289 -1.8572
 6693TIP3   OH241493   5.312   0.078  11.181  0.2093 -0.1205 -0.2031
 6693TIP3    H141494   5.350   0.024  11.112 -0.9910 -1.1219 -0.1183
 6693TIP3    H241495   5.221   0.093  11.152  0.2504  1.0772  0.2347
 6694TIP3   OH241496   1.514   1.379   1.511  0.7084  0.1062 -0.4789
 6694TIP3    H141497   1.463   1.434   1.570  0.2094 -1.3179  0.4779
 6694TIP3    H241498   1.450   1.316   1.477  1.6161 -1.0936 -0.0182
 6695TIP3   OH241499   4.254   5.622   4.912  0.3894 -0.2037  0.1365
 6695TIP3    H141500   4.202   5.692   4.872 -0.2924 -1.7449 -1.8441
 6695TIP3    H241501   4.284   5.569   4.838 -0.4827 -2.9461  1.6219
 6696TIP3   OH241502   6.113   2.491   5.243  0.5300 -0.1061  0.6032
 6696TIP3    H141503   6.121   2.566   5.302 -0.1192  1.6739 -1.4549
 6696TIP3    H241504   6.022   2.464   5.251  0.3201  0.4354  0.0895
 6697TIP3   OH241505   3.292   4.691   3.167  0.0481 -0.5322 -0.1033
 6697TIP3    H141506   3.305   4.599   3.188 -0.3254 -0.7598 -0.8178
 6697TIP3    H241507   3.197   4.699   3.152  0.2799 -0.4132 -1.6737
 6698TIP3   OH241508   2.719   2.129  14.486 -0.1315 -0.2135 -0.1090
 6698TIP3    H141509   2.627   2.137  14.461  0.0668  0.4250 -0.6827
 6698TIP3    H241510   2.719   2.137  14.582 -0.8089 -1.7264  0.0450
 6699TIP3   OH241511   6.686   0.781  13.934  0.1871  0.3390  0.3470
 6699TIP3    H141512   6.780   0.774  13.951  0.2426 -1.8152 -0.5431
 6699TIP3    H241513   6.673   0.873  13.910  1.5632  1.3864  3.1263
 6700TIP3   OH241514   6.485   6.482  14.898  0.1677  0.2552 -0.4668
 6700TIP3    H141515   6.394   6.497  14.874 -0.4664 -0.9079  1.0832
 6700TIP3    H241516   6.516   6.566  14.932 -1.2526 -0.0423  1.7556
 6701TIP3   OH241517   2.321   1.038   2.638  0.2022  0.1572  1.2931
 6701TIP3    H141518   2.307   1.016   2.730 -1.2066  0.8226  1.2712
 6701TIP3    H241519   2.409   1.006   2.618  0.0067 -1.2196  2.4886
 6702TIP3   OH241520   1.986   3.978   2.178  0.5729 -0.2065 -0.2504
 6702TIP3    H141521   1.980   3.977   2.082 -1.0422 -1.5788 -0.1645
 6702TIP3    H241522   1.920   4.041   2.206 -0.2072 -1.1071 -0.0032
 6703TIP3   OH241523   6.642   1.797   4.133  0.3467  0.2453 -0.2780
 6703TIP3    H141524   6.613   1.729   4.194  1.5420  0.3053  0.3863
 6703TIP3    H241525   6.573   1.863   4.136 -0.3232 -0.4438 -0.1354
 6704TIP3   OH241526   1.438   1.748  11.401  0.4965 -0.0688 -0.3362
 6704TIP3    H141527   1.474   1.757  11.490 -0.3924 -0.4082  0.0700
 6704TIP3    H241528   1.382   1.671  11.405  1.0665 -0.5594 -1.4190
 6705TIP3   OH241529   5.765   5.980  13.815 -0.5482  0.1781  0.6070
 6705TIP3    H141530   5.761   6.013  13.904 -2.7529 -1.7411  1.3331
 6705TIP3    H241531   5.698   6.029  13.767  0.7181  1.2993 -0.0894
 6706TIP3   OH241532   1.961   6.117  13.908 -0.3423  0.2835 -0.5290
 6706TIP3    H141533   1.870   6.099  13.884 -1.0523 -0.0751  2.1118
 6706TIP3    H241534   1.971   6.211  13.894 -0.4692  0.0386 -2.6275
 6707TIP3   OH241535   3.881   3.324  10.823 -0.0175  0.4779  0.0418
 6707TIP3    H141536   3.976   3.337  10.828  0.1355 -0.6426  0.2185
 6707TIP3    H241537   3.844   3.396  10.875  0.7523  0.5922  0.4408
 6708TIP3   OH241538   1.184   6.409   2.589  0.9598  0.6254 -0.1543
 6708TIP3    H141539   1.209   6.452   2.507  1.8861 -0.5962 -0.5578
 6708TIP3    H241540   1.187   6.315   2.568 -0.7993  0.3385  0.7337
 6709TIP3   OH241541   1.976   4.811  12.156 -0.2558  0.7377  0.2988
 6709TIP3    H141542   2.029   4.888  12.136  0.1996 -0.0230 -1.7136
 6709TIP3    H241543   1.900   4.818  12.097  0.1752 -0.6814 -0.4889
 6710TIP3   OH241544   3.109   2.746  17.200 -0.6940 -0.2036  0.6867
 6710TIP3    H141545   3.151   2.676  17.250 -1.1918 -0.3600  0.8836
 6710TIP3    H241546   3.115   2.717  17.109  1.8529  0.9107  0.4180
 6711TIP3   OH241547   3.044   5.775  14.472 -0.2316  0.3542  0.3717
 6711TIP3    H141548   2.996   5.700  14.439 -2.6030  2.2872 -0.8747
 6711TIP3    H241549   3.012   5.787  14.561  0.2169 -0.1529  0.6035
 6712TIP3   OH241550   2.062   2.940   0.286 -0.0807  0.2994  0.1057
 6712TIP3    H141551   2.104   2.996   0.220  2.6136 -2.0171 -0.3791
 6712TIP3    H241552   2.025   3.000   0.349  0.3690  2.6123 -1.6934
 6713TIP3   OH241553   4.392   3.676   2.471  0.5271  0.0901  0.4010
 6713TIP3    H141554   4.456   3.723   2.417 -0.6455  0.5107 -0.6682
 6713TIP3    H241555   4.417   3.584   2.462  1.7088  0.3306  0.9976
 6714TIP3   OH241556   2.483   3.513   0.749 -0.2935  0.2233 -0.3741
 6714TIP3    H141557   2.567   3.531   0.706 -0.2348  2.5745  0.5890
 6714TIP3    H241558   2.508   3.476   0.833 -0.2819 -0.4658 -0.6760
 6715TIP3   OH241559   1.495   2.099  16.543  0.5666 -0.1946 -0.5057
 6715TIP3    H141560   1.553   2.068  16.474 -1.8810 -1.1457 -2.2572
 6715TIP3    H241561   1.413   2.121  16.499 -0.7310  0.3207  1.9414
 6716TIP3   OH241562   3.502   4.275   5.614  0.2691 -0.4630 -0.5256
 6716TIP3    H141563   3.559   4.331   5.561  0.7899  0.6931  1.1599
 6716TIP3    H241564   3.550   4.193   5.623  0.1797 -0.6735 -1.7868
 6717TIP3   OH241565   2.903   1.064   5.395 -0.4440  0.6963 -0.9105
 6717TIP3    H141566   2.932   1.038   5.308 -1.9413  0.3194 -1.3171
 6717TIP3    H241567   2.811   1.089   5.384 -1.1819 -1.0049  0.8533
 6718TIP3   OH241568   1.992   2.354   4.246  0.1502 -0.5642  0.0923
 6718TIP3    H141569   2.032   2.431   4.207  0.8046 -1.4788 -1.1318
 6718TIP3    H241570   2.045   2.337   4.325  2.3931 -1.8167 -1.5442
 6719TIP3   OH241571   3.516   2.381  12.531  0.1592  0.4214 -0.2463
 6719TIP3    H141572   3.481   2.466  12.503  0.0590  0.7380  0.8039
 6719TIP3    H241573   3.611   2.394  12.532  0.1328  0.5877  0.1215
 6720TIP3   OH241574   1.518   5.363   5.523 -0.5408 -0.1165 -0.0810
 6720TIP3    H141575   1.437   5.400   5.488 -0.9943 -0.7998  0.2338
 6720TIP3    H241576   1.549   5.427   5.587 -2.8129 -1.4966  2.5649
 6721TIP3   OH241577   2.740   4.536  11.946  0.1525 -0.3866 -0.8488
 6721TIP3    H141578   2.720   4.508  12.036  0.6884 -1.5840 -1.0761
 6721TIP3    H241579   2.655   4.542  11.903  0.0062 -2.2683 -0.9285
 6722TIP3   OH241580   0.153   0.349  16.765  0.4408 -0.4652 -0.2034
 6722TIP3    H141581   0.152   0.441  16.791 -1.8374 -0.3615 -0.3987
 6722TIP3    H241582   0.246   0.327  16.756  1.0485  1.7540  0.0124
 6723TIP3   OH241583   2.914   1.329  10.839  0.2367 -0.4224  0.3523
 6723TIP3    H141584   2.835   1.327  10.892  0.7813  2.7238  1.4693
 6723TIP3    H241585   2.889   1.374  10.758  0.4048 -1.4056 -0.2685
 6724TIP3   OH241586   3.835   4.555   5.182  0.4314 -0.0598  0.1188
 6724TIP3    H141587   3.888   4.475   5.179 -1.1313 -1.1911  1.0422
 6724TIP3    H241588   3.865   4.599   5.262 -1.5718 -1.9232  2.0311
 6725TIP3   OH241589   1.663   0.724   3.005 -0.4897  0.1982 -0.5854
 6725TIP3    H141590   1.655   0.630   3.024 -0.0615  0.5011  1.2613
 6725TIP3    H241591   1.573   0.753   2.992 -0.7968 -0.1472  0.6228
 6726TIP3   OH241592   5.240   0.304   6.401  0.5803  0.1042 -0.0728
 6726TIP3    H141593   5.181   0.302   6.477  3.0426 -0.8490  1.9769
 6726TIP3    H241594   5.261   0.396   6.389 -1.9244  0.5890 -1.4597
 6727TIP3   OH241595   0.506   0.019   3.050 -0.4524  0.7116 -0.0849
 6727TIP3    H141596   0.579   0.004   3.109 -0.5539  0.7230  0.0433
 6727TIP3    H241597   0.512   0.111   3.025 -1.4436  1.1875  1.3050
 6728TIP3   OH241598   2.880   2.711   1.092 -0.8590  0.2367 -0.0017
 6728TIP3    H141599   2.962   2.756   1.111 -0.5906 -1.1100  2.3748
 6728TIP3    H241600   2.905   2.619   1.082 -1.9622 -0.0619 -0.2011
 6729TIP3   OH241601   6.201   5.092  12.876 -0.4480 -0.0154 -0.5698
 6729TIP3    H141602   6.171   5.104  12.966  1.4167  0.1623  0.0814
 6729TIP3    H241603   6.206   5.180  12.840  1.5618  0.2399  0.1684
 6730TIP3   OH241604   5.994   2.001   5.160  0.0260  0.1347 -0.7845
 6730TIP3    H141605   6.001   2.018   5.066  0.4965 -0.3836 -0.8490
 6730TIP3    H241606   6.078   1.960   5.183 -0.3765 -0.4261 -0.2825
 6731TIP3   OH241607   4.906   5.318   5.387 -0.2315 -0.1483  0.3141
 6731TIP3    H141608   4.977   5.344   5.328 -2.0310  3.0359 -0.6916
 6731TIP3    H241609   4.847   5.266   5.333  0.1375 -0.7992  0.5186
 6732TIP3   OH241610   5.517   1.957   4.766  0.0424  0.0064 -0.0346
 6732TIP3    H141611   5.564   2.009   4.701  0.6727 -0.8216 -0.2641
 6732TIP3    H241612   5.522   1.867   4.733  1.1757 -0.5737  1.6140
 6733TIP3   OH241613   4.862   1.112   5.732  0.2817  0.3048 -0.1142
 6733TIP3    H141614   4.902   1.187   5.775  0.5283  0.2503 -0.2462
 6733TIP3    H241615   4.923   1.089   5.661  0.0844  0.1392 -0.2328
 6734TIP3   OH241616   1.452   4.456  11.137 -0.0639 -0.6289  0.4145
 6734TIP3    H141617   1.471   4.500  11.220 -0.8062 -0.6163  0.5839
 6734TIP3    H241618   1.537   4.423  11.108  0.2119 -0.6078  1.1635
 6735TIP3   OH241619   6.584   5.435  15.300 -0.8395 -0.3331 -0.1919
 6735TIP3    H141620   6.590   5.488  15.379 -0.9370 -0.1005 -0.3373
 6735TIP3    H241621   6.517   5.479  15.247 -0.9006 -0.5876 -0.3257
 6736TIP3   OH241622   2.896   5.884  13.026  0.0610 -0.3940  0.0671
 6736TIP3    H141623   2.879   5.976  13.043  0.5232 -0.2366 -0.3157
 6736TIP3    H241624   2.811   5.841  13.036 -0.4916  0.3154 -1.4379
 6737TIP3   OH241625   1.995   2.913   0.774 -0.4355 -0.1880 -0.1683
 6737TIP3    H141626   2.030   2.830   0.742 -0.2265 -0.2043  0.0997
 6737TIP3    H241627   1.902   2.895   0.789 -0.0722 -0.8771  1.4982
 6738TIP3   OH241628   5.197   3.346  16.918 -0.5877 -0.0603 -0.7633
 6738TIP3    H141629   5.255   3.300  16.978 -0.9651 -1.4310 -1.4147
 6738TIP3    H241630   5.256   3.379  16.850  0.1581  3.3021  1.2850
 6739TIP3   OH241631   3.513   4.932  14.431 -0.4548 -0.2913  0.2735
 6739TIP3    H141632   3.440   4.894  14.383  0.1599 -0.1485 -0.8342
 6739TIP3    H241633   3.587   4.927  14.369  0.4279 -0.3013  1.3019
 6740TIP3   OH241634   1.024   2.673  13.327 -0.1121  0.4456 -0.0362
 6740TIP3    H141635   0.943   2.715  13.297 -1.5042  0.1711  2.9594
 6740TIP3    H241636   1.086   2.687  13.255 -3.0161 -0.1687 -2.9099
 6741TIP3   OH241637   5.353   2.402   6.721 -0.1805  0.1982  0.1521
 6741TIP3    H141638   5.363   2.380   6.628  1.3758 -0.7626  0.5077
 6741TIP3    H241639   5.274   2.355   6.748 -0.9463  0.9039 -0.7838
 6742TIP3   OH241640   5.850   3.321   5.725 -0.6966  0.5875  0.3528
 6742TIP3    H141641   5.754   3.325   5.722 -0.7652  1.2758  2.0750
 6742TIP3    H241642   5.877   3.412   5.733  0.0775  0.3656  0.2959
 6743TIP3   OH241643   4.192   3.652   6.035  0.3719  0.3522 -0.3041
 6743TIP3    H141644   4.187   3.746   6.048  0.7904  0.4193 -0.5926
 6743TIP3    H241645   4.205   3.616   6.123 -1.3045  0.4329  0.0004
 6744TIP3   OH241646   2.778   6.504   4.398 -0.3592  0.3895 -0.3970
 6744TIP3    H141647   2.692   6.497   4.357 -0.3303  0.4398 -0.4664
 6744TIP3    H241648   2.837   6.531   4.327 -0.6583  2.3996  0.0696
 6745TIP3   OH241649   3.722   3.296  17.162  0.1961 -0.3638  0.2951
 6745TIP3    H141650   3.668   3.254  17.229 -0.6297 -0.0428 -0.1532
 6745TIP3    H241651   3.812   3.282  17.191 -0.0402 -2.3557  0.2150
 6746TIP3   OH241652   0.654   4.341  16.786 -0.4607  0.5459  0.6768
 6746TIP3    H141653   0.690   4.428  16.769 -0.5049  0.8253  1.9437
 6746TIP3    H241654   0.728   4.291  16.820 -0.6358  0.3417  0.7572
 6747TIP3   OH241655   4.479   2.947  12.382  0.7153 -0.6695  0.6060
 6747TIP3    H141656   4.572   2.934  12.403  1.1506  0.2237 -0.6172
 6747TIP3    H241657   4.469   3.042  12.377 -1.0869 -0.5301  3.9909
 6748TIP3   OH241658   5.258   5.847  16.456 -0.0194  0.1665  0.8434
 6748TIP3    H141659   5.222   5.906  16.522 -0.4083 -0.4539  1.2000
 6748TIP3    H241660   5.200   5.771  16.458 -1.4488  1.0317 -1.7951
 6749TIP3   OH241661   3.207   6.493   5.620 -0.0928 -0.1911  0.0201
 6749TIP3    H141662   3.118   6.524   5.599  0.7064  1.5053 -1.0364
 6749TIP3    H241663   3.263   6.569   5.607  1.7952 -1.6930 -1.1772
 6750TIP3   OH241664   0.113   1.542  13.473 -0.3840 -0.0689  0.2799
 6750TIP3    H141665   0.049   1.524  13.405 -0.1270 -0.9181  0.2419
 6750TIP3    H241666   0.067   1.597  13.536 -1.5464 -1.5704  0.8255
 6751TIP3   OH241667   6.683   3.405  15.736  0.0679 -0.0925 -0.7081
 6751TIP3    H141668   6.641   3.440  15.815 -0.2536  0.3603 -1.0792
 6751TIP3    H241669   6.634   3.325  15.716 -1.9246  1.4227 -2.2551
 6752TIP3   OH241670   4.367   6.069  12.079  0.0990 -0.0171  0.5382
 6752TIP3    H141671   4.304   6.095  12.011  0.2223  2.9608  1.4046
 6752TIP3    H241672   4.397   5.983  12.052 -0.4541  0.6898 -2.7621
 6753TIP3   OH241673   3.888   3.843   1.727 -0.0899  0.1098 -0.1697
 6753TIP3    H141674   3.863   3.758   1.764  1.4169 -0.4003 -0.2380
 6753TIP3    H241675   3.911   3.896   1.803 -1.2441  0.5488 -0.1121
 6754TIP3   OH241676   4.813   2.547   2.191 -0.3038  0.2692 -0.2444
 6754TIP3    H141677   4.739   2.602   2.217 -1.0759  0.3345 -2.3748
 6754TIP3    H241678   4.780   2.458   2.198 -0.8162  0.3130 -1.6641
 6755TIP3   OH241679   3.537   3.622   5.784  0.6159 -0.2522 -0.2836
 6755TIP3    H141680   3.562   3.603   5.874 -0.3966 -0.9156 -0.1255
 6755TIP3    H241681   3.604   3.682   5.753  0.3168  1.0059  1.3249
 6756TIP3   OH241682   2.975   0.356   1.597 -0.2740 -0.1692  0.2890
 6756TIP3    H141683   3.020   0.304   1.530  1.2775  1.3963  0.0382
 6756TIP3    H241684   2.917   0.414   1.547 -2.0130 -1.5581  0.5681
 6757TIP3   OH241685   5.135   3.298   3.586  0.6979 -0.0061 -0.1988
 6757TIP3    H141686   5.076   3.348   3.530 -2.0902  1.0091  3.2571
 6757TIP3    H241687   5.089   3.216   3.602  2.4945 -1.2503 -1.0780
 6758TIP3   OH241688   0.625   3.202  15.950 -0.1045 -0.1043  0.0706
 6758TIP3    H141689   0.691   3.154  16.000  1.2377  1.5743  0.0339
 6758TIP3    H241690   0.654   3.194  15.859  0.0275  0.5927  0.0469
 6759TIP3   OH241691   5.421   0.601  14.692 -0.1431 -0.1803  0.0759
 6759TIP3    H141692   5.499   0.607  14.637  1.2183 -0.7394  1.8212
 6759TIP3    H241693   5.420   0.510  14.721 -1.8907 -0.3664 -0.4705
 6760TIP3   OH241694   4.909   6.291   5.199  0.3451  0.1354 -0.0959
 6760TIP3    H141695   4.832   6.243   5.229  1.1667 -0.5123  1.1000
 6760TIP3    H241696   4.887   6.383   5.214  0.0029 -0.0730  0.7894
 6761TIP3   OH241697   6.128   4.696  15.151 -0.5317 -0.0550 -0.0955
 6761TIP3    H141698   6.112   4.668  15.061 -2.3726 -1.7522  0.6895
 6761TIP3    H241699   6.132   4.615  15.201 -0.1812  0.8870  1.4724
 6762TIP3   OH241700   0.001   5.638   2.395  0.3085  0.0604 -0.4323
 6762TIP3    H141701   0.042   5.584   2.462  0.5223  0.6025 -0.1155
 6762TIP3    H241702  -0.054   5.699   2.445  0.2684  0.3011 -0.7690
 6763TIP3   OH241703   0.065   5.680  15.962  0.8451  0.2378  0.0383
 6763TIP3    H141704  -0.022   5.697  15.928  1.2038  1.0690 -0.4772
 6763TIP3    H241705   0.117   5.658  15.885  1.4567  1.2837  0.1390
 6764TIP3   OH241706   5.519   2.555   3.742  0.8251  0.5535 -0.4934
 6764TIP3    H141707   5.506   2.622   3.674  0.7708  0.9284 -0.1202
 6764TIP3    H241708   5.480   2.593   3.820 -0.9017 -0.6947 -0.7018
 6765TIP3   OH241709   5.975   0.744  11.457 -0.2333 -0.2107 -0.3821
 6765TIP3    H141710   6.009   0.671  11.509  0.7925 -0.2028 -1.0112
 6765TIP3    H241711   5.950   0.704  11.374 -0.2062  0.0505 -0.5182
 6766TIP3   OH241712   0.546   0.654   5.355  0.0313  0.7076 -0.0485
 6766TIP3    H141713   0.547   0.560   5.338  0.3012  0.8384 -0.8102
 6766TIP3    H241714   0.631   0.685   5.323 -0.3311  1.3129 -0.4411
 6767TIP3   OH241715   1.723   4.579  12.938 -0.6917  0.1754 -0.0607
 6767TIP3    H141716   1.678   4.516  12.994 -1.7456  0.3892 -0.6354
 6767TIP3    H241717   1.725   4.537  12.852 -0.2359  0.3911 -0.1581
 6768TIP3   OH241718   2.454   3.261   2.059  0.2477 -0.6239 -0.2715
 6768TIP3    H141719   2.497   3.200   1.999  1.3833 -0.3313  0.2011
 6768TIP3    H241720   2.454   3.345   2.013 -1.8161 -1.0531 -1.1488
 6769TIP3   OH241721   1.165   4.611  11.666 -0.1153  0.3685 -0.2824
 6769TIP3    H141722   1.155   4.564  11.748  1.6713 -0.5115 -0.5266
 6769TIP3    H241723   1.146   4.703  11.687  2.1274  0.4893  1.5703
 6770TIP3   OH241724   3.225   5.345  12.433  0.3538 -0.0479 -0.1996
 6770TIP3    H141725   3.224   5.268  12.489 -2.8263 -0.3941 -0.5099
 6770TIP3    H241726   3.243   5.418  12.492 -1.0981 -0.6026  1.0005
 6771TIP3   OH241727   4.718   0.133  11.590  0.1797 -0.5929  0.2115
 6771TIP3    H141728   4.791   0.192  11.572 -0.7679  0.8433  0.9403
 6771TIP3    H241729   4.701   0.089  11.506 -1.7656  3.2290 -1.6458
 6772TIP3   OH241730   5.950   2.373   1.972  0.7396  0.3071 -0.0882
 6772TIP3    H141731   6.022   2.340   1.918  0.0563  1.1519 -1.5794
 6772TIP3    H241732   5.990   2.394   2.056  1.9025 -0.7613 -0.3455
 6773TIP3   OH241733   6.062   0.234   0.327  0.7299  0.1677 -0.1023
 6773TIP3    H141734   6.075   0.160   0.267 -1.8323 -0.3078 -0.2258
 6773TIP3    H241735   6.103   0.308   0.283  2.4105 -0.9482 -0.4996
 6774TIP3   OH241736   5.687   5.698   1.484  0.3183  0.0006 -0.0228
 6774TIP3    H141737   5.691   5.649   1.565 -0.7619  0.6740  0.4689
 6774TIP3    H241738   5.722   5.784   1.505 -2.4033  1.0849  0.5132
 6775TIP3   OH241739   3.106   5.153  11.536 -0.1140 -0.3640 -0.0368
 6775TIP3    H141740   3.136   5.176  11.448  0.7320 -1.2959 -0.0090
 6775TIP3    H241741   3.167   5.197  11.595 -0.9799  0.6680  0.1040
 6776TIP3   OH241742   6.307   1.691   1.292 -0.0964  0.0165  0.0688
 6776TIP3    H141743   6.265   1.775   1.271 -1.5871 -0.6535  0.2526
 6776TIP3    H241744   6.367   1.676   1.218 -1.5010  0.1620 -1.1480
 6777TIP3   OH241745   4.309   2.737  14.122 -0.5241 -0.3989 -0.2949
 6777TIP3    H141746   4.249   2.778  14.184 -0.6918 -2.6346  1.1236
 6777TIP3    H241747   4.351   2.811  14.077 -2.1140  1.2563  0.7975
 6778TIP3   OH241748   4.288   4.474  16.278 -0.3884 -0.3652 -0.0457
 6778TIP3    H141749   4.307   4.567  16.271 -3.0655  0.1594 -2.1109
 6778TIP3    H241750   4.338   4.434  16.206 -0.5319 -0.2655 -0.2005
 6779TIP3   OH241751   2.631   4.702   4.315 -0.3019  0.4174  0.2327
 6779TIP3    H141752   2.614   4.607   4.318 -1.1481  0.5762  2.2208
 6779TIP3    H241753   2.546   4.741   4.293  0.4049  0.6854 -2.2538
 6780TIP3   OH241754   4.333   4.078  12.239  0.3366 -0.1857 -0.0200
 6780TIP3    H141755   4.326   4.084  12.144  1.4444 -1.5215 -0.2203
 6780TIP3    H241756   4.301   3.990  12.259  2.2581 -0.7976  0.5609
 6781TIP3   OH241757   5.850   0.603   4.569 -0.4831  0.0644 -0.3697
 6781TIP3    H141758   5.908   0.674   4.541  0.0302 -0.8634 -1.7767
 6781TIP3    H241759   5.807   0.574   4.488  1.0515 -2.7397 -0.3192
 6782TIP3   OH241760   0.745   2.173   3.671 -0.5095  0.4952 -0.4056
 6782TIP3    H141761   0.664   2.183   3.622  0.8976  1.9317 -2.6783
 6782TIP3    H241762   0.750   2.079   3.692 -2.6853  0.3868 -0.2375
 6783TIP3   OH241763   5.956   3.722  13.679 -0.2258 -0.1252  0.1108
 6783TIP3    H141764   5.946   3.816  13.694 -0.2194 -0.2715  1.1143
 6783TIP3    H241765   5.973   3.714  13.585  1.7672  1.0487  0.3156
 6784TIP3   OH241766   3.664   3.310  16.535 -0.0308 -0.4269 -0.4197
 6784TIP3    H141767   3.572   3.303  16.559  0.5330 -0.8881  1.8992
 6784TIP3    H241768   3.682   3.229  16.487 -0.7453 -0.4873 -0.5949
 6785TIP3   OH241769   5.627   4.296  14.539  0.0743 -0.3522 -0.7137
 6785TIP3    H141770   5.649   4.388  14.556 -0.8744 -0.3680  0.7156
 6785TIP3    H241771   5.619   4.256  14.625  0.2673 -1.7515 -1.3140
 6786TIP3   OH241772   5.660   6.110   4.269  1.0841  0.0515  0.2440
 6786TIP3    H141773   5.604   6.175   4.227  0.4468 -0.5745  0.1151
 6786TIP3    H241774   5.727   6.090   4.204  0.2730 -0.6958 -0.3861
 6787TIP3   OH241775   1.562   4.923   1.251 -0.1226 -0.3511 -0.3269
 6787TIP3    H141776   1.475   4.908   1.214 -0.1696 -0.0151 -0.3553
 6787TIP3    H241777   1.555   5.007   1.297  0.0382 -0.5811  0.1269
 6788TIP3   OH241778   3.227   4.210   3.844  0.2707 -0.3768 -0.0280
 6788TIP3    H141779   3.236   4.220   3.749 -0.2177  1.2940  0.0677
 6788TIP3    H241780   3.302   4.157   3.870  0.6977 -0.4108 -1.2783
 6789TIP3   OH241781   0.337   5.055   2.828 -0.2042 -0.8756  0.0203
 6789TIP3    H141782   0.373   4.978   2.782 -1.0922 -0.2356 -1.8480
 6789TIP3    H241783   0.406   5.121   2.822 -1.5015  0.4037 -3.7000
 6790TIP3   OH241784   3.699   1.556  13.940 -0.1236 -0.2791 -1.0131
 6790TIP3    H141785   3.733   1.500  14.010 -2.3801 -0.1556  0.2641
 6790TIP3    H241786   3.746   1.639  13.951  0.6184 -0.7418 -0.5986
 6791TIP3   OH241787   1.024   3.236  12.599 -0.6227 -0.3232 -0.4039
 6791TIP3    H141788   1.095   3.175  12.622  0.0418  0.7130  0.3784
 6791TIP3    H241789   1.067   3.303  12.546 -0.6260  1.1769  1.3816
 6792TIP3   OH241790   0.512   4.584  16.955  0.1627 -0.0438  0.3084
 6792TIP3    H141791   0.427   4.610  16.919  0.0356  0.3957  0.9119
 6792TIP3    H241792   0.575   4.614  16.890 -0.0571  0.8415  0.4881
 6793TIP3   OH241793   0.164   1.510  12.122 -0.4197 -0.1992 -0.0183
 6793TIP3    H141794   0.090   1.567  12.145 -0.3578 -0.3044  0.4593
 6793TIP3    H241795   0.236   1.541  12.176 -0.2946 -0.5148 -0.0004
 6794TIP3   OH241796   3.310   4.503   5.358 -0.0534 -0.3506 -0.4994
 6794TIP3    H141797   3.309   4.439   5.286 -1.2864  0.9111 -1.6685
 6794TIP3    H241798   3.220   4.504   5.391  0.3744 -0.5002  0.7145
 6795TIP3   OH241799   2.475   3.934  11.307 -0.6805  0.1749 -0.1967
 6795TIP3    H141800   2.493   3.937  11.213 -0.4391  0.5116 -0.1445
 6795TIP3    H241801   2.430   4.016  11.325 -0.5558  0.1984  0.0141
 6796TIP3   OH241802   5.814   1.270  15.676 -0.2752  0.1959 -0.4714
 6796TIP3    H141803   5.730   1.301  15.643 -1.4477 -1.2622  0.9658
 6796TIP3    H241804   5.827   1.185  15.634  0.1613  0.1320 -0.2162
 6797TIP3   OH241805   3.315   3.627   1.896 -0.4758 -0.0485 -0.2884
 6797TIP3    H141806   3.239   3.597   1.944 -0.6609  1.9701  0.7649
 6797TIP3    H241807   3.279   3.680   1.825 -0.0906  1.3696  0.5358
 6798TIP3   OH241808   4.520   2.049  13.148  0.7356  0.4966  0.6470
 6798TIP3    H141809   4.507   2.067  13.241  0.6680  2.2883  0.3189
 6798TIP3    H241810   4.610   2.015  13.142  0.2183 -1.1535  1.5195
 6799TIP3   OH241811   3.210   6.664   5.359  0.0275 -0.1593 -0.2846
 6799TIP3    H141812   3.220   6.584   5.307 -0.3457 -1.8238  2.0144
 6799TIP3    H241813   3.117   6.668   5.379  0.1402  0.5105  0.1340
 6800TIP3   OH241814   3.449   2.205  14.984  0.2849  0.7018 -0.2555
 6800TIP3    H141815   3.429   2.129  14.930  0.4792 -0.2600  0.9799
 6800TIP3    H241816   3.544   2.202  14.996  0.4045  1.6230 -0.8724
 6801TIP3   OH241817   1.671   0.266  13.200  0.1403  0.2169 -0.1083
 6801TIP3    H141818   1.629   0.247  13.116 -1.3321  1.0682  0.3908
 6801TIP3    H241819   1.599   0.291  13.258  0.9579 -1.5505  1.8023
 6802TIP3   OH241820   1.941   3.572   0.776 -0.4392 -0.1858 -0.1419
 6802TIP3    H141821   1.963   3.595   0.686  0.1418  2.4130  0.5756
 6802TIP3    H241822   1.880   3.639   0.804 -0.1170 -0.5634  1.6006
 6803TIP3   OH241823   1.659   0.012   5.994  0.5148 -0.1282 -0.0443
 6803TIP3    H141824   1.640  -0.066   6.045 -0.9717  0.5252  0.4553
 6803TIP3    H241825   1.661   0.083   6.059 -0.1423  0.5301 -0.7162
 6804TIP3   OH241826   6.090   4.697  13.692  0.2588  0.1341 -0.0487
 6804TIP3    H141827   6.026   4.630  13.666 -1.1450  1.4285 -0.1050
 6804TIP3    H241828   6.138   4.657  13.765  0.1118 -1.2632 -0.6710
 6805TIP3   OH241829   0.422   1.724   4.041 -0.5461  0.4867 -0.0385
 6805TIP3    H141830   0.393   1.722   4.132  1.1219 -1.1171  0.5464
 6805TIP3    H241831   0.479   1.800   4.035  1.0419 -0.5650  0.9157
 6806TIP3   OH241832   1.554   2.258   0.479  0.2542 -0.0420 -0.6529
 6806TIP3    H141833   1.522   2.211   0.402 -0.4033  0.8357 -0.9404
 6806TIP3    H241834   1.523   2.207   0.554  0.4825 -0.6457 -0.9699
 6807TIP3   OH241835   0.288   0.845  12.796 -0.3106 -0.0038 -0.1380
 6807TIP3    H141836   0.213   0.787  12.808 -0.6465  0.4164 -0.2016
 6807TIP3    H241837   0.341   0.831  12.874 -0.3219 -0.4918 -0.2107
 6808TIP3   OH241838   0.553   4.078   5.090  0.4005 -0.0414 -0.4680
 6808TIP3    H141839   0.527   3.987   5.099 -0.2620  0.1366 -0.5076
 6808TIP3    H241840   0.503   4.125   5.157  1.7316  0.1198  0.4471
 6809TIP3   OH241841   5.056   3.184   1.066 -0.0102  0.1488  0.3701
 6809TIP3    H141842   5.127   3.233   1.024  0.6663 -0.5908  0.6161
 6809TIP3    H241843   5.101   3.131   1.132 -0.4041 -2.4922 -1.3462
 6810TIP3   OH241844   2.109   4.104   0.410  0.0756  0.4452 -0.3020
 6810TIP3    H141845   2.076   4.028   0.362  2.5687 -0.4959 -0.6893
 6810TIP3    H241846   2.104   4.078   0.502  0.1048  0.1584 -0.3808
 6811TIP3   OH241847   2.053   0.076  17.045  0.0340 -0.5179  0.4891
 6811TIP3    H141848   2.067   0.156  17.096  1.1065  0.1880 -0.8312
 6811TIP3    H241849   2.139   0.057  17.007 -0.7202 -0.9956 -1.0368
 6812TIP3   OH241850   1.371   4.981   3.954 -0.3475  0.2615 -0.0716
 6812TIP3    H141851   1.324   5.064   3.952 -0.2037  0.3341 -0.6615
 6812TIP3    H241852   1.349   4.943   4.039 -0.2521  0.9922  0.2866
 6813TIP3   OH241853   6.113   5.567   2.554 -0.7597  0.0953  0.2506
 6813TIP3    H141854   6.116   5.536   2.645  1.9339  0.8074  0.4948
 6813TIP3    H241855   6.132   5.489   2.502  1.9777  0.4191  0.6264
 6814TIP3   OH241856   6.394   0.406   3.935 -0.2995  0.3470 -0.2904
 6814TIP3    H141857   6.358   0.380   3.850 -0.7444  0.6843 -0.2056
 6814TIP3    H241858   6.384   0.501   3.938 -0.3706  0.3257  0.1800
 6815TIP3   OH241859   1.894   5.282  13.989  1.0671  0.0160  0.2042
 6815TIP3    H141860   1.899   5.218  13.919  2.6235 -0.8237  1.0210
 6815TIP3    H241861   1.984   5.287  14.024  0.0446 -0.9803  3.3095
 6816TIP3   OH241862   1.648   0.902   3.479 -0.3861  0.2961  0.1771
 6816TIP3    H141863   1.629   0.987   3.439 -0.0481 -0.4953 -1.7669
 6816TIP3    H241864   1.740   0.886   3.462 -0.6256 -0.8146 -0.2184
 6817TIP3   OH241865   0.039   3.114  13.961 -0.1072 -0.2885 -0.0692
 6817TIP3    H141866   0.002   3.030  13.932 -2.7539  0.7255  0.1226
 6817TIP3    H241867  -0.036   3.174  13.962  1.9764  2.6285 -2.0191
 6818TIP3   OH241868   3.585   3.203  15.184  0.0170 -0.5727  0.3509
 6818TIP3    H141869   3.506   3.224  15.135 -0.7146  0.0789  1.7529
 6818TIP3    H241870   3.650   3.183  15.117 -0.9883  0.0950 -0.8675
 6819TIP3   OH241871   6.348   0.348   3.105  0.1875  0.4745 -0.9457
 6819TIP3    H141872   6.355   0.406   3.181  1.5525  0.6827 -1.1928
 6819TIP3    H241873   6.436   0.350   3.066 -0.4655  0.3142 -2.4858
 6820TIP3   OH241874   1.843   5.694  12.267 -0.1161 -0.1264  0.4690
 6820TIP3    H141875   1.873   5.604  12.282 -1.7109 -0.5759  1.1973
 6820TIP3    H241876   1.897   5.747  12.326 -0.6930 -0.8959  1.7319
 6821TIP3   OH241877   1.723   5.403   2.446 -0.0586 -0.0550 -0.0679
 6821TIP3    H141878   1.719   5.394   2.541  0.4969  0.8189  0.0491
 6821TIP3    H241879   1.662   5.475   2.426 -0.4845 -0.5056 -0.4216
 6822TIP3   OH241880   6.550   0.476  11.646 -0.1923 -0.0424  0.5790
 6822TIP3    H141881   6.542   0.434  11.732 -0.4315 -0.5696  0.2967
 6822TIP3    H241882   6.643   0.472  11.626 -0.1621 -0.0889  0.7263
 6823TIP3   OH241883   1.289   3.956  16.070  0.0798  0.1976 -0.7250
 6823TIP3    H141884   1.316   3.941  16.161 -0.2301  1.7607 -0.3566
 6823TIP3    H241885   1.280   3.868  16.034  2.1865 -0.4373  0.1466
 6824TIP3   OH241886   2.095   0.104   1.221 -0.1390  0.4668  0.2672
 6824TIP3    H141887   2.043   0.178   1.191  0.5199  1.4535  1.4885
 6824TIP3    H241888   2.185   0.135   1.222  0.3125 -0.7415 -0.3432
 6825TIP3   OH241889   2.608   6.383  13.901  0.5103 -0.4066 -0.5627
 6825TIP3    H141890   2.588   6.293  13.875 -0.7924 -0.2899 -0.0354
 6825TIP3    H241891   2.589   6.386  13.995 -1.2127  0.8352 -0.8919
 6826TIP3   OH241892   1.969   1.853  14.220 -0.4693 -0.6248  0.2955
 6826TIP3    H141893   1.920   1.876  14.299  1.3448  1.3927  0.9400
 6826TIP3    H241894   1.972   1.757  14.220  0.0442 -0.6817  3.0836
 6827TIP3   OH241895   3.973   4.657  17.303 -0.0698 -0.1118 -0.5154
 6827TIP3    H141896   3.884   4.659  17.340  0.0331  2.6919 -0.1732
 6827TIP3    H241897   3.960   4.657  17.209 -0.4449  0.4335 -0.4679
 6828TIP3   OH241898   1.241   3.166   4.965 -0.0114  0.0367 -0.4187
 6828TIP3    H141899   1.167   3.187   4.908 -1.7084 -0.6997  1.4148
 6828TIP3    H241900   1.219   3.207   5.049  1.0782 -1.2260  0.5161
 6829TIP3   OH241901   6.109   0.402   3.799  0.3914  0.3190  0.0884
 6829TIP3    H141902   6.028   0.374   3.755  0.1286  0.8445  0.2293
 6829TIP3    H241903   6.178   0.353   3.755 -0.1773 -1.7292  1.3314
 6830TIP3   OH241904   4.497   4.694   0.656  0.2161 -0.2020 -0.1004
 6830TIP3    H141905   4.578   4.643   0.649 -0.2604 -0.9372 -0.3608
 6830TIP3    H241906   4.433   4.634   0.694 -0.0171  0.6106  0.8265
 6831TIP3   OH241907   6.207   4.594  12.496  0.0148 -0.3871  0.1760
 6831TIP3    H141908   6.197   4.515  12.549  1.3710 -1.0485 -0.4861
 6831TIP3    H241909   6.275   4.644  12.542 -1.2278  0.6848  0.8951
 6832TIP3   OH241910   5.891   1.697   0.350 -0.2807 -0.1034 -0.1079
 6832TIP3    H141911   5.934   1.683   0.435  1.1522  0.0524 -0.7752
 6832TIP3    H241912   5.963   1.699   0.287 -1.1698  1.4383 -1.1432
 6833TIP3   OH241913   1.504   4.759   0.703 -0.7044  0.2144  0.5767
 6833TIP3    H141914   1.454   4.810   0.639  2.0999  3.7804  0.8997
 6833TIP3    H241915   1.486   4.801   0.787  1.4872  0.5831  0.9111
 6834TIP3   OH241916   1.254   5.367  15.914 -0.7329  0.2300  0.0483
 6834TIP3    H141917   1.290   5.455  15.926  2.9743 -1.0231 -0.6406
 6834TIP3    H241918   1.244   5.333  16.003 -1.2608  0.9842  0.2878
 6835TIP3   OH241919   1.728   0.681   3.777  0.2463  0.0106  0.1073
 6835TIP3    H141920   1.673   0.647   3.707  0.1924 -1.0568  0.6580
 6835TIP3    H241921   1.802   0.722   3.731 -0.7972  1.1509 -0.6215
 6836TIP3   OH241922   2.855   3.970  16.706 -0.1949 -0.0618  0.3241
 6836TIP3    H141923   2.894   3.903  16.762 -0.0132  0.1233  0.4204
 6836TIP3    H241924   2.930   4.020  16.674 -0.3463  0.2310  0.4265
 6837TIP3   OH241925   1.599   2.113   5.863 -0.2786 -0.0936 -0.3299
 6837TIP3    H141926   1.628   2.077   5.947 -0.3824 -1.2172 -0.7591
 6837TIP3    H241927   1.525   2.169   5.885 -0.3818 -0.4708  0.3251
 6838TIP3   OH241928   1.763   1.922  15.328 -0.0029 -0.3947  0.3132
 6838TIP3    H141929   1.719   1.986  15.272  1.1836  1.1270  1.0291
 6838TIP3    H241930   1.751   1.956  15.417  3.0159  0.4458  0.5072
 6839TIP3   OH241931   1.705   5.917   1.700  0.0549  0.3876 -0.2314
 6839TIP3    H141932   1.643   5.989   1.689 -0.4557  0.1019  0.6701
 6839TIP3    H241933   1.780   5.956   1.746 -0.1107  0.4022  0.0266
 6840TIP3   OH241934   2.937   1.726  12.127 -0.2715  0.4765  0.4018
 6840TIP3    H141935   2.873   1.775  12.179 -1.5173 -0.3631 -0.2788
 6840TIP3    H241936   2.957   1.649  12.180  0.6905  1.0540  0.8981
 6841TIP3   OH241937   2.314   2.424   1.146  0.5135 -0.2218  0.2481
 6841TIP3    H141938   2.320   2.518   1.130  2.0546 -0.6822 -2.5575
 6841TIP3    H241939   2.260   2.391   1.074 -0.6164 -1.4681  1.5829
 6842TIP3   OH241940   0.773   1.320  13.822  0.4322  0.0937  0.4055
 6842TIP3    H141941   0.746   1.262  13.892  1.7771 -1.3259 -0.1851
 6842TIP3    H241942   0.701   1.316  13.758  0.8428 -1.5884  0.0081
 6843TIP3   OH241943   5.303   2.570  10.578 -0.2419  0.2899  0.0343
 6843TIP3    H141944   5.269   2.481  10.565 -2.7557  1.1668  0.0397
 6843TIP3    H241945   5.304   2.581  10.673 -1.0047  0.5994  0.0193
 6844TIP3   OH241946   4.814   0.680  12.712  0.3946 -0.2989 -0.6197
 6844TIP3    H141947   4.866   0.703  12.636  1.3130 -2.5306 -0.7233
 6844TIP3    H241948   4.840   0.591  12.734 -2.3049 -0.9972  0.2293
 6845TIP3   OH241949   2.621   5.454   5.913  0.3828 -0.1817 -0.2449
 6845TIP3    H141950   2.552   5.492   5.858 -0.6712 -0.0353  1.1361
 6845TIP3    H241951   2.703   5.486   5.874 -0.3574  0.5842 -1.2322
 6846TIP3   OH241952   0.899   2.661  15.330 -0.3626  0.4268  0.0830
 6846TIP3    H141953   0.979   2.660  15.278 -1.4994  1.3256 -1.7974
 6846TIP3    H241954   0.893   2.751  15.363 -0.5718  0.3406  0.2859
 6847TIP3   OH241955   1.146   6.010  11.678  0.2509 -0.8238 -0.0755
 6847TIP3    H141956   1.220   6.001  11.738 -0.3009 -0.0469  0.7447
 6847TIP3    H241957   1.156   5.937  11.617  1.9828 -0.4343 -0.3183
 6848TIP3   OH241958   4.383   1.221   6.598  0.6479  0.8163 -0.1088
 6848TIP3    H141959   4.334   1.281   6.655  0.5652 -0.3618  1.1208
 6848TIP3    H241960   4.427   1.161   6.658 -0.0803 -0.9905 -1.2627
 6849TIP3   OH241961   6.461   5.887  11.088 -0.2255 -0.5277  0.1382
 6849TIP3    H141962   6.439   5.838  11.166 -3.5118 -0.8706 -0.8699
 6849TIP3    H241963   6.554   5.869  11.074 -0.1523 -2.4809  2.5019
 6850TIP3   OH241964   6.518   2.468  11.274  0.2068 -0.2214 -0.3049
 6850TIP3    H141965   6.579   2.541  11.287  0.2231 -0.3523  0.4243
 6850TIP3    H241966   6.558   2.415  11.205  0.5912  0.0391 -0.2880
 6851TIP3   OH241967   4.997   2.556   5.766  0.2071  0.1891 -0.1444
 6851TIP3    H141968   5.042   2.627   5.721 -0.1137  0.2968 -0.2988
 6851TIP3    H241969   4.921   2.598   5.807 -0.2179 -0.1330 -0.5912
 6852TIP3   OH241970   4.003   1.265  13.986  0.2425 -0.1389  0.1235
 6852TIP3    H141971   4.043   1.208  14.051 -0.3362  0.7903  1.3367
 6852TIP3    H241972   4.077   1.312  13.946  0.5907 -0.5810  0.2474
 6853TIP3   OH241973   6.709   6.377   3.041 -0.0928 -0.0923  0.1789
 6853TIP3    H141974   6.771   6.373   3.113  0.4909  1.6694 -0.1925
 6853TIP3    H241975   6.762   6.364   2.962 -0.6964 -1.7952 -0.0083
 6854TIP3   OH241976   6.048   1.915  17.058  0.0759 -0.2593 -0.7027
 6854TIP3    H141977   6.015   2.001  17.084 -1.4976 -1.1174  0.2780
 6854TIP3    H241978   5.977   1.854  17.079  0.3559 -1.5779 -3.2093
 6855TIP3   OH241979   5.973   3.665  11.274 -1.0662 -0.0187  0.0031
 6855TIP3    H141980   6.002   3.756  11.280 -1.0763 -0.0360  0.3288
 6855TIP3    H241981   5.932   3.647  11.359  0.0975 -0.7274  0.4415
 6856TIP3   OH241982   4.722   6.209   3.496 -0.2123  0.2068  0.0908
 6856TIP3    H141983   4.783   6.280   3.475  1.2400 -1.2741 -0.9708
 6856TIP3    H241984   4.737   6.191   3.589  2.5108 -1.3881 -0.5287
 6857TIP3   OH241985   1.276   0.079  11.506 -0.2371  0.0787  0.2968
 6857TIP3    H141986   1.240   0.161  11.540 -1.9291  0.2110 -1.6030
 6857TIP3    H241987   1.270   0.018  11.580 -0.8120  1.1557  1.1707
 6858TIP3   OH241988   6.174   3.575  16.727  0.2179  0.4537 -0.4749
 6858TIP3    H141989   6.171   3.569  16.631 -1.4174  0.5522 -0.4644
 6858TIP3    H241990   6.082   3.587  16.752  0.4235 -1.1190  1.2014
 6859TIP3   OH241991   1.556   5.244   2.264  0.3005  0.6177  0.4211
 6859TIP3    H141992   1.518   5.159   2.241  0.2061  0.5728  0.7393
 6859TIP3    H241993   1.558   5.244   2.360 -1.6934  1.8098  0.5367
 6860TIP3   OH241994   6.542   1.074   5.588  0.7345 -0.2566  0.4997
 6860TIP3    H141995   6.487   1.091   5.665  1.4525  1.5064  0.6756
 6860TIP3    H241996   6.519   0.985   5.561 -1.9507  0.2891  0.7477
 6861TIP3   OH241997   3.502   2.251  16.226 -0.3735 -0.4266  0.7294
 6861TIP3    H141998   3.543   2.167  16.246  0.2864 -1.0285 -2.5590
 6861TIP3    H241999   3.575   2.311  16.210 -0.7828 -0.2149 -0.4417
 6862TIP3   OH242000   3.928   5.156  14.890  0.6213  1.2271  0.4437
 6862TIP3    H142001   3.984   5.094  14.937 -0.2034  0.5458  0.5417
 6862TIP3    H242002   3.944   5.240  14.934 -0.2617  0.5753  2.0908
 6863TIP3   OH242003   5.093   4.103  15.331  0.4205 -0.2973 -0.1245
 6863TIP3    H142004   5.089   4.146  15.245  1.6672 -2.9890 -1.6664
 6863TIP3    H242005   5.042   4.159  15.389 -0.0833  1.8779 -2.5076
 6864TIP3   OH242006   6.555   4.969  14.588 -0.3303  0.6667  0.2214
 6864TIP3    H142007   6.476   5.021  14.581 -0.8421 -0.2182 -0.7564
 6864TIP3    H242008   6.534   4.901  14.653  0.0333  1.1133  0.8224
 6865TIP3   OH242009   6.297   1.176  14.563  0.7308 -0.6005 -0.6209
 6865TIP3    H142010   6.206   1.159  14.590  1.1425  0.4720  1.7611
 6865TIP3    H242011   6.336   1.089  14.556 -0.1028 -1.0300 -0.1251
 6866TIP3   OH242012   0.753   0.493  15.651  0.2367  0.6850 -0.3601
 6866TIP3    H142013   0.663   0.478  15.622  0.9377 -1.0465 -1.8157
 6866TIP3    H242014   0.784   0.565  15.596  0.3927 -0.1519 -1.3984
 6867TIP3   OH242015   0.953   6.538   0.331 -0.0379 -0.5088  0.3570
 6867TIP3    H142016   0.858   6.546   0.325 -0.0745 -0.8425  0.4879
 6867TIP3    H242017   0.968   6.487   0.410  0.2894  0.2791  0.8134
 6868TIP3   OH242018   3.870   2.758  13.169  0.2924  0.0144  0.1772
 6868TIP3    H142019   3.867   2.832  13.228 -1.4294  0.4019 -0.3239
 6868TIP3    H242020   3.878   2.797  13.082  0.1999 -0.4078 -0.0240
 6869TIP3   OH242021   4.954   3.199  17.002  0.4740 -0.5660 -0.2091
 6869TIP3    H142022   5.031   3.248  16.973 -0.4714  0.4151 -1.1904
 6869TIP3    H242023   4.974   3.173  17.092  1.2645  1.1512  0.1534
 6870TIP3   OH242024   1.644   6.026   0.351 -0.1574 -0.0638  0.3853
 6870TIP3    H142025   1.634   6.116   0.382 -0.6186  1.2998 -3.1826
 6870TIP3    H242026   1.555   5.991   0.348 -0.5083  0.8623 -1.9135
 6871TIP3   OH242027   2.207   1.694   0.111 -0.2129 -0.0024  0.3642
 6871TIP3    H142028   2.292   1.734   0.095 -0.6428  0.8428  0.1330
 6871TIP3    H242029   2.191   1.710   0.204 -1.0384  1.7200 -0.0316
 6872TIP3   OH242030   2.074   4.469   3.336 -0.1042  0.2058 -0.2816
 6872TIP3    H142031   2.030   4.549   3.309 -0.3102  0.3952  0.5921
 6872TIP3    H242032   2.146   4.499   3.392  0.1568 -0.1851 -0.4041
 6873TIP3   OH242033   0.889   5.055  17.206 -0.1732  0.5739  0.1194
 6873TIP3    H142034   0.855   5.014  17.126 -0.5728  1.9736 -0.4512
 6873TIP3    H242035   0.933   4.983  17.252 -0.3046 -0.3608 -1.1419
 6874TIP3   OH242036   0.036   0.738   4.209  0.8367  0.2308  0.1469
 6874TIP3    H142037   0.036   0.801   4.137  1.8646  0.7704  0.6044
 6874TIP3    H242038  -0.040   0.762   4.262 -1.4024 -1.6233 -1.9264
 6875TIP3   OH242039   5.877   3.004   5.125 -0.4507 -0.4385  0.3573
 6875TIP3    H142040   5.807   2.974   5.068 -0.2714  0.4653 -0.3549
 6875TIP3    H242041   5.933   3.058   5.069  1.8693 -2.5724  0.3849
 6876TIP3   OH242042   5.148   5.746   3.100 -0.5839  0.0811 -0.3297
 6876TIP3    H142043   5.090   5.681   3.142 -3.1042  1.3997 -1.5524
 6876TIP3    H242044   5.113   5.830   3.128  2.6612  1.0589  1.2700
 6877TIP3   OH242045   0.770   2.620  12.564  0.3203  0.1400 -0.0291
 6877TIP3    H142046   0.785   2.715  12.562  0.5316  0.3518  4.0706
 6877TIP3    H242047   0.675   2.611  12.571  0.3311  0.0633  0.0209
 6878TIP3   OH242048   5.294   2.416   1.244 -0.2602 -0.6360  0.6226
 6878TIP3    H142049   5.308   2.427   1.150  0.8545 -1.5825  0.6463
 6878TIP3    H242050   5.380   2.391   1.278 -0.3703  0.8152  2.0893
 6879TIP3   OH242051   2.545   1.927  15.505 -0.2993  0.0695  0.5392
 6879TIP3    H142052   2.480   1.858  15.517 -0.3601  0.1114  0.4529
 6879TIP3    H242053   2.623   1.895  15.551 -0.5377  0.2395  1.0717
 6880TIP3   OH242054   3.744   5.671   1.810  0.0508  0.1366 -0.1617
 6880TIP3    H142055   3.765   5.664   1.717 -0.5967  0.8021 -0.3630
 6880TIP3    H242056   3.652   5.648   1.817  0.5324 -1.7847  0.5910
 6881TIP3   OH242057   6.543   5.239  16.135 -0.6947  0.0105  0.1498
 6881TIP3    H142058   6.538   5.275  16.046  1.6311 -0.6465 -0.3196
 6881TIP3    H242059   6.634   5.255  16.162 -0.6784 -1.9837  1.4581
 6882TIP3   OH242060   1.546   0.830   4.002  0.4230 -0.0632 -0.2649
 6882TIP3    H142061   1.569   0.741   4.027 -0.0684 -0.2803 -0.5845
 6882TIP3    H242062   1.605   0.850   3.929  1.5871  0.4307  0.7632
 6883TIP3   OH242063   2.957   5.153   5.776 -0.0824  0.6387  0.2192
 6883TIP3    H142064   2.961   5.141   5.681 -0.8067  2.0638 -0.0154
 6883TIP3    H242065   2.864   5.154   5.796  0.0717 -0.0374  1.0065
 6884TIP3   OH242066   2.046   1.330  14.813 -0.3417  0.4605  0.1833
 6884TIP3    H142067   1.963   1.377  14.821  0.0700  1.0279  1.2318
 6884TIP3    H242068   2.108   1.381  14.865  0.9031  0.5488 -1.3265
 6885TIP3   OH242069   0.429   5.672  13.861  0.4422  0.5622  0.0582
 6885TIP3    H142070   0.382   5.746  13.823 -2.0855 -0.2768  1.3355
 6885TIP3    H242071   0.409   5.599  13.804 -0.0630  0.1340  0.7710
 6886TIP3   OH242072   5.262   0.748  11.354 -0.9531 -0.3589  0.0704
 6886TIP3    H142073   5.256   0.720  11.263 -1.1355 -2.7762  0.7701
 6886TIP3    H242074   5.315   0.681  11.397 -1.1773  0.5252  1.8421
 6887TIP3   OH242075   2.363   1.429  15.894 -0.5126 -0.5910  0.9878
 6887TIP3    H142076   2.436   1.424  15.832 -0.9728 -0.4273  0.4227
 6887TIP3    H242077   2.358   1.341  15.932 -1.9147 -1.5380 -1.1930
 6888TIP3   OH242078   4.786   2.484  15.275  0.2705 -0.4678 -0.2939
 6888TIP3    H142079   4.743   2.417  15.329  0.3238  0.4697  0.9474
 6888TIP3    H242080   4.857   2.437  15.231 -2.0519 -2.1273 -2.5761
 6889TIP3   OH242081   1.419   4.903   1.957 -0.0199  0.6834 -0.0058
 6889TIP3    H142082   1.337   4.902   1.906 -0.2131  2.1077  0.2150
 6889TIP3    H242083   1.414   4.826   2.013 -1.4019  0.9474  0.2740
 6890TIP3   OH242084   0.327   2.984   2.894  0.9872  0.3613  0.3803
 6890TIP3    H142085   0.382   2.988   2.816 -0.5470 -1.1607 -0.8788
 6890TIP3    H242086   0.335   3.070   2.935  1.3168  1.4404 -1.8385
 6891TIP3   OH242087   6.601   3.222   6.827 -0.4088 -0.1934  0.3191
 6891TIP3    H142088   6.527   3.271   6.789 -1.2783 -1.8840 -0.2850
 6891TIP3    H242089   6.590   3.133   6.794  1.3087 -0.7430  1.1097
 6892TIP3   OH242090   0.763   0.803  13.699 -0.5550  0.3788 -0.2402
 6892TIP3    H142091   0.810   0.881  13.727  0.3484  0.4152 -1.7591
 6892TIP3    H242092   0.823   0.731  13.716 -0.1958  0.3498 -1.5346
 6893TIP3   OH242093   4.963   4.499  12.398  0.4734  0.2849  0.6250
 6893TIP3    H142094   4.952   4.416  12.352 -0.0767  1.2128 -0.9966
 6893TIP3    H242095   5.058   4.514  12.398  0.5615 -0.2599  0.7833
 6894TIP3   OH242096   2.083   1.974   3.578  0.5745  0.3287 -0.2913
 6894TIP3    H142097   2.168   1.955   3.537  0.1904 -2.9220  0.1212
 6894TIP3    H242098   2.026   1.904   3.545 -0.5706 -0.6210  3.3103
 6895TIP3   OH242099   6.324   4.673   1.540  0.5230  0.6120  0.2607
 6895TIP3    H142100   6.231   4.649   1.540  0.7332 -0.2743  1.1960
 6895TIP3    H242101   6.326   4.764   1.569  0.0965 -0.2279  3.2357
 6896TIP3   OH242102   2.999   4.130   4.013 -0.3323  0.2924 -0.6267
 6896TIP3    H142103   2.970   4.069   3.944  0.9619 -0.3694 -0.6214
 6896TIP3    H242104   3.087   4.155   3.986 -0.3501  1.1359  0.0771
 6897TIP3   OH242105   0.932   4.860   4.719 -0.6062  0.2099 -0.1603
 6897TIP3    H142106   0.899   4.790   4.774  1.2068 -0.3739  0.2688
 6897TIP3    H242107   0.922   4.940   4.771  2.9764 -0.5702  2.0662
 6898TIP3   OH242108   3.499   0.144   1.758 -0.3576  0.2707  0.2755
 6898TIP3    H142109   3.555   0.186   1.822  2.1059 -0.0349 -1.5289
 6898TIP3    H242110   3.544   0.062   1.737 -1.6554 -0.1492 -1.0327
 6899TIP3   OH242111   0.699   1.169   2.001 -0.3641  0.4378 -0.0829
 6899TIP3    H142112   0.697   1.073   2.001 -0.1169  0.4059  1.3760
 6899TIP3    H242113   0.677   1.194   1.911 -1.9283 -0.9554 -0.1357
 6900TIP3   OH242114   4.082   2.315  10.601 -0.1772  0.3993  0.3949
 6900TIP3    H142115   4.011   2.370  10.635 -2.0246 -2.4067  1.4964
 6900TIP3    H242116   4.116   2.271  10.679  1.0406 -0.2000 -0.4547
 6901TIP3   OH242117   6.200   5.335  12.682  0.1153 -0.1244 -0.0533
 6901TIP3    H142118   6.255   5.405  12.648 -0.0514  0.1590  0.2473
 6901TIP3    H242119   6.112   5.354  12.649  0.6511 -2.2774 -3.1514
 6902TIP3   OH242120   1.190   1.283   0.580  0.2242 -0.1672  0.5457
 6902TIP3    H142121   1.207   1.292   0.486  1.8146 -1.7747  0.6084
 6902TIP3    H242122   1.241   1.353   0.621 -1.9494  1.7539  0.1969
 6903TIP3   OH242123   0.413   3.163   0.621 -0.3761  0.1101  0.1459
 6903TIP3    H142124   0.503   3.161   0.655 -0.1689 -1.4816 -0.4280
 6903TIP3    H242125   0.365   3.102   0.677 -0.0049 -2.6575 -2.3311
 6904TIP3   OH242126   5.852   6.235   1.143  0.1442 -0.2196 -0.0321
 6904TIP3    H142127   5.860   6.167   1.076  1.1521 -0.9127  0.7656
 6904TIP3    H242128   5.780   6.204   1.199 -0.7784  0.4181 -0.8214
 6905TIP3   OH242129   0.521   2.594   5.413  0.0595  0.4607 -0.0613
 6905TIP3    H142130   0.559   2.526   5.356 -1.3731  0.4184 -1.0390
 6905TIP3    H242131   0.589   2.613   5.477  0.6266 -1.6960  0.0596
 6906TIP3   OH242132   0.782   0.265   2.386  0.1161 -0.1667  0.3831
 6906TIP3    H142133   0.835   0.185   2.392  2.2243  0.9540 -1.7439
 6906TIP3    H242134   0.743   0.274   2.473  0.8393 -2.8024  1.0737
 6907TIP3   OH242135   5.911   4.624   3.152  0.3994  0.6911 -0.7210
 6907TIP3    H142136   5.913   4.637   3.246 -1.9733 -2.0394 -0.1191
 6907TIP3    H242137   5.825   4.658   3.125  1.0734  1.5041 -1.9350
 6908TIP3   OH242138   3.341   3.371   4.174 -0.1452 -0.2724 -0.3168
 6908TIP3    H142139   3.293   3.446   4.139  1.4901  0.4501 -1.1455
 6908TIP3    H242140   3.292   3.295   4.145 -1.2824  0.4403 -0.3248
 6909TIP3   OH242141   3.286   0.897   1.136 -1.2269  0.2796 -0.1263
 6909TIP3    H142142   3.195   0.897   1.166 -1.2340 -3.6660  0.4447
 6909TIP3    H242143   3.334   0.855   1.207  0.8830  1.1738 -0.9432
 6910TIP3   OH242144   5.016   4.271  16.404  0.4415 -0.4007  0.9355
 6910TIP3    H142145   5.064   4.353  16.419 -1.4575  0.6692  1.4645
 6910TIP3    H242146   4.992   4.241  16.491 -1.7548  0.3084  0.6241
 6911TIP3   OH242147   1.607   5.136   3.335 -0.3960  0.3165 -0.1244
 6911TIP3    H142148   1.617   5.055   3.386 -0.8238 -0.2283 -0.8904
 6911TIP3    H242149   1.691   5.181   3.346  0.9557 -1.5663 -1.9227
 6912TIP3   OH242150   6.251   4.807   5.609 -0.0990 -0.2979  0.2249
 6912TIP3    H142151   6.191   4.829   5.681  0.6350  0.5428  0.6022
 6912TIP3    H242152   6.288   4.723   5.634  0.1686 -0.0003  0.8573
 6913TIP3   OH242153   3.668   0.236  13.885 -0.5746 -0.0825  0.6200
 6913TIP3    H142154   3.714   0.316  13.911 -2.0004  0.7431  0.6958
 6913TIP3    H242155   3.712   0.166  13.934  1.8209  0.3569 -0.7452
 6914TIP3   OH242156   2.709   6.771   5.322 -0.2825 -0.4251 -0.3665
 6914TIP3    H142157   2.631   6.739   5.367 -0.7915 -0.3411 -1.1620
 6914TIP3    H242158   2.678   6.797   5.235  0.9663 -2.2739 -1.4371
 6915TIP3   OH242159   5.370   5.768   4.692  0.4536 -0.7386 -0.9709
 6915TIP3    H142160   5.433   5.816   4.639  1.9953  0.5991  1.8566
 6915TIP3    H242161   5.285   5.803   4.666  1.4441  3.3919  0.5811
 6916TIP3   OH242162   4.367   4.893  16.023 -0.0515  0.0463  0.4794
 6916TIP3    H142163   4.294   4.940  16.063 -1.4821 -2.9013  1.6758
 6916TIP3    H242164   4.354   4.905  15.928 -2.0857 -0.3043  0.6596
 6917TIP3   OH242165   5.466   1.241   3.254  0.6499 -0.0676 -0.0929
 6917TIP3    H142166   5.553   1.206   3.268  0.2892 -1.4890 -1.1400
 6917TIP3    H242167   5.435   1.266   3.341  2.0020  0.2700  0.3125
 6918TIP3   OH242168   4.461   2.279  14.327  0.5036 -0.5232  0.0513
 6918TIP3    H142169   4.390   2.329  14.367  2.7030  0.9762  2.3390
 6918TIP3    H242170   4.480   2.326  14.246 -0.2048 -0.1434  0.0968
 6919TIP3   OH242171   2.146   2.839  17.057  0.2851  0.6843 -0.1441
 6919TIP3    H142172   2.156   2.885  16.973  0.0385 -0.7256 -0.9889
 6919TIP3    H242173   2.082   2.770  17.039  2.1392 -1.3077  0.4483
 6920TIP3   OH242174   1.209   2.962  14.343  0.1135  0.8839  0.2075
 6920TIP3    H142175   1.181   2.977  14.252 -0.4837  0.1823  0.2566
 6920TIP3    H242176   1.157   3.023  14.395  1.7744  2.6008 -0.0544
 6921TIP3   OH242177   0.565   6.042   3.397  0.3631 -0.0871  0.9263
 6921TIP3    H142178   0.630   5.992   3.348 -0.0882 -1.8880  2.0715
 6921TIP3    H242179   0.585   6.025   3.489 -1.6058 -0.5611  1.3119
 6922TIP3   OH242180   1.339   1.090  13.015 -0.0691 -0.0554 -0.0511
 6922TIP3    H142181   1.264   1.083  13.074  0.6398 -1.1223  0.7712
 6922TIP3    H242182   1.300   1.103  12.928 -1.2792 -1.9398  0.1489
 6923TIP3   OH242183   4.589   2.014   0.923  0.1032 -0.1433  0.4254
 6923TIP3    H142184   4.624   2.084   0.869 -0.1496  0.3706  0.9110
 6923TIP3    H242185   4.542   2.060   0.993 -0.9671 -0.8022  0.1619
 6924TIP3   OH242186   0.787   1.091  16.656 -0.7694  0.0205  0.5842
 6924TIP3    H142187   0.881   1.097  16.676 -1.0020 -0.8752  2.0257
 6924TIP3    H242188   0.750   1.172  16.691 -0.9308 -0.8499  2.5356
 6925TIP3   OH242189   0.665   6.445  10.600  0.5047  0.1098  1.0722
 6925TIP3    H142190   0.752   6.486  10.601  0.4873  0.2228 -0.3611
 6925TIP3    H242191   0.604   6.519  10.603  0.4559  0.4261 -3.0421
 6926TIP3   OH242192   0.098   0.716  10.552 -0.1335 -0.1673  0.5407
 6926TIP3    H142193   0.154   0.766  10.611  0.8537  0.1551 -0.6491
 6926TIP3    H242194   0.087   0.631  10.596  1.8834 -0.5010  0.4909
 6927TIP3   OH242195   3.492   0.238  15.276 -0.1309  0.1699 -0.3375
 6927TIP3    H142196   3.506   0.316  15.222 -2.0177  1.1212  0.4547
 6927TIP3    H242197   3.522   0.263  15.363 -0.4254 -0.1081 -0.1539
 6928TIP3   OH242198   1.553   5.550  16.555 -0.3096  0.1425 -0.1181
 6928TIP3    H142199   1.598   5.489  16.497 -0.0958  1.7062 -1.6434
 6928TIP3    H242200   1.554   5.634  16.509 -2.0454  0.9489  1.1797
 6929TIP3   OH242201   4.143   6.606   3.911 -0.1661 -0.4790  0.1816
 6929TIP3    H142202   4.082   6.533   3.899 -0.7564 -0.4868  2.6238
 6929TIP3    H242203   4.202   6.577   3.981  0.0698  1.0610  0.6585
 6930TIP3   OH242204   1.002   5.430  14.620  0.0275  0.5887 -0.0445
 6930TIP3    H142205   1.034   5.472  14.700 -1.7730 -0.6231  1.4049
 6930TIP3    H242206   0.952   5.498  14.575  1.8745  1.5739 -0.7255
 6931TIP3   OH242207   5.623   1.259   5.793  0.2862  1.0617  0.3560
 6931TIP3    H142208   5.714   1.280   5.771 -0.0505  0.6847 -1.5592
 6931TIP3    H242209   5.591   1.209   5.718 -1.5842  1.4143  0.8680
 6932TIP3   OH242210   0.462   2.906   0.735  0.3226  0.2302  0.6262
 6932TIP3    H142211   0.426   2.930   0.821  1.0495  1.0715  0.7128
 6932TIP3    H242212   0.407   2.834   0.705 -0.1576  0.1531  1.6477
 6933TIP3   OH242213   1.048   2.340   2.998  0.0576 -0.0385  0.1999
 6933TIP3    H142214   1.011   2.298   3.075 -1.3835  0.3772 -0.2340
 6933TIP3    H242215   1.015   2.429   3.000  0.1762  0.0469 -0.7805
 6934TIP3   OH242216   4.470   6.436  15.698  0.2155 -0.0741 -0.2807
 6934TIP3    H142217   4.411   6.438  15.773  1.9268 -0.8122  1.1523
 6934TIP3    H242218   4.412   6.435  15.621 -1.5791  0.4872  1.0146
 6935TIP3   OH242219   5.758   5.691  16.520  0.0318  0.4715 -0.1072
 6935TIP3    H142220   5.676   5.740  16.529  0.7386  1.6390  0.1567
 6935TIP3    H242221   5.810   5.718  16.596  1.0212  0.4508 -0.7660
 6936TIP3   OH242222   6.284   3.441   0.120  0.1708  0.5334 -0.4087
 6936TIP3    H142223   6.198   3.443   0.078 -0.2921  0.5930  0.5173
 6936TIP3    H242224   6.321   3.356   0.095 -0.2534  0.4109 -0.6196
 6937TIP3   OH242225   2.045   5.652  12.043  0.2465 -0.1506 -0.5274
 6937TIP3    H142226   1.975   5.714  12.063  0.7578 -0.2512  1.9080
 6937TIP3    H242227   2.001   5.568  12.030 -0.1108 -0.6765  3.0358
 6938TIP3   OH242228   4.053   5.998  15.064 -0.4252 -0.6055 -0.3175
 6938TIP3    H142229   4.048   5.913  15.107  0.8518 -0.6381 -0.2231
 6938TIP3    H242230   4.146   6.017  15.057 -0.6842  1.0323  0.1615
 6939TIP3   OH242231   4.207   0.741  16.209  0.4435 -0.1563  0.3524
 6939TIP3    H142232   4.131   0.769  16.260  1.1429  0.8523  0.8546
 6939TIP3    H242233   4.274   0.720  16.274  1.0878  0.3997 -0.1205
 6940TIP3   OH242234   1.422   6.604   1.529 -0.3100 -0.6731 -0.9561
 6940TIP3    H142235   1.424   6.515   1.564  2.2768 -0.4104 -0.2510
 6940TIP3    H242236   1.510   6.638   1.544 -1.5504  2.5010  0.0685
 6941TIP3   OH242237   4.768   0.690  10.906 -0.6437 -0.1110  0.1401
 6941TIP3    H142238   4.690   0.636  10.892 -0.8876  0.4145 -0.5918
 6941TIP3    H242239   4.841   0.631  10.885 -0.7363 -1.0598  2.2500
 6942TIP3   OH242240   0.238   0.982  16.318  0.4080  0.1462  0.0709
 6942TIP3    H142241   0.233   1.078  16.314 -0.1701  0.0817 -0.9610
 6942TIP3    H242242   0.293   0.958  16.244 -1.0190 -0.4139 -0.8586
 6943TIP3   OH242243   3.869   5.109  10.711  0.3102  0.3084  0.2029
 6943TIP3    H142244   3.844   5.074  10.625 -0.7128 -0.2723  0.7277
 6943TIP3    H242245   3.797   5.165  10.736  0.4257  0.1715  0.8583
 6944TIP3   OH242246   5.054   2.540  15.996  0.0031 -0.4424 -0.1908
 6944TIP3    H142247   5.076   2.540  16.090 -1.7272 -0.2081  0.2421
 6944TIP3    H242248   5.009   2.457  15.982 -0.3904 -0.1489 -0.6674
 6945TIP3   OH242249   5.797   1.644  14.531  0.4800  0.4232 -0.2356
 6945TIP3    H142250   5.721   1.630  14.475  0.9060 -0.7382 -0.5481
 6945TIP3    H242251   5.836   1.557  14.542  1.4910  0.9206  0.3104
 6946TIP3   OH242252   5.627   0.030  13.933 -0.5434  0.4845 -0.1278
 6946TIP3    H142253   5.662  -0.051  13.971  0.7475  1.3101  0.5306
 6946TIP3    H242254   5.704   0.078  13.903 -0.9881  2.5041  1.6283
 6947TIP3   OH242255   4.624   2.585  10.915 -0.0489  0.4200 -0.5694
 6947TIP3    H142256   4.681   2.511  10.894  1.2004  1.5843 -1.3367
 6947TIP3    H242257   4.637   2.647  10.844 -1.0138  1.4341  0.1122
 6948TIP3   OH242258   0.261   3.633   1.577  0.2192 -0.2035  0.0430
 6948TIP3    H142259   0.354   3.644   1.557  0.4476  0.3935  1.3602
 6948TIP3    H242260   0.259   3.567   1.646 -0.2289  0.7748  0.9792
 6949TIP3   OH242261   5.144   2.525  16.269  0.7022 -0.2755  0.4791
 6949TIP3    H142262   5.115   2.502  16.357 -0.4814  2.5137  0.9214
 6949TIP3    H242263   5.237   2.549  16.280  0.5727  0.0210  0.9876
 6950TIP3   OH242264   0.155   0.618   3.237 -0.2300 -0.3684  0.6285
 6950TIP3    H142265   0.141   0.663   3.320  0.8771 -1.8758  1.6933
 6950TIP3    H242266   0.082   0.557   3.231 -0.6979  0.2279  0.1190
 6951TIP3   OH242267   4.112   4.181   3.568  0.2100  0.7666 -0.0768
 6951TIP3    H142268   4.044   4.125   3.531  0.1837 -0.2330  1.3769
 6951TIP3    H242269   4.192   4.153   3.525  0.0860  0.1098  0.1099
 6952TIP3   OH242270   4.121   0.603  13.751 -0.4317  0.2592  0.0855
 6952TIP3    H142271   4.202   0.552  13.743  0.3434  1.5889 -0.8646
 6952TIP3    H242272   4.141   0.669  13.818 -0.4367  1.0808 -0.7027
 6953TIP3   OH242273   5.566   4.779   3.822 -0.1096 -0.3615 -0.1412
 6953TIP3    H142274   5.522   4.862   3.802 -1.3868 -0.9104  0.2380
 6953TIP3    H242275   5.510   4.738   3.888 -1.4112 -3.0119 -2.6196
 6954TIP3   OH242276   2.864   1.752   3.395 -0.1420 -0.1673  0.3730
 6954TIP3    H142277   2.773   1.739   3.421 -0.6008  1.1442 -0.4731
 6954TIP3    H242278   2.877   1.694   3.320 -1.6775  2.6900 -2.3496
 6955TIP3   OH242279   6.237   5.118  16.811  0.0807  0.6079 -0.3428
 6955TIP3    H142280   6.310   5.095  16.868 -0.3725 -1.9034 -0.6529
 6955TIP3    H242281   6.185   5.180  16.862  1.2218  0.6727  0.7804
 6956TIP3   OH242282   3.455   0.679   2.382  0.1677 -0.0164 -0.1125
 6956TIP3    H142283   3.478   0.602   2.434 -1.5151  0.4158  1.3997
 6956TIP3    H242284   3.371   0.707   2.418  0.3706  2.0883 -1.1393
 6957TIP3   OH242285   6.453   0.804   5.389 -0.1808 -0.8816  0.4612
 6957TIP3    H142286   6.384   0.853   5.344 -1.5536  0.0013  3.3011
 6957TIP3    H242287   6.427   0.712   5.379  0.1849 -0.8140 -1.4286
 6958TIP3   OH242288   3.731   0.112   2.980 -0.1030 -0.4112  0.2346
 6958TIP3    H142289   3.782   0.071   2.911  1.7197  0.1061  1.1952
 6958TIP3    H242290   3.683   0.182   2.936  1.2017  0.0609 -0.5091
 6959TIP3   OH242291   3.774   4.073  12.076  0.2293  0.1386 -0.2102
 6959TIP3    H142292   3.859   4.106  12.047 -0.0062 -0.7430 -2.1379
 6959TIP3    H242293   3.768   3.986  12.036 -1.6583  0.2629 -0.2954
 6960TIP3   OH242294   0.033   0.442   3.872  0.2979  0.2144 -0.1233
 6960TIP3    H142295   0.109   0.427   3.928  0.2067  0.6703  0.1228
 6960TIP3    H242296  -0.041   0.410   3.923 -0.0560  2.5407  0.9148
 6961TIP3   OH242297   3.299   4.590  14.025 -0.0857  0.3509  0.5855
 6961TIP3    H142298   3.275   4.657  13.961  1.2216 -0.2958 -0.6316
 6961TIP3    H242299   3.224   4.532  14.029 -1.2058  1.7899  1.5852
 6962TIP3   OH242300   1.799   5.189  11.850  0.8174 -0.5632  0.0139
 6962TIP3    H142301   1.888   5.153  11.850  1.0746 -0.1044  2.4516
 6962TIP3    H242302   1.753   5.138  11.917  0.6175  2.1612  2.1210
 6963TIP3   OH242303   6.469   3.067  14.025  0.3116 -0.0403  0.1731
 6963TIP3    H142304   6.395   3.049  14.084 -1.4851 -0.1661 -1.9564
 6963TIP3    H242305   6.519   3.136  14.069 -0.0278 -1.1567  2.5102
 6964TIP3   OH242306   2.826   2.692   1.933 -0.0362  0.5920  0.3917
 6964TIP3    H142307   2.840   2.613   1.984  1.0261  0.8618  0.5566
 6964TIP3    H242308   2.795   2.756   1.997  1.5074  0.9944  0.8025
 6965TIP3   OH242309   0.013   2.200   4.104 -0.8816  0.0769 -0.0747
 6965TIP3    H142310   0.040   2.289   4.081 -0.7290 -0.3074 -1.4932
 6965TIP3    H242311   0.084   2.166   4.158 -0.8090  0.7063  0.2370
 6966TIP3   OH242312   3.398   2.269  12.128  0.2087 -0.3118  0.2626
 6966TIP3    H142313   3.433   2.256  12.039 -1.5165 -1.8845 -0.2537
 6966TIP3    H242314   3.391   2.364  12.137  1.4867 -0.0842 -0.8355
 6967TIP3   OH242315   2.212   1.800  16.257  0.1350 -0.3834 -0.1967
 6967TIP3    H142316   2.273   1.735  16.224  0.3569 -0.9198  1.2265
 6967TIP3    H242317   2.209   1.785  16.351 -0.1494  1.3757  0.1060
 6968TIP3   OH242318   1.377   4.365   3.338  0.0406 -0.2520  0.0353
 6968TIP3    H142319   1.432   4.315   3.279 -1.0211 -0.2491 -0.9942
 6968TIP3    H242320   1.429   4.374   3.418  1.0038 -1.3252 -0.4480
 6969TIP3   OH242321   6.671   3.652   4.844 -0.5248  0.1270  0.1840
 6969TIP3    H142322   6.626   3.642   4.760  0.7397 -0.1118 -0.4925
 6969TIP3    H242323   6.611   3.704   4.897 -1.6832 -0.3738 -0.5974
 6970TIP3   OH242324   0.458   1.513   0.554 -0.1897  0.1270  0.4613
 6970TIP3    H142325   0.366   1.504   0.578  0.2263 -2.1095  1.5441
 6970TIP3    H242326   0.476   1.436   0.500  0.9249  0.8094 -0.1714
 6971TIP3   OH242327   4.328   4.502  11.799  0.1191  0.4313 -0.1136
 6971TIP3    H142328   4.351   4.431  11.738  0.8528  1.3603 -0.9474
 6971TIP3    H242329   4.240   4.480  11.829 -0.1870 -0.1527 -1.3699
 6972TIP3   OH242330   3.179   1.171   1.283 -0.3321  0.4066  0.0007
 6972TIP3    H142331   3.151   1.251   1.329 -1.8961 -0.1984  0.1555
 6972TIP3    H242332   3.254   1.199   1.230  0.6753  1.4283  1.8599
 6973TIP3   OH242333   2.546   5.009  16.887  0.3327  0.2480 -0.6126
 6973TIP3    H142334   2.582   4.921  16.877 -0.7569 -0.3496  0.4274
 6973TIP3    H242335   2.610   5.067  16.844  0.9726 -1.0550 -1.4678
 6974TIP3   OH242336   2.065   0.700  16.972 -0.2750  0.5497  0.0400
 6974TIP3    H142337   2.041   0.643  16.898  0.0615 -2.4345  2.0470
 6974TIP3    H242338   1.982   0.737  17.001 -0.7145  0.0543 -0.5319
 6975TIP3   OH242339   6.359   6.026  11.630 -0.1540  0.1596  0.8085
 6975TIP3    H142340   6.448   6.059  11.642 -0.1464  0.9924 -1.1400
 6975TIP3    H242341   6.303   6.086  11.680  0.1278  1.5557 -0.4742
 6976TIP3   OH242342   2.190   6.644   3.406 -0.0826  0.1587  0.0976
 6976TIP3    H142343   2.229   6.724   3.441  0.9826 -0.5546  0.6219
 6976TIP3    H242344   2.096   6.660   3.408 -0.2234 -0.1127  4.1877
 6977TIP3   OH242345   1.544   3.445   5.466  0.4300 -0.3491 -0.4641
 6977TIP3    H142346   1.575   3.364   5.505 -1.4171 -1.5985 -1.4481
 6977TIP3    H242347   1.612   3.469   5.403  1.5833 -0.4100  0.7229
 6978TIP3   OH242348   4.710   0.831  13.126 -0.0869 -0.3526 -0.4324
 6978TIP3    H142349   4.774   0.764  13.104  1.3156  0.5613  0.6878
 6978TIP3    H242350   4.755   0.888  13.188 -0.9582  2.0889 -1.9269
 6979TIP3   OH242351   6.400   2.764  13.250  0.4678  0.4526 -0.2656
 6979TIP3    H142352   6.467   2.720  13.198 -1.0624 -2.6566  0.1794
 6979TIP3    H242353   6.364   2.830  13.191 -0.2721 -2.0029 -2.8007
 6980TIP3   OH242354   2.793   0.924  12.494 -0.0632  0.1234  0.4242
 6980TIP3    H142355   2.820   0.904  12.584  1.9757 -3.1600 -0.7429
 6980TIP3    H242356   2.710   0.877  12.483  1.0270 -1.7687 -0.1159
 6981TIP3   OH242357   1.941   3.795  13.747  0.4920  0.3501 -0.1580
 6981TIP3    H142358   1.892   3.795  13.664  0.2254 -0.1293 -0.0055
 6981TIP3    H242359   1.895   3.732  13.801 -0.0779  1.5525  0.8018
 6982TIP3   OH242360   6.336   6.075   3.079 -0.0120 -0.6975  0.3392
 6982TIP3    H142361   6.362   6.124   3.001  2.0893  1.0629  2.0090
 6982TIP3    H242362   6.361   5.985   3.061  0.0708 -0.3950 -1.1480
 6983TIP3   OH242363   0.658   2.792   2.471  0.3559 -0.5305  0.3957
 6983TIP3    H142364   0.714   2.861   2.506 -1.0192  1.4961 -1.1794
 6983TIP3    H242365   0.716   2.738   2.418  1.3854 -0.3584  1.3158
 6984TIP3   OH242366   4.275   3.216  17.265  0.6536  0.2260  0.0857
 6984TIP3    H142367   4.267   3.256  17.352 -1.9880 -2.9112  1.5049
 6984TIP3    H242368   4.214   3.266  17.210 -2.9038 -1.6264  1.9217
 6985TIP3   OH242369   4.989   2.359  11.108  0.3774 -0.1185  0.2266
 6985TIP3    H142370   5.083   2.374  11.114  0.0380  1.5504  2.2945
 6985TIP3    H242371   4.970   2.296  11.178 -0.2170  0.5116  0.6398
 6986TIP3   OH242372   3.099   4.770  14.360 -0.2215  0.3547 -0.0632
 6986TIP3    H142373   3.075   4.677  14.355  0.1996  0.2985 -1.1655
 6986TIP3    H242374   3.016   4.817  14.348 -0.5528  0.1349  1.2089
 6987TIP3   OH242375   2.338   2.039  10.922 -0.4011  0.1055  0.4425
 6987TIP3    H142376   2.400   2.077  10.984  1.1597  0.3444 -1.1542
 6987TIP3    H242377   2.257   2.027  10.972  0.6532  0.6285  2.3755
 6988TIP3   OH242378   4.025   2.121  14.007 -0.0006  0.0311 -0.0501
 6988TIP3    H142379   4.067   2.061  13.944  0.8246 -0.6165  1.0858
 6988TIP3    H242380   4.086   2.194  14.014 -1.1743  1.2586 -1.7111
 6989TIP3   OH242381   0.336   2.566   1.442  0.3017 -1.0656  0.0920
 6989TIP3    H142382   0.248   2.554   1.477  0.6702  0.3754  1.6294
 6989TIP3    H242383   0.341   2.659   1.421  1.2003 -1.2904 -0.7947
 6990TIP3   OH242384   0.853   3.373  16.899  0.6821 -0.2582 -0.1195
 6990TIP3    H142385   0.946   3.377  16.922  0.9457 -0.7950 -1.0280
 6990TIP3    H242386   0.839   3.282  16.871  0.5740  0.4461 -2.6429
 6991TIP3   OH242387   6.102   2.099   1.306 -0.6825 -0.2703 -0.2298
 6991TIP3    H142388   6.187   2.138   1.283 -0.0530 -0.9981  0.7411
 6991TIP3    H242389   6.102   2.013   1.264 -0.4991 -0.6722  0.5634
 6992TIP3   OH242390   4.656   1.223  11.039  0.1891  0.0496 -0.0366
 6992TIP3    H142391   4.610   1.306  11.032  0.0844 -0.0969 -1.1874
 6992TIP3    H242392   4.596   1.158  11.003 -0.2813 -0.7701  2.0215
 6993TIP3   OH242393   0.009   1.925   3.295  0.2640 -0.2068 -0.1621
 6993TIP3    H142394   0.078   1.948   3.357  2.1050 -2.1027 -1.3619
 6993TIP3    H242395  -0.073   1.940   3.343  1.5224  0.8747  1.7674
 6994TIP3   OH242396   3.871   6.320  14.409 -0.1108  0.6169  0.0748
 6994TIP3    H142397   3.855   6.363  14.325  0.4167 -1.1690 -0.9964
 6994TIP3    H242398   3.797   6.260  14.419 -0.0667  0.6804  0.8077
 6995TIP3   OH242399   2.466   0.151  11.868 -0.4586  0.3029  0.4541
 6995TIP3    H142400   2.512   0.067  11.879 -0.7246  0.4102  2.7598
 6995TIP3    H242401   2.533   0.210  11.833  0.7216 -0.0093  2.0670
 6996TIP3   OH242402   4.966   0.271  11.702 -0.0287  0.1346 -0.3941
 6996TIP3    H142403   4.929   0.247  11.787  0.6124 -0.8887 -0.3788
 6996TIP3    H242404   5.027   0.199  11.682  1.6540  1.5604 -0.5990
 6997TIP3   OH242405   4.831   0.358   3.296  0.1097  0.1603 -0.7871
 6997TIP3    H142406   4.744   0.385   3.324 -0.5071 -0.1396 -2.3221
 6997TIP3    H242407   4.879   0.440   3.284  0.0178  0.3291 -0.0380
 6998TIP3   OH242408   6.549   3.144  15.725 -0.4388  0.3453 -0.8178
 6998TIP3    H142409   6.462   3.152  15.687 -0.9405  1.0470  0.4238
 6998TIP3    H242410   6.582   3.060  15.694 -2.5677 -1.1154  0.6646
 6999TIP3   OH242411   6.624   2.370  13.484  0.4106 -0.6583  0.0968
 6999TIP3    H142412   6.563   2.354  13.411  1.1153  1.1385 -0.9654
 6999TIP3    H242413   6.708   2.339  13.452  0.2360 -2.4443  1.2762
 7000TIP3   OH242414   3.338   6.146  11.846 -0.2824  0.5411  0.2888
 7000TIP3    H142415   3.430   6.173  11.843 -0.4622  1.1558  0.0266
 7000TIP3    H242416   3.340   6.051  11.837  0.2278  0.7096 -2.0760
 7001TIP3   OH242417   4.543   5.371   2.797  0.3262  0.4450 -0.0425
 7001TIP3    H142418   4.469   5.311   2.793  0.2803  0.5180 -0.3030
 7001TIP3    H242419   4.505   5.458   2.782  0.4415  0.4992 -0.0268
 7002TIP3   OH242420   5.127   5.147  12.923  0.2440  0.4439 -0.2685
 7002TIP3    H142421   5.170   5.155  12.837 -0.2487  0.1544 -0.5485
 7002TIP3    H242422   5.066   5.074  12.912  1.4751 -0.8135  0.8795
 7003TIP3   OH242423   0.310   0.426  12.614 -0.2827  0.1152  0.2150
 7003TIP3    H142424   0.314   0.454  12.523 -0.5253 -0.7914 -0.0885
 7003TIP3    H242425   0.283   0.334  12.609  0.9093 -0.3064  1.1367
 7004TIP3   OH242426   2.525   1.283  11.408 -0.3384 -0.2391  0.2441
 7004TIP3    H142427   2.505   1.292  11.315 -3.4004  0.4800  0.8596
 7004TIP3    H242428   2.563   1.367  11.433  0.2774 -0.3535 -0.2716
 7005TIP3   OH242429   4.999   2.723   0.663 -0.0621  0.1901  0.2553
 7005TIP3    H142430   5.073   2.779   0.689 -0.8609  1.6223 -0.4400
 7005TIP3    H242431   5.015   2.640   0.708  0.1985  1.5643  2.8789
 7006TIP3   OH242432   6.480   2.134   0.576  0.2684  0.1867 -0.0248
 7006TIP3    H142433   6.453   2.220   0.542 -2.5687 -1.2004 -1.6009
 7006TIP3    H242434   6.445   2.132   0.665  0.1981  0.6037 -0.0378
 7007TIP3   OH242435   1.505   4.031  12.205 -0.6988  0.0745  0.3293
 7007TIP3    H142436   1.524   4.054  12.114 -2.0882  0.3057  0.0791
 7007TIP3    H242437   1.410   4.039  12.213 -0.6516 -0.4018  1.6799
 7008TIP3   OH242438   2.536   0.975   1.243 -0.3122  0.2652  0.2682
 7008TIP3    H142439   2.561   0.931   1.324  0.2131 -1.2615 -0.6663
 7008TIP3    H242440   2.442   0.992   1.253 -0.5925 -1.3280  0.6054
 7009TIP3   OH242441   1.106   1.291  13.716  0.1323  0.2454 -0.1277
 7009TIP3    H142442   1.197   1.318  13.727  0.2376 -0.2763  0.2693
 7009TIP3    H242443   1.094   1.286  13.621  0.2123  1.3342 -0.2136
 7010TIP3   OH242444   4.262   2.587  14.623  0.2047  0.5822  0.8009
 7010TIP3    H142445   4.253   2.528  14.548  0.0525  1.3788  0.1805
 7010TIP3    H242446   4.247   2.674  14.587  0.6050  1.0224  1.6711
 7011TIP3   OH242447   3.628   3.917   0.721 -0.1807 -0.2507  0.8299
 7011TIP3    H142448   3.543   3.878   0.701 -0.4037  1.0147 -1.0085
 7011TIP3    H242449   3.655   3.876   0.803 -0.6803 -3.6886 -0.5523
 7012TIP3   OH242450   3.239   3.093  11.436  0.7102 -0.2915  0.3443
 7012TIP3    H142451   3.258   3.143  11.356  0.3178  0.4009  0.6700
 7012TIP3    H242452   3.146   3.108  11.453  0.5179 -1.3706  0.3083
 7013TIP3   OH242453   0.547   1.069  14.208  0.3055 -0.2024  0.0110
 7013TIP3    H142454   0.639   1.070  14.233  0.2782  1.9530  0.1660
 7013TIP3    H242455   0.517   1.159  14.220 -1.6463 -0.6967 -0.7202
 7014TIP3   OH242456   0.190   4.038   1.632 -0.3802 -0.6622 -0.0566
 7014TIP3    H142457   0.275   4.027   1.589 -0.9510 -3.9846 -0.6440
 7014TIP3    H242458   0.212   4.051   1.725  0.7589  1.4489 -0.5616
 7015TIP3   OH242459   2.246   5.825   5.996 -0.3307  0.1132 -0.2600
 7015TIP3    H142460   2.277   5.892   6.057  1.4065 -1.2333  0.4400
 7015TIP3    H242461   2.175   5.781   6.043  1.3130 -1.2427  1.1267
 7016TIP3   OH242462   2.468   5.638  12.519  0.3733  1.0031 -0.3829
 7016TIP3    H142463   2.535   5.570  12.516 -0.3684  0.1727  0.9479
 7016TIP3    H242464   2.446   5.654  12.427  0.8838 -0.2300 -0.7442
 7017TIP3   OH242465   4.455   4.077   1.884  0.4022  0.1282 -0.3207
 7017TIP3    H142466   4.367   4.110   1.899  0.0969 -0.4510 -0.8367
 7017TIP3    H242467   4.508   4.156   1.870  0.0612  0.5001  0.4329
 7018TIP3   OH242468   1.554   2.499  13.210  0.1248  0.5873  0.6306
 7018TIP3    H142469   1.564   2.437  13.138 -1.0962  1.3403 -0.2334
 7018TIP3    H242470   1.634   2.490  13.261  0.6828 -0.5161 -0.3883
 7019TIP3   OH242471   4.062   2.681   4.063  0.3394 -0.6143  0.1126
 7019TIP3    H142472   4.147   2.661   4.102  0.5316 -1.3575 -0.6385
 7019TIP3    H242473   4.002   2.688   4.137  1.6253  3.3995  1.0064
 7020TIP3   OH242474   2.320   0.223  16.821 -0.0145  0.7188  0.1683
 7020TIP3    H142475   2.284   0.294  16.874 -0.0755 -0.0636  1.2114
 7020TIP3    H242476   2.374   0.268  16.755  0.7611  1.7085  1.4114
 7021TIP3   OH242477   0.061   1.934  13.500  0.0225 -0.0801  0.5568
 7021TIP3    H142478   0.000   1.867  13.469  0.8881 -1.0672  0.9185
 7021TIP3    H242479   0.036   1.948  13.591 -1.0690  1.1594  0.0923
 7022TIP3   OH242480   2.711   4.651  12.293 -0.4136  0.0854 -0.5329
 7022TIP3    H142481   2.688   4.680  12.382  0.9337 -1.3063  0.3378
 7022TIP3    H242482   2.776   4.715  12.263  0.5643 -0.4722  0.3022
 7023TIP3   OH242483   5.054   5.048  16.000 -0.4859  0.1959 -0.2403
 7023TIP3    H142484   5.019   5.082  15.917 -1.0584  0.3441  0.0574
 7023TIP3    H242485   5.082   5.126  16.048  2.6909 -0.0067 -1.4914
 7024TIP3   OH242486   2.915   2.183   2.701 -0.2680 -0.0589  0.0407
 7024TIP3    H142487   2.996   2.168   2.751 -0.4441  0.7459  0.5797
 7024TIP3    H242488   2.908   2.106   2.645  1.0732  0.0327 -0.2946
 7025TIP3   OH242489   3.258   3.969   2.375  0.0528  0.1936 -0.1484
 7025TIP3    H142490   3.334   3.921   2.408 -0.3348  0.9809  2.0964
 7025TIP3    H242491   3.291   4.014   2.298  1.8732  0.4052  0.6807
 7026TIP3   OH242492   6.411   1.594  16.455  0.1011  0.3346  0.0799
 7026TIP3    H142493   6.456   1.515  16.483  2.4590  1.2568 -0.8501
 7026TIP3    H242494   6.420   1.654  16.530 -2.2845 -0.4329  1.0564
 7027TIP3   OH242495   6.297   3.942   2.421  0.6439  0.3214  0.3940
 7027TIP3    H142496   6.352   3.866   2.398  0.8251 -0.2133  2.3900
 7027TIP3    H242497   6.267   3.923   2.510 -1.0385  1.6363  0.1490
 7028TIP3   OH242498   2.501   5.514  14.237  0.1155  0.4081  0.2150
 7028TIP3    H142499   2.413   5.495  14.270 -0.2165  0.4382 -0.6351
 7028TIP3    H242500   2.556   5.516  14.316 -0.7395  0.9677  0.8246
 7029TIP3   OH242501   3.100   3.824   0.640  0.3913  0.6292  0.3250
 7029TIP3    H142502   3.050   3.899   0.672 -2.6214 -0.3006 -1.7896
 7029TIP3    H242503   3.069   3.811   0.550  1.3076 -2.7108  0.3677
 7030TIP3   OH242504   1.167   2.647  15.250 -0.0461 -0.2791  0.1979
 7030TIP3    H142505   1.201   2.631  15.338  0.3061  1.6689  0.4595
 7030TIP3    H242506   1.245   2.669  15.199 -0.1724 -1.9327 -0.7794
 7031TIP3   OH242507   5.354   3.456   6.268 -0.4758  0.1459  0.0274
 7031TIP3    H142508   5.263   3.458   6.240 -0.0253  1.2681 -1.5265
 7031TIP3    H242509   5.352   3.479   6.360 -1.8448 -1.1350  0.3606
 7032TIP3   OH242510   3.155   4.342  12.728  0.0235 -0.1169 -0.1101
 7032TIP3    H142511   3.130   4.259  12.768 -0.7885 -0.8460 -2.0229
 7032TIP3    H242512   3.073   4.382  12.701  0.5498 -0.0259 -1.6987
 7033TIP3   OH242513   1.191   6.141   1.811 -0.1576 -0.0590  0.0690
 7033TIP3    H142514   1.196   6.049   1.836 -0.5752  0.0152  0.4419
 7033TIP3    H242515   1.255   6.185   1.867 -1.4632  0.1855  1.4224
 7034TIP3   OH242516   6.584   2.270   2.278  0.5536  0.1933  0.0072
 7034TIP3    H142517   6.558   2.189   2.232 -0.9031 -0.2494  1.4947
 7034TIP3    H242518   6.618   2.239   2.362  0.0600  1.1187  0.5556
 7035TIP3   OH242519   6.533   2.319   3.340  0.1316  0.2273  0.3248
 7035TIP3    H142520   6.626   2.337   3.329 -0.0636  1.0126 -0.1238
 7035TIP3    H242521   6.528   2.225   3.354  0.9395  0.0964 -0.2163
 7036TIP3   OH242522   2.667   2.828   2.460  0.5996  0.2052 -0.7469
 7036TIP3    H142523   2.698   2.837   2.550  1.5944  0.0664 -1.0697
 7036TIP3    H242524   2.719   2.757   2.423 -0.6708 -0.5970 -1.0640
 7037TIP3   OH242525   3.249   0.838  16.914  0.0831  0.2560  0.0480
 7037TIP3    H142526   3.239   0.835  16.819  0.1080  1.5054 -0.0189
 7037TIP3    H242527   3.273   0.929  16.932  0.7493 -0.1271  1.1895
 7038TIP3   OH242528   4.045   3.772  11.789 -0.4134  0.3622 -0.1203
 7038TIP3    H142529   4.039   3.688  11.745 -0.1046  0.8253 -1.0714
 7038TIP3    H242530   4.097   3.827  11.730  1.4721  0.5202  1.5659
 7039TIP3   OH242531   1.204   0.285   1.390 -0.1555  0.3991  0.2520
 7039TIP3    H142532   1.263   0.335   1.335  0.4494 -0.1569  0.3835
 7039TIP3    H242533   1.261   0.233   1.447 -0.7650  0.1639  0.6688
 7040TIP3   OH242534   3.701   0.447  16.746 -0.4786 -0.0231  0.0136
 7040TIP3    H142535   3.690   0.421  16.837 -0.5427 -3.5999 -0.8981
 7040TIP3    H242536   3.776   0.398  16.715 -0.2587  1.3466 -1.8346
 7041TIP3   OH242537   6.467   3.324  11.838 -0.1548  0.2446 -0.0692
 7041TIP3    H142538   6.525   3.334  11.762 -0.3862  2.6665 -0.0178
 7041TIP3    H242539   6.381   3.305  11.800  0.3457 -2.0303 -0.2009
 7042TIP3   OH242540   1.977   2.954  15.871 -0.2719  0.3348 -0.2880
 7042TIP3    H142541   1.997   2.987  15.958 -0.4060  1.6742 -0.7425
 7042TIP3    H242542   2.022   2.870  15.866 -0.2222  0.2634  1.0467
 7043TIP3   OH242543   4.280   3.504   6.298  0.0689 -0.5248  0.0551
 7043TIP3    H142544   4.321   3.444   6.360  0.0283  2.0425  2.7654
 7043TIP3    H242545   4.213   3.550   6.349 -0.7250  0.9756 -2.1874
 7044TIP3   OH242546   4.469   0.234  13.811 -0.3006 -0.0592  0.2663
 7044TIP3    H142547   4.379   0.253  13.784 -0.8719 -2.2521  0.4237
 7044TIP3    H242548   4.461   0.203  13.901  0.7512  0.6539  0.6199
 7045TIP3   OH242549   6.055   4.339   2.519  0.5533 -0.3796 -0.2650
 7045TIP3    H142550   6.016   4.415   2.475 -0.1162 -1.1290 -1.0152
 7045TIP3    H242551   6.116   4.304   2.455 -0.6058 -1.6278 -0.7334
 7046TIP3   OH242552   5.930   2.121  11.450  0.1650 -0.2327  0.0654
 7046TIP3    H142553   5.852   2.111  11.396 -0.2814  2.5487  0.0424
 7046TIP3    H242554   5.994   2.163  11.392  1.7440 -2.4101  0.0964
 7047TIP3   OH242555   2.879   3.921  15.330 -0.5590  0.6111  0.2924
 7047TIP3    H142556   2.890   3.955  15.418  1.4899  0.8952 -0.0241
 7047TIP3    H242557   2.941   3.848  15.325 -2.6713 -1.2685 -0.0341
 7048TIP3   OH242558   3.351   0.809  12.774  0.5050 -0.2134  0.1223
 7048TIP3    H142559   3.355   0.881  12.711  0.3996 -1.4094 -1.3382
 7048TIP3    H242560   3.259   0.783  12.776  0.5337 -0.2812  0.6557
 7049TIP3   OH242561   0.633   3.222  15.384 -0.4339 -0.7911  0.3499
 7049TIP3    H142562   0.673   3.202  15.300  1.6234  3.3497  0.0634
 7049TIP3    H242563   0.589   3.306  15.369  0.2434  0.2262  3.4056
 7050TIP3   OH242564   4.514   0.933  16.613  0.0220 -0.1705 -0.9940
 7050TIP3    H142565   4.585   0.996  16.629 -0.1773  0.4611 -2.3998
 7050TIP3    H242566   4.535   0.858  16.668  0.6853  0.8248  0.1512
 7051TIP3   OH242567   4.954   5.177  13.303  0.4135  0.0524 -0.0539
 7051TIP3    H142568   5.004   5.254  13.331  1.7564 -0.5751 -0.6339
 7051TIP3    H242569   4.865   5.209  13.293  0.8823  1.4613  0.0237
 7052TIP3   OH242570   5.310   0.059   1.912  0.4222  0.2362 -0.0187
 7052TIP3    H142571   5.238   0.095   1.964  2.2820  1.4962  1.8655
 7052TIP3    H242572   5.352  -0.004   1.971  0.2545 -1.3053 -1.4790
 7053TIP3   OH242573   4.687   1.037  11.224 -0.3076 -0.4902  0.1658
 7053TIP3    H142574   4.678   0.946  11.193  1.2021 -0.5789 -0.0737
 7053TIP3    H242575   4.695   1.089  11.144 -0.4293 -0.2403  0.3172
 7054TIP3   OH242576   0.366   3.585   5.614  0.4802  0.3516  0.4914
 7054TIP3    H142577   0.297   3.521   5.630  0.5825  0.4652  1.4308
 7054TIP3    H242578   0.447   3.534   5.615  0.6426  0.5791  2.0773
 7055TIP3   OH242579   0.691   1.221   2.288 -0.2623  0.3246  0.0648
 7055TIP3    H142580   0.687   1.180   2.202 -0.3026  0.9417 -0.2315
 7055TIP3    H242581   0.768   1.277   2.285  0.0138 -0.0119  0.5983
 7056TIP3   OH242582   0.525   5.927  12.158 -0.1999 -0.1005  0.4697
 7056TIP3    H142583   0.610   5.926  12.202  0.2377 -2.6686 -0.2669
 7056TIP3    H242584   0.539   5.876  12.078 -1.6991  2.0035 -1.2581
 7057TIP3   OH242585   3.712   4.116   2.469  0.2004 -0.0920  0.2896
 7057TIP3    H142586   3.746   4.102   2.557  0.5185  0.8403  0.3329
 7057TIP3    H242587   3.635   4.172   2.481 -0.3870 -0.8417  0.0587
 7058TIP3   OH242588   1.319   4.184   0.005 -0.3828 -0.0359  0.0279
 7058TIP3    H142589   1.235   4.146  -0.020 -0.5876  0.6823 -0.4000
 7058TIP3    H242590   1.361   4.116   0.059 -0.7589 -0.8290 -0.6604
 7059TIP3   OH242591   6.684   4.938   1.397 -0.1735  0.0906 -0.2356
 7059TIP3    H142592   6.745   5.009   1.418 -0.3592 -0.1569  1.2514
 7059TIP3    H242593   6.681   4.937   1.301 -0.7416  2.5863 -0.3297
 7060TIP3   OH242594   4.966   0.711   0.326  0.5594  0.1391  0.2338
 7060TIP3    H142595   4.999   0.799   0.309 -0.3633  0.3138 -0.7630
 7060TIP3    H242596   4.876   0.712   0.293  0.5726 -1.2130  0.0921
 7061TIP3   OH242597   1.887   1.111   2.965  0.3207  0.8312  0.5503
 7061TIP3    H142598   1.888   1.030   3.017 -1.5358  0.5155  0.1768
 7061TIP3    H242599   1.893   1.181   3.030  1.1945  0.4028  0.9399
 7062TIP3   OH242600   6.077   5.913   0.608 -0.7386 -0.5345  0.7256
 7062TIP3    H142601   6.110   6.002   0.608  0.4297 -0.9429 -0.3496
 7062TIP3    H242602   6.154   5.858   0.597 -1.4291 -1.6888  1.4259
 7063TIP3   OH242603   4.572   3.247   1.806  0.4096  0.1345 -0.3247
 7063TIP3    H142604   4.585   3.341   1.818  0.5572  0.0265  0.4490
 7063TIP3    H242605   4.481   3.232   1.831  1.0725 -0.2928  2.1881
 7064TIP3   OH242606   3.911   1.934   4.866 -0.1822  0.1356 -0.0721
 7064TIP3    H142607   3.831   1.914   4.818 -0.9298  1.5259  0.5362
 7064TIP3    H242608   3.885   1.930   4.958  0.2052  1.5169  0.1084
 7065TIP3   OH242609   2.043   1.454   5.627 -0.1517  0.3725 -0.0915
 7065TIP3    H142610   1.950   1.447   5.605 -0.3799  1.3501  0.4921
 7065TIP3    H242611   2.060   1.548   5.631  0.7624  0.2062  0.2096
 7066TIP3   OH242612   5.018   1.793   2.758 -0.7082  1.1556  0.0097
 7066TIP3    H142613   5.056   1.775   2.673  0.0150  1.3600  0.2858
 7066TIP3    H242614   4.951   1.859   2.740 -0.3336  1.4420 -0.3561
 7067TIP3   OH242615   0.497   6.384   2.653  0.4291  0.3166 -0.7117
 7067TIP3    H142616   0.501   6.477   2.633  1.4927  0.6456  0.8680
 7067TIP3    H242617   0.450   6.379   2.737 -0.3798 -0.6456 -1.1977
 7068TIP3   OH242618   6.160   5.174   5.648  0.2880  0.3522 -0.0384
 7068TIP3    H142619   6.123   5.243   5.592 -1.6172 -0.1062  0.5829
 7068TIP3    H242620   6.214   5.221   5.712  0.2514  1.1191 -0.5581
 7069TIP3   OH242621   1.035   6.718  13.311  0.0013  0.3006 -0.7490
 7069TIP3    H142622   1.074   6.632  13.328  1.3319  1.1156  0.6164
 7069TIP3    H242623   0.947   6.713  13.348  0.4753 -0.1288  0.3504
 7070TIP3   OH242624   6.094   1.276   5.760  0.6100  0.2505  0.6073
 7070TIP3    H142625   6.062   1.258   5.849  0.3828  0.4286  0.5632
 7070TIP3    H242626   6.109   1.371   5.758  0.1022  0.3270  0.2924
 7071TIP3   OH242627   4.559   4.868   1.914 -0.4120  0.4545  0.4100
 7071TIP3    H142628   4.638   4.865   1.859 -1.2776  1.7656 -0.9898
 7071TIP3    H242629   4.590   4.898   1.999  0.6680  0.5728 -0.0099
 7072TIP3   OH242630   6.092   4.394  16.868 -0.5826  0.5687 -0.1162
 7072TIP3    H142631   6.133   4.321  16.824  0.5483  0.8998  0.3580
 7072TIP3    H242632   6.096   4.466  16.805  1.0013  1.0323  0.4776
 7073TIP3   OH242633   2.442   3.554   4.057 -0.8927  0.6272 -0.5462
 7073TIP3    H142634   2.439   3.459   4.042  0.3460  0.4078  0.4285
 7073TIP3    H242635   2.422   3.564   4.150  1.0013  1.1188 -0.1513
 7074TIP3   OH242636   0.103   5.139   1.507 -0.5761 -0.9520  0.2001
 7074TIP3    H142637   0.154   5.070   1.464 -0.1507 -0.9217  0.6461
 7074TIP3    H242638   0.169   5.203   1.533 -0.9040 -0.6753  0.3403
 7075TIP3   OH242639   3.348   5.842  15.657  0.0433 -0.3945  0.1824
 7075TIP3    H142640   3.432   5.831  15.612 -0.1409 -1.8505  0.1555
 7075TIP3    H242641   3.323   5.933  15.639  0.3760 -0.6820 -1.9560
 7076TIP3   OH242642   0.828   4.382   5.075  0.4980 -0.2518  0.7045
 7076TIP3    H142643   0.841   4.287   5.077  0.0878 -0.3543 -0.5524
 7076TIP3    H242644   0.894   4.413   5.013  1.2185  0.4088  1.7641
 7077TIP3   OH242645   2.255   4.421   5.580 -0.4071  0.2563 -0.6706
 7077TIP3    H142646   2.242   4.489   5.646  0.3350 -0.5299  0.3123
 7077TIP3    H242647   2.195   4.446   5.508 -0.5572  1.6155 -0.1063
 7078TIP3   OH242648   0.853   2.367  15.292 -0.3697 -0.0789 -0.0785
 7078TIP3    H142649   0.933   2.340  15.248 -1.4918  0.0151 -2.3025
 7078TIP3    H242650   0.882   2.433  15.356  1.4087 -0.7254 -0.1760
 7079TIP3   OH242651   2.954   5.950   4.705  0.8393 -0.0744 -0.2342
 7079TIP3    H142652   3.000   5.987   4.780 -1.8721 -1.2483  2.2157
 7079TIP3    H242653   2.958   5.855   4.719 -1.2539 -0.2503 -0.5127
 7080TIP3   OH242654   2.679   0.679   5.668 -0.3939 -0.3308  0.2629
 7080TIP3    H142655   2.647   0.650   5.753  0.6657  1.1600  1.2124
 7080TIP3    H242656   2.712   0.599   5.626 -2.6048 -1.3965  0.4329
 7081TIP3   OH242657   5.600   0.645   5.577 -0.5378 -0.3329 -0.1431
 7081TIP3    H142658   5.642   0.698   5.645  0.9186 -0.3086 -1.0208
 7081TIP3    H242659   5.645   0.669   5.496 -0.3509 -2.3268 -0.6908
 7082TIP3   OH242660   1.436   5.349  12.298  0.3331  0.0045  0.4533
 7082TIP3    H142661   1.493   5.374  12.370  0.6913  0.4290  0.0312
 7082TIP3    H242662   1.411   5.258  12.317  0.5292  0.0688  1.0341
 7083TIP3   OH242663   4.924   2.944  16.753 -0.2514  0.4411  0.6425
 7083TIP3    H142664   4.942   2.884  16.681 -2.1435  0.2285  0.2929
 7083TIP3    H242665   4.991   3.012  16.745 -0.3216  0.3435 -1.2374
 7084TIP3   OH242666   0.228   4.605  14.854 -0.2082 -0.0768 -0.0687
 7084TIP3    H142667   0.278   4.675  14.897 -2.0955  1.2555  0.0815
 7084TIP3    H242668   0.184   4.560  14.925  1.1453 -1.6288 -0.1469
 7085TIP3   OH242669   2.951   1.294   6.493 -0.4173  0.6470 -0.4049
 7085TIP3    H142670   2.927   1.365   6.552  1.0809  0.4454  0.5109
 7085TIP3    H242671   3.043   1.277   6.513  0.4235  1.1413 -3.4121
 7086TIP3   OH242672   5.637   3.589   4.069  0.3266 -0.3630  0.5249
 7086TIP3    H142673   5.591   3.639   4.137 -0.2858 -0.2843  0.0625
 7086TIP3    H242674   5.623   3.640   3.989  2.5120  0.4766  0.6078
 7087TIP3   OH242675   2.983   1.604   0.559 -0.3491 -0.6066  0.0730
 7087TIP3    H142676   2.925   1.619   0.484 -0.0450 -1.2971 -0.3093
 7087TIP3    H242677   2.931   1.552   0.620 -0.2777 -0.8722 -0.0894
 7088TIP3   OH242678   5.637   5.392  14.932  0.2045 -0.1130  0.4324
 7088TIP3    H142679   5.675   5.379  14.845  0.9105 -1.3453  0.9010
 7088TIP3    H242680   5.561   5.447  14.916  0.7447  0.2984 -0.8697
 7089TIP3   OH242681   4.580   6.701   0.777 -0.3228 -0.1842 -0.6149
 7089TIP3    H142682   4.570   6.663   0.864  0.5580  1.0393  0.0607
 7089TIP3    H242683   4.669   6.738   0.778 -1.0782  1.7582 -1.2430
 7090TIP3   OH242684   0.691   4.338  10.401  0.0455  0.3510 -0.5592
 7090TIP3    H142685   0.710   4.272  10.335  2.5043 -0.6295  0.9987
 7090TIP3    H242686   0.628   4.296  10.460  1.1301 -0.4073  0.0832
 7091TIP3   OH242687   3.037   0.065   4.743 -0.0788 -0.5482 -0.2241
 7091TIP3    H142688   2.949   0.070   4.780 -0.7617 -2.1639 -1.5095
 7091TIP3    H242689   3.028   0.009   4.666  1.9923 -0.3570 -0.6725
 7092TIP3   OH242690   1.989   6.208   1.092 -0.1035 -0.0108  0.1261
 7092TIP3    H142691   2.018   6.229   1.180  1.3594 -1.1037 -0.0556
 7092TIP3    H242692   1.994   6.292   1.045  0.9707  0.2105  0.6017
 7093TIP3   OH242693   0.653   3.663   1.908  0.3692 -0.3416 -0.2263
 7093TIP3    H142694   0.558   3.651   1.903  0.4393 -1.7892  1.1789
 7093TIP3    H242695   0.670   3.687   1.999  1.1153  2.9735 -1.1072
 7094TIP3   OH242696   3.116   5.219   5.079 -0.0516  0.1485 -0.7260
 7094TIP3    H142697   3.089   5.128   5.075  2.0852 -0.5188 -1.2039
 7094TIP3    H242698   3.143   5.240   4.989 -0.7395  1.3447 -0.6828
 7095TIP3   OH242699   6.697   3.355   0.265 -0.2102  0.4585 -0.2109
 7095TIP3    H142700   6.788   3.385   0.262  0.0269  0.0964  1.7982
 7095TIP3    H242701   6.666   3.382   0.352 -1.9458  0.3236 -0.7438
 7096TIP3   OH242702   5.113   2.814  14.409 -0.5189  0.1339 -0.3971
 7096TIP3    H142703   5.051   2.746  14.382  1.1310 -1.9408  0.7551
 7096TIP3    H242704   5.196   2.768  14.422  0.9690  2.5732 -0.5768
 7097TIP3   OH242705   2.244   0.585   2.904  0.0410 -0.8236 -0.2327
 7097TIP3    H142706   2.181   0.609   2.972 -0.2681  1.3502 -1.1979
 7097TIP3    H242707   2.310   0.533   2.950 -0.5159 -0.0162  1.5817
 7098TIP3   OH242708   6.403   6.597  13.613  0.5189 -0.0837 -0.4976
 7098TIP3    H142709   6.327   6.654  13.629  0.3052 -0.3184 -0.6667
 7098TIP3    H242710   6.446   6.636  13.536 -0.1410 -0.6602 -1.1770
 7099TIP3   OH242711   3.555   1.989   1.935 -0.1020 -0.2996  0.0406
 7099TIP3    H142712   3.562   1.968   2.028 -2.4982 -1.1541  0.0993
 7099TIP3    H242713   3.577   1.907   1.891  0.5623 -0.0246 -0.1598
 7100TIP3   OH242714   5.183   0.270  15.196  0.4389 -0.1667  0.3445
 7100TIP3    H142715   5.161   0.234  15.282  1.2023  0.2370  0.7200
 7100TIP3    H242716   5.158   0.362  15.201  0.7768 -0.0660  0.2543
 7101TIP3   OH242717   2.784   1.444  13.643  0.2417  0.0003 -0.1372
 7101TIP3    H142718   2.774   1.351  13.622 -0.3271 -0.1925  0.9275
 7101TIP3    H242719   2.871   1.451  13.681  0.0773 -0.1975  0.2795
 7102TIP3   OH242720   6.602   2.676  16.738 -1.0919  0.0126  0.1519
 7102TIP3    H142721   6.562   2.624  16.808 -0.0366 -1.1725 -0.0816
 7102TIP3    H242722   6.577   2.631  16.657 -1.1824  0.5910 -0.1492
 7103TIP3   OH242723   2.024   3.943   5.531 -0.2411  0.1745 -0.0963
 7103TIP3    H142724   2.004   3.935   5.438  0.4133 -1.5192 -0.1382
 7103TIP3    H242725   2.108   3.898   5.541 -0.5798 -0.1947  1.3983
 7104TIP3   OH242726   6.144   6.100  11.815 -0.2181  0.5386 -0.0897
 7104TIP3    H142727   6.188   6.091  11.900  1.5336 -3.0053 -1.1966
 7104TIP3    H242728   6.052   6.080  11.833  0.1237 -0.1155  1.0066
 7105TIP3   OH242729   1.243   4.027  11.535  0.1918  0.4823  0.4805
 7105TIP3    H142730   1.311   3.960  11.525 -2.4913 -2.3640 -0.4719
 7105TIP3    H242731   1.174   3.983  11.586 -1.6756  2.5547 -0.1140
 7106TIP3   OH242732   2.067   2.127   1.831  0.0140 -0.3343 -0.2986
 7106TIP3    H142733   2.088   2.174   1.750 -3.4030 -1.0128 -1.7520
 7106TIP3    H242734   2.037   2.194   1.891 -0.7152 -0.1576 -0.8436
 7107TIP3   OH242735   6.485   4.961  15.684 -0.1660 -0.7068 -0.5886
 7107TIP3    H142736   6.478   5.043  15.635  0.5894  0.2164  0.7715
 7107TIP3    H242737   6.568   4.922  15.655 -0.0015 -0.4497 -0.4684
 7108TIP3   OH242738   0.039   0.914  13.672 -0.1532 -0.3613 -0.0148
 7108TIP3    H142739   0.092   0.836  13.688 -0.1920 -0.5545 -0.8045
 7108TIP3    H242740   0.074   0.951  13.590 -0.3049  0.3024  0.2104
 7109TIP3   OH242741   4.942   2.654   1.991  0.1556  0.0996 -0.0187
 7109TIP3    H142742   4.864   2.671   1.937 -0.3334 -1.9700 -0.0165
 7109TIP3    H242743   4.912   2.593   2.058  1.7631 -0.6252  0.0702
 7110TIP3   OH242744   6.324   3.396   5.404 -0.3929 -0.0074 -0.4953
 7110TIP3    H142745   6.272   3.317   5.418  0.0561 -0.2431 -0.1303
 7110TIP3    H242746   6.324   3.408   5.309  1.0534 -1.5004 -0.7290
 7111TIP3   OH242747   4.457   4.470   4.572  0.0867  0.4757  0.1287
 7111TIP3    H142748   4.430   4.551   4.615 -0.0019  0.9737 -0.8409
 7111TIP3    H242749   4.376   4.420   4.561 -0.1865  1.1400 -1.0617
 7112TIP3   OH242750   2.542   2.314   0.983  0.0526  0.2463 -0.4473
 7112TIP3    H142751   2.523   2.377   0.913 -2.7263 -0.8494 -0.8009
 7112TIP3    H242752   2.490   2.344   1.057 -2.6746 -2.3222 -1.1111
 7113TIP3   OH242753   6.722   6.316   0.110 -0.4737  0.1137  0.1456
 7113TIP3    H142754   6.756   6.287   0.194 -1.7788  0.5521  0.8443
 7113TIP3    H242755   6.794   6.301   0.049  0.7081  0.3278  1.4355
 7114TIP3   OH242756   1.907   1.956  13.934  0.3556  0.4009 -0.0335
 7114TIP3    H142757   1.978   1.902  13.967 -0.2834 -0.3293  0.1636
 7114TIP3    H242758   1.929   2.044  13.963  2.2254  0.5639 -1.6701
 7115TIP3   OH242759   6.526   6.024  15.926 -0.1669  0.7132 -0.4841
 7115TIP3    H142760   6.606   6.034  15.978 -0.7432  1.0620  0.3645
 7115TIP3    H242761   6.539   6.080  15.850  0.2971  0.9610 -0.2259
 7116TIP3   OH242762   4.237   0.290  16.537 -0.1870 -0.1787  0.0389
 7116TIP3    H142763   4.174   0.220  16.521  1.9717 -2.7018  1.6645
 7116TIP3    H242764   4.281   0.303  16.453 -0.2978 -1.1683 -0.1862
 7117TIP3   OH242765   2.469   4.948  15.385  0.0854  0.1765 -0.0531
 7117TIP3    H142766   2.435   5.015  15.444 -0.4230 -0.6979  0.6784
 7117TIP3    H242767   2.563   4.944  15.406  0.6573  2.3949 -1.8802
 7118TIP3   OH242768   5.107   1.090  12.296  0.1616 -0.6553 -0.8125
 7118TIP3    H142769   5.044   1.100  12.225 -1.3331 -1.2756  0.3678
 7118TIP3    H242770   5.061   1.123  12.374  1.9530  0.5742 -0.1943
 7119TIP3   OH242771   5.800   2.861   2.083 -0.1294  0.3852 -0.7441
 7119TIP3    H142772   5.741   2.837   2.155 -1.4857  0.9051 -1.6311
 7119TIP3    H242773   5.745   2.854   2.004  0.8667  1.3733 -1.5564
 7120TIP3   OH242774   5.104   0.431  16.284  0.1127 -0.0461  0.4017
 7120TIP3    H142775   5.173   0.497  16.293 -0.0026  0.1029  0.1972
 7120TIP3    H242776   5.118   0.394  16.197 -1.4101  1.5156 -0.5677
 7121TIP3   OH242777   3.016   6.727   1.993 -0.0235  0.9934  0.3651
 7121TIP3    H142778   2.975   6.768   2.069  0.5838 -0.0931  1.2924
 7121TIP3    H242779   2.959   6.752   1.919  0.0217  3.0244  0.9610
 7122TIP3   OH242780   0.803   1.614  17.125  0.1472 -0.5462 -0.0530
 7122TIP3    H142781   0.711   1.591  17.110  0.3430 -0.8986 -0.8012
 7122TIP3    H242782   0.812   1.702  17.087 -0.2203  0.1167  1.3543
 7123TIP3   OH242783   6.661   0.569   1.059  0.1193  0.0404 -0.1904
 7123TIP3    H142784   6.581   0.613   1.086 -0.9423 -1.5417 -0.6688
 7123TIP3    H242785   6.648   0.549   0.966  1.5712  0.7885 -0.5994
 7124TIP3   OH242786   3.726   5.524   1.590  0.2280  0.3187 -0.2866
 7124TIP3    H142787   3.652   5.511   1.530  1.4034  0.7947 -1.9183
 7124TIP3    H242788   3.791   5.461   1.561  0.3442 -0.3801  1.3961
 7125TIP3   OH242789   1.244   6.703  12.631  0.2956  0.4255  0.1427
 7125TIP3    H142790   1.283   6.681  12.546  1.0437  0.1303  0.5493
 7125TIP3    H242791   1.310   6.676  12.695 -1.1773 -1.4785  0.9424
 7126TIP3   OH242792   2.701   6.475  12.600 -0.2502  0.9138 -0.3322
 7126TIP3    H142793   2.746   6.409  12.548 -0.3662  0.7992 -0.2866
 7126TIP3    H242794   2.755   6.554  12.590 -0.3807  0.9508 -0.7917
 7127TIP3   OH242795   0.263   6.337   4.412 -0.0539 -0.5757 -0.4988
 7127TIP3    H142796   0.217   6.300   4.488 -0.5838 -0.8468 -0.9504
 7127TIP3    H242797   0.204   6.405   4.379 -0.1168 -0.9044 -1.0650
 7128TIP3   OH242798   4.513   6.275   2.341 -0.2162  0.0555  0.1955
 7128TIP3    H142799   4.439   6.333   2.327  0.2819  0.5420 -0.4873
 7128TIP3    H242800   4.573   6.325   2.396  0.2118  0.2032 -0.3910
 7129TIP3   OH242801   0.929   4.922  14.511 -0.4883  0.3061  0.2653
 7129TIP3    H142802   0.938   4.919  14.415 -0.7515 -0.5772  0.2606
 7129TIP3    H242803   0.977   5.000  14.537  1.3470 -0.5540 -0.3824
 7130TIP3   OH242804   1.766   3.320   5.313  0.6024 -0.4223  0.2416
 7130TIP3    H142805   1.715   3.260   5.367  0.6879  0.1337  0.9474
 7130TIP3    H242806   1.845   3.338   5.364  0.4810  0.4473  0.1342
 7131TIP3   OH242807   3.115   5.949   6.003  0.2072  0.1674  0.1585
 7131TIP3    H142808   3.132   6.041   6.024  0.1459  0.0727  0.6406
 7131TIP3    H242809   3.039   5.926   6.057 -0.7760  0.2846 -1.1430
 7132TIP3   OH242810   2.566   3.597   2.347 -0.0800 -0.3588 -0.2858
 7132TIP3    H142811   2.658   3.614   2.368  0.4619 -0.0392 -2.6315
 7132TIP3    H242812   2.517   3.651   2.409  1.3140 -0.1533  0.6890
 7133TIP3   OH242813   3.129   1.041  13.289 -0.5905  0.5317  0.1914
 7133TIP3    H142814   3.139   1.055  13.383  1.4602  0.2362  0.0565
 7133TIP3    H242815   3.128   0.946  13.279  0.4331  0.5438 -0.1610
 7134TIP3   OH242816   2.655   5.625   6.191  0.1368  0.5524  0.1099
 7134TIP3    H142817   2.617   5.711   6.211 -0.8380  0.4812 -1.2885
 7134TIP3    H242818   2.710   5.640   6.115  0.8607  0.1385  0.5457
 7135TIP3   OH242819   3.434   0.527   0.151 -0.0635 -0.0124 -0.3647
 7135TIP3    H142820   3.365   0.463   0.169  0.6232 -0.7612 -0.3123
 7135TIP3    H242821   3.473   0.496   0.069  0.0937  0.5130 -0.4902
 7136TIP3   OH242822   1.177   4.800  12.698 -0.1562 -0.4884  0.0937
 7136TIP3    H142823   1.151   4.797  12.790  0.3938  0.2650  0.2806
 7136TIP3    H242824   1.142   4.719  12.661 -4.5760  1.2494 -0.1828
 7137TIP3   OH242825   0.117   5.627   3.640  0.1412  0.0655 -0.6138
 7137TIP3    H142826   0.025   5.605   3.629 -0.5285  1.7344  1.1392
 7137TIP3    H242827   0.117   5.708   3.692  2.5980 -0.4246  0.3169
 7138TIP3   OH242828   0.095   1.442  16.541 -0.5604 -0.1597 -0.9691
 7138TIP3    H142829   0.046   1.455  16.460  0.0955 -0.6075 -1.4376
 7138TIP3    H242830   0.165   1.507  16.537 -0.7535  0.0831 -0.5674
 7139TIP3   OH242831   0.788   0.936   4.341  0.0152 -0.2570  0.4812
 7139TIP3    H142832   0.728   1.007   4.317  1.4262  1.1509  0.9709
 7139TIP3    H242833   0.802   0.887   4.259 -0.6892  0.2473  0.0512
 7140TIP3   OH242834   0.201   2.420  17.275 -0.3633 -0.6934 -0.3025
 7140TIP3    H142835   0.180   2.385  17.361  0.9436  1.0286  0.7790
 7140TIP3    H242836   0.284   2.378  17.252  0.7782  0.9703  0.6240
 7141TIP3   OH242837   1.898   3.205  13.972  0.6569 -0.2157 -0.3653
 7141TIP3    H142838   1.829   3.270  13.957 -0.6498 -1.3994  0.2899
 7141TIP3    H242839   1.935   3.190  13.885 -0.8679 -0.5364 -1.0108
 7142TIP3   OH242840   4.138   0.972  17.077  0.4741 -0.2595  0.2422
 7142TIP3    H142841   4.211   0.950  17.019 -0.5099  1.5995 -1.8735
 7142TIP3    H242842   4.168   1.047  17.128  0.0104  0.7048 -0.8518
 7143TIP3   OH242843   2.364   5.975   1.371 -0.4107 -0.1432 -0.3010
 7143TIP3    H142844   2.388   5.883   1.380  1.3195  0.4413  1.7543
 7143TIP3    H242845   2.447   6.023   1.373 -1.3477  1.5550  0.3189
 7144TIP3   OH242846   6.004   5.190  14.129 -0.1113 -0.4227 -0.6044
 7144TIP3    H142847   6.002   5.176  14.223  2.3735 -2.7565 -0.7932
 7144TIP3    H242848   5.911   5.193  14.104 -0.8229 -0.8283  1.7297
 7145TIP3   OH242849   2.439   2.532  12.653  0.2644 -0.6765  0.5981
 7145TIP3    H142850   2.521   2.543  12.605  0.4133 -1.6803  0.6114
 7145TIP3    H242851   2.462   2.480  12.730 -0.5355 -1.7775  0.1233
 7146TIP3   OH242852   0.241   5.922  13.255 -0.3226 -0.1040 -0.3360
 7146TIP3    H142853   0.302   5.957  13.190 -0.6565 -1.6519 -1.5435
 7146TIP3    H242854   0.211   5.839  13.218 -0.4490 -1.1150  1.8501
 7147TIP3   OH242855   0.111   0.162  12.361  0.5717  0.1836  0.3291
 7147TIP3    H142856   0.113   0.066  12.359  0.4637  0.1213  2.0510
 7147TIP3    H242857   0.159   0.186  12.440 -1.7435  1.4222  1.4720
 7148TIP3   OH242858   4.997   3.561   0.090  0.2376  0.5193  0.4075
 7148TIP3    H142859   4.902   3.563   0.096  0.2324  0.1684  0.4270
 7148TIP3    H242860   5.023   3.653   0.090 -0.1979  0.6674 -1.1481
 7149TIP3   OH242861   0.568   4.317   3.463 -0.4455 -0.0871 -0.4534
 7149TIP3    H142862   0.539   4.267   3.387  0.0827 -1.3391  0.1441
 7149TIP3    H242863   0.662   4.299   3.470 -0.3409  0.5895  0.0722
 7150TIP3   OH242864   1.376   4.355   1.386 -0.3807 -0.1233 -0.1080
 7150TIP3    H142865   1.323   4.427   1.351  0.5134 -0.0795 -1.4433
 7150TIP3    H242866   1.460   4.364   1.342  0.6110 -0.4551  1.6399
 7151TIP3   OH242867   1.103   4.051  12.574 -0.2151  0.5006  0.4556
 7151TIP3    H142868   1.117   3.957  12.581 -3.1662  0.0963  2.6726
 7151TIP3    H242869   1.147   4.089  12.650  2.0682  1.1849 -1.0965
 7152TIP3   OH242870   6.495   1.131  10.680  0.0808 -0.2515  0.6235
 7152TIP3    H142871   6.420   1.076  10.703 -0.4610 -0.5952 -1.6558
 7152TIP3    H242872   6.481   1.213  10.728 -1.7480 -0.3292  0.2983
 7153TIP3   OH242873   0.167   4.489   3.994 -0.0359  0.3510 -0.1150
 7153TIP3    H142874   0.224   4.509   4.069 -2.9008 -0.2345  2.4077
 7153TIP3    H242875   0.104   4.426   4.028 -1.5368  0.1130 -3.0607
 7154TIP3   OH242876   3.659   0.010   0.809 -0.6503  0.0860 -0.1289
 7154TIP3    H142877   3.741  -0.039   0.800 -0.5202  0.0936  0.8400
 7154TIP3    H242878   3.672   0.062   0.889 -1.0270  1.2270 -0.7910
 7155TIP3   OH242879   4.768   3.764  11.788  0.4153  0.2738 -0.1873
 7155TIP3    H142880   4.726   3.722  11.864  1.0172  1.5867  0.9106
 7155TIP3    H242881   4.859   3.774  11.814  0.3171  2.1436 -0.4339
 7156TIP3   OH242882   1.534   6.336  13.286 -0.5608 -0.2254 -0.1127
 7156TIP3    H142883   1.448   6.366  13.256 -0.7157 -0.3684  0.1875
 7156TIP3    H242884   1.594   6.406  13.257 -1.0461  0.8632  1.3929
 7157TIP3   OH242885   0.045   5.680  14.058  0.0180  0.3833  0.2306
 7157TIP3    H142886  -0.039   5.672  14.014  0.5264  1.1634 -0.9359
 7157TIP3    H242887   0.026   5.662  14.150 -1.6207  1.5775  0.1740
 7158TIP3   OH242888   3.414   4.097  15.209 -0.0197 -0.3629 -0.3806
 7158TIP3    H142889   3.323   4.124  15.198  0.3469  0.4088 -1.9857
 7158TIP3    H242890   3.447   4.152  15.280 -0.3310  0.7443 -1.0530
 7159TIP3   OH242891   3.700   3.979  16.044  0.4647  0.3523 -0.0601
 7159TIP3    H142892   3.653   4.040  15.987 -1.7479  1.1065  2.4049
 7159TIP3    H242893   3.784   4.022  16.061 -0.3242  1.8577  0.1784
 7160TIP3   OH242894   1.289   4.548  13.898  0.1411  0.1095  0.2654
 7160TIP3    H142895   1.352   4.512  13.835 -0.7485 -0.2552 -0.4371
 7160TIP3    H242896   1.293   4.488  13.973 -1.4834 -1.6470 -0.9744
 7161TIP3   OH242897   0.429   5.504  14.686 -0.6283  0.0656 -0.4129
 7161TIP3    H142898   0.452   5.455  14.607  0.5549  1.1385 -0.7706
 7161TIP3    H242899   0.512   5.536  14.720 -1.1892  0.2064  0.8951
 7162TIP3   OH242900   0.020   5.689  12.790  0.1653 -0.1783 -0.0429
 7162TIP3    H142901   0.055   5.744  12.860  0.6071  0.0549 -0.4375
 7162TIP3    H242902   0.095   5.674  12.732  0.5303 -2.5884  0.9199
 7163TIP3   OH242903   0.223   5.310   3.791 -0.0395 -0.8347 -0.0199
 7163TIP3    H142904   0.176   5.376   3.841  0.8078  0.2477 -0.5829
 7163TIP3    H242905   0.156   5.266   3.739 -0.5296  0.2787 -0.3790
 7164TIP3   OH242906   4.170   2.033  15.145 -0.0654  0.4452  0.5547
 7164TIP3    H142907   4.178   2.127  15.132 -1.9833  0.6558  0.5258
 7164TIP3    H242908   4.117   2.003  15.071 -0.0343 -0.5466  0.9141
 7165TIP3   OH242909   0.275   4.907   3.803  0.0934  0.3909 -0.0149
 7165TIP3    H142910   0.221   4.829   3.813 -0.8112  0.9429 -0.4869
 7165TIP3    H242911   0.337   4.902   3.876 -0.2357 -0.5296  0.2216
 7166TIP3   OH242912   2.136   5.766  13.630  0.2438 -0.5733  0.5367
 7166TIP3    H142913   2.221   5.811  13.634  0.5602 -1.0968 -0.0730
 7166TIP3    H242914   2.081   5.814  13.691  1.5035 -1.3374  2.3660
 7167TIP3   OH242915   0.583   4.508   5.689  0.6408  0.3734 -0.2516
 7167TIP3    H142916   0.568   4.442   5.757  1.3453 -1.3023 -1.6347
 7167TIP3    H242917   0.495   4.537   5.664  0.3406  0.3463  0.7339
 7168TIP3   OH242918   4.959   4.856   3.387  0.3234 -0.1282  0.3637
 7168TIP3    H142919   4.874   4.835   3.349  0.7252  0.1443 -0.7262
 7168TIP3    H242920   4.939   4.911   3.463 -0.5358 -1.3119  1.0336
 7169TIP3   OH242921   6.451   6.191   5.524  0.2315  0.1464  0.8622
 7169TIP3    H142922   6.357   6.191   5.539  0.1432 -0.2215  0.3121
 7169TIP3    H242923   6.489   6.194   5.612 -0.2883  0.3173  1.0857
 7170TIP3   OH242924   5.507   0.323  14.750 -0.0244  0.4082 -0.3197
 7170TIP3    H142925   5.471   0.240  14.781  0.8814  0.1116 -0.0256
 7170TIP3    H242926   5.551   0.300  14.668 -0.1755  0.6885 -0.4797
 7171TIP3   OH242927   1.532   4.332   0.093 -0.4269 -0.0177 -1.2802
 7171TIP3    H142928   1.455   4.298   0.048 -1.5722 -1.7641  1.7141
 7171TIP3    H242929   1.602   4.270   0.071  0.3567  1.6524 -4.1238
 7172TIP3   OH242930   4.552   3.681  12.261  0.2815 -0.1072 -0.0820
 7172TIP3    H142931   4.612   3.651  12.192  0.9131  0.4551  0.2094
 7172TIP3    H242932   4.502   3.752  12.221 -0.6576 -1.0042 -0.5269
 7173TIP3   OH242933   1.651   1.698  14.479  0.2126  0.0071 -0.9301
 7173TIP3    H142934   1.658   1.769  14.415  1.3249  0.4398 -0.3626
 7173TIP3    H242935   1.651   1.618  14.427  1.3117  0.3428 -1.4861
 7174TIP3   OH242936   1.136   2.235   3.746 -0.2587  0.4108  0.6449
 7174TIP3    H142937   1.157   2.239   3.652 -0.4507  1.4058  0.6243
 7174TIP3    H242938   1.133   2.142   3.766  0.5149  0.1890 -0.1727
 7175TIP3   OH242939   1.230   3.980   5.031  0.0036 -0.1188 -0.3823
 7175TIP3    H142940   1.262   3.943   5.114 -0.7024 -2.3884 -1.0438
 7175TIP3    H242941   1.252   3.914   4.966  0.4243  1.5665 -2.0320
 7176TIP3   OH242942   0.904   3.887  13.521  0.4028  0.1024 -0.3931
 7176TIP3    H142943   0.830   3.858  13.574  0.8481  0.1120  0.2488
 7176TIP3    H242944   0.892   3.842  13.437  0.9421 -1.8064  0.4777
 7177TIP3   OH242945   1.167   6.719   2.895  1.0015  0.0884  0.4146
 7177TIP3    H142946   1.255   6.689   2.916  0.3879 -0.7183  2.1049
 7177TIP3    H242947   1.156   6.702   2.802  2.3784 -0.4583  0.3428
 7178TIP3   OH242948   0.503   4.510  16.245 -0.1074  0.5100  0.0139
 7178TIP3    H142949   0.480   4.514  16.152 -0.2369 -0.5224 -0.0101
 7178TIP3    H242950   0.593   4.542  16.249 -0.0558  0.4381 -0.4897
 7179TIP3   OH242951   1.350   1.697   0.989  0.6427 -0.3334  0.4142
 7179TIP3    H142952   1.409   1.672   1.060 -0.0738 -0.1003  1.1099
 7179TIP3    H242953   1.359   1.792   0.983 -1.3606  0.0279  2.1212
 7180TIP3   OH242954   1.628   5.440  13.510  0.2987 -0.3115  0.1200
 7180TIP3    H142955   1.540   5.479  13.509  0.3546 -0.1731  0.4839
 7180TIP3    H242956   1.687   5.515  13.515  0.3501 -0.4307  4.0207
 7181TIP3   OH242957   0.950   4.985  16.195  0.2181 -0.5623 -0.0003
 7181TIP3    H142958   0.970   5.074  16.223  2.5027 -0.7976 -0.6713
 7181TIP3    H242959   1.011   4.968  16.123 -0.3727 -2.5632 -0.0911
 7182TIP3   OH242960   5.393   6.508   1.883 -0.3664 -0.5469 -0.0842
 7182TIP3    H142961   5.486   6.528   1.897 -0.5897  0.4988  0.0133
 7182TIP3    H242962   5.372   6.548   1.799 -0.5943 -1.2742 -0.3766
 7183TIP3   OH242963   6.588   3.504  14.559 -0.3658 -0.0933  0.3033
 7183TIP3    H142964   6.534   3.577  14.589  0.3889  1.1949 -1.3300
 7183TIP3    H242965   6.525   3.433  14.542 -1.4553  1.0474 -0.6207
 7184TIP3   OH242966   6.012   4.871   2.357  0.6192  0.3683 -0.5625
 7184TIP3    H142967   6.066   4.937   2.400 -2.1858  2.1079  0.5457
 7184TIP3    H242968   5.991   4.808   2.426 -0.2297  0.7167 -0.4892
 7185TIP3   OH242969   0.820   2.643   2.308 -0.4488  0.5509 -0.1088
 7185TIP3    H142970   0.829   2.557   2.349 -0.6432  1.0587  1.0435
 7185TIP3    H242971   0.871   2.637   2.227  0.9350 -0.1367  0.7803
 7186TIP3   OH242972   6.605   4.373   6.210  0.1007  0.4971 -0.1717
 7186TIP3    H142973   6.690   4.405   6.179  0.1082  1.2814  0.5998
 7186TIP3    H242974   6.542   4.424   6.160  0.0570 -0.4527 -1.1210
 7187TIP3   OH242975   4.170   2.628  13.908  0.2365  0.5321  0.2120
 7187TIP3    H142976   4.228   2.613  13.833  0.9623 -2.2656  1.2298
 7187TIP3    H242977   4.227   2.659  13.978  0.4166 -1.3115  0.9318
 7188TIP3   OH242978   2.723   5.548  10.658  0.2066 -0.2058  0.1153
 7188TIP3    H142979   2.637   5.571  10.624  1.2691  2.9103 -0.8416
 7188TIP3    H242980   2.747   5.468  10.611 -2.1258 -1.1859  0.4560
 7189TIP3   OH242981   1.860   3.981   4.016 -0.1135 -0.6932  0.2427
 7189TIP3    H142982   1.778   4.030   4.006 -0.3632 -1.1072  0.2440
 7189TIP3    H242983   1.910   4.030   4.081  0.2651  0.3832 -0.8277
 7190TIP3   OH242984   4.205   3.457  15.520  0.2903 -0.4901  0.7061
 7190TIP3    H142985   4.252   3.490  15.444  0.3791 -0.3284  0.8300
 7190TIP3    H242986   4.135   3.404  15.484  0.2155 -0.2576  0.5047
 7191TIP3   OH242987   4.039   3.640   1.240  0.2054  0.6782 -0.0209
 7191TIP3    H142988   4.007   3.641   1.330 -1.6699  3.1518 -0.5773
 7191TIP3    H242989   4.119   3.589   1.243 -1.2429 -1.7221  2.4923
 7192TIP3   OH242990   3.934   3.230   2.904  0.0001  0.4318  0.0757
 7192TIP3    H142991   4.023   3.266   2.913  0.1079  0.4006 -0.7489
 7192TIP3    H242992   3.946   3.136   2.912  0.3566  0.2532 -1.9618
 7193TIP3   OH242993   5.164   3.312   2.479  0.3186 -0.0659  0.1978
 7193TIP3    H142994   5.234   3.255   2.511  0.2620 -0.4236 -0.2952
 7193TIP3    H242995   5.154   3.379   2.547  0.8165 -0.2822  0.4904
 7194TIP3   OH242996   5.228   3.503  14.455 -0.6769  0.4990  0.6023
 7194TIP3    H142997   5.172   3.580  14.457 -1.3850  0.0650 -0.9493
 7194TIP3    H242998   5.181   3.441  14.398  1.3568  0.1220 -0.7605
 7195TIP3   OH242999   4.517   4.455   1.141  0.4824  0.0606 -0.9299
 7195TIP3    H143000   4.562   4.487   1.220 -0.5382  0.6593 -0.5683
 7195TIP3    H243001   4.499   4.363   1.159  0.0044  0.2592 -0.3206
 7196TIP3   OH243002   1.862   1.423   6.154  0.5280 -0.1815 -0.0056
 7196TIP3    H143003   1.820   1.448   6.071  0.2736 -0.8160 -0.0707
 7196TIP3    H243004   1.944   1.472   6.154 -0.0912  0.8894  0.0099
 7197TIP3   OH243005   2.449   3.880   0.295  0.0339 -0.1011 -0.4864
 7197TIP3    H143006   2.508   3.952   0.315  0.7101 -1.0942  1.4164
 7197TIP3    H243007   2.504   3.816   0.249 -0.3236  0.1771 -1.3191
 7198TIP3   OH243008   4.571   0.427   5.501  0.0110 -0.0540 -0.0927
 7198TIP3    H143009   4.519   0.346   5.504 -0.4853  0.1843 -1.3681
 7198TIP3    H243010   4.552   0.470   5.584 -2.1014  0.1507 -0.6122
 7199TIP3   OH243011   3.879   0.501  12.864 -0.3266  0.4110 -0.0960
 7199TIP3    H143012   3.823   0.578  12.876 -2.0730 -0.3528 -2.5733
 7199TIP3    H243013   3.965   0.530  12.894 -0.9793  3.2473 -0.6050
 7200TIP3   OH243014   1.380   0.214   0.193  0.1207 -0.2516  0.5433
 7200TIP3    H143015   1.450   0.279   0.189  1.0846 -1.2692  0.3007
 7200TIP3    H243016   1.390   0.162   0.113 -2.5898  1.1981 -0.8399
 7201TIP3   OH243017   1.497   3.963  12.894 -0.5672 -0.3760  0.1797
 7201TIP3    H143018   1.483   3.918  12.977 -0.0929 -1.2740 -0.2055
 7201TIP3    H243019   1.449   4.045  12.902 -0.0801 -0.2065  1.5409
 7202TIP3   OH243020   2.880   6.652  12.419  0.0680 -0.0027 -0.1841
 7202TIP3    H143021   2.970   6.641  12.450  0.5361  1.7331 -0.7791
 7202TIP3    H243022   2.855   6.567  12.383  1.3088 -0.6271  0.3898
 7203TIP3   OH243023   3.415   4.019  15.640  0.6075  0.4456  0.2248
 7203TIP3    H143024   3.341   4.081  15.636 -0.0048 -0.3044 -0.3078
 7203TIP3    H243025   3.393   3.951  15.577  2.4626  0.9348 -1.0294
 7204TIP3   OH243026   1.901   1.482  12.458  0.2623 -0.4816  0.2027
 7204TIP3    H143027   1.876   1.417  12.524  1.5483 -0.2755  0.9360
 7204TIP3    H243028   1.996   1.478  12.456  0.3108  0.6697 -0.4764
 7205TIP3   OH243029   0.222   0.695  16.066 -0.1805 -0.0827 -0.3123
 7205TIP3    H143030   0.135   0.735  16.064  1.5180  4.2900  1.0775
 7205TIP3    H243031   0.216   0.627  16.134 -2.1348  1.2509  0.9490
 7206TIP3   OH243032   1.376   3.670   5.564  0.1864 -0.0882 -0.4713
 7206TIP3    H143033   1.435   3.596   5.550 -1.1183 -1.5872  1.3433
 7206TIP3    H243034   1.424   3.730   5.621  0.8192 -0.1293 -0.9593
 7207TIP3   OH243035   5.384   1.902   0.077 -0.2828  0.0678 -0.0685
 7207TIP3    H143036   5.352   1.989   0.098  0.2407  0.0854  0.7129
 7207TIP3    H243037   5.463   1.917   0.025 -0.7338  0.0374 -0.7834
 7208TIP3   OH243038   1.904   1.307  11.577  0.2326 -0.4176 -0.0222
 7208TIP3    H143039   1.860   1.226  11.603  0.1368  0.1927  1.9311
 7208TIP3    H243040   1.835   1.374  11.579  0.4604 -0.1437 -0.8846
 7209TIP3   OH243041   3.707   4.474  10.964 -0.0653  0.1731  0.2921
 7209TIP3    H143042   3.735   4.564  10.981 -1.2999  0.5667  0.3659
 7209TIP3    H243043   3.638   4.483  10.898  0.5383 -0.8203 -0.4915
 7210TIP3   OH243044   1.153   2.615  11.498  0.0627  0.4899 -0.6487
 7210TIP3    H143045   1.070   2.602  11.452 -0.8744 -3.4099  1.7585
 7210TIP3    H243046   1.215   2.635  11.428 -2.2639  0.3409 -2.9305
 7211TIP3   OH243047   0.990   3.042  16.479  0.6060  0.0714  0.0125
 7211TIP3    H143048   1.021   2.989  16.553  0.4061  1.2955  0.9905
 7211TIP3    H243049   0.920   2.990  16.441 -1.6323  0.8409  2.7547
 7212TIP3   OH243050   4.730   1.145  16.662  0.4348 -0.1875 -0.3747
 7212TIP3    H143051   4.782   1.104  16.593  0.6196  0.0102 -0.3553
 7212TIP3    H243052   4.786   1.215  16.696  0.2470 -0.1221 -0.1954
 7213TIP3   OH243053   3.710   1.380   5.724 -0.1858  0.2593  0.5163
 7213TIP3    H143054   3.800   1.412   5.731  0.2421 -0.8269  0.2196
 7213TIP3    H243055   3.691   1.384   5.630 -0.3060  0.1040  0.5342
 7214TIP3   OH243056   3.059   3.375  12.009 -0.2565  0.2438 -0.0431
 7214TIP3    H143057   3.127   3.415  12.064 -0.5150  0.4294  0.1465
 7214TIP3    H243058   3.107   3.316  11.950  0.2245  1.3833 -0.8395
 7215TIP3   OH243059   5.583   1.188  16.477  0.4336 -0.7340  0.1569
 7215TIP3    H143060   5.669   1.178  16.436  0.1185 -0.1681 -0.6731
 7215TIP3    H243061   5.565   1.282  16.473  0.4274 -0.6346  1.7179
 7216TIP3   OH243062   3.588   4.676   2.292  0.3919 -0.1452  0.4455
 7216TIP3    H143063   3.615   4.658   2.382  0.5211 -0.5838  0.3204
 7216TIP3    H243064   3.492   4.677   2.295  0.3177 -2.1351  0.2315
 7217TIP3   OH243065   2.986   6.238   2.364 -0.0168 -0.5538 -0.1971
 7217TIP3    H143066   2.945   6.246   2.450 -0.2150  0.5324 -0.3757
 7217TIP3    H243067   2.966   6.321   2.320 -0.1437 -1.1948 -1.3911
 7218TIP3   OH243068   6.760   4.879  15.569  0.0551  0.1222 -0.1176
 7218TIP3    H143069   6.816   4.804  15.591 -1.4709 -1.5888 -1.7053
 7218TIP3    H243070   6.696   4.843  15.508 -0.6504  2.8063 -1.0635
 7219TIP3   OH243071   4.518   0.742  17.225  0.2073 -0.1826  0.4084
 7219TIP3    H143072   4.491   0.833  17.242 -0.8706 -0.3720 -0.2160
 7219TIP3    H243073   4.603   0.751  17.182 -1.6786  0.8520 -3.5911
 7220TIP3   OH243074   4.064   4.292  16.658 -0.1804  0.4576  0.1060
 7220TIP3    H143075   4.102   4.344  16.729 -0.4217  2.0757 -0.9030
 7220TIP3    H243076   3.983   4.256  16.696 -0.1812  1.0910  0.7273
 7221TIP3   OH243077   4.392   4.316  11.608 -0.1035  0.8425  0.0291
 7221TIP3    H143078   4.475   4.299  11.562 -0.3773  1.5512 -0.7594
 7221TIP3    H243079   4.326   4.271  11.554 -0.3649  1.2486  0.0025
 7222TIP3   OH243080   5.762   6.365  11.495  0.5822 -0.1314 -0.9727
 7222TIP3    H143081   5.841   6.375  11.441  0.9137 -0.5517 -0.5717
 7222TIP3    H243082   5.774   6.281  11.540 -0.5896 -0.7311 -1.7232
 7223TIP3   OH243083   2.719   6.504  16.721 -0.2822  0.0351 -0.3426
 7223TIP3    H143084   2.784   6.564  16.758 -1.1879  0.6932  0.2029
 7223TIP3    H243085   2.757   6.417  16.734  0.0222  0.3431  0.9371
 7224TIP3   OH243086   4.097   6.751   7.015 -0.3201 -0.6330 -0.7819
 7224TIP3    H143087   4.093   6.656   7.010 -0.3884 -0.6189 -0.9849
 7224TIP3    H243088   4.191   6.771   7.025 -0.3577 -0.7501 -0.1356
 7225TIP3   OH243089   2.532   2.238  17.316  0.2222  0.6807  0.1334
 7225TIP3    H143090   2.476   2.202  17.386  1.1782 -2.7843 -0.6931
 7225TIP3    H243091   2.606   2.276  17.362 -0.7225  1.4359  1.0875
 7226TIP3   OH243092   2.014   2.690  15.779 -0.1749 -0.5471 -0.3448
 7226TIP3    H143093   2.039   2.706  15.688  1.4578  1.1294  0.3435
 7226TIP3    H243094   2.088   2.643  15.817  0.6805  1.6899  0.9298
 7227TIP3   OH243095   4.302   3.441   5.838 -0.6739 -0.2936 -0.2444
 7227TIP3    H143096   4.285   3.516   5.896 -2.5365 -1.5242  0.9245
 7227TIP3    H243097   4.394   3.421   5.852 -0.3768  1.2017  0.1162
 7228TIP3   OH243098   4.423   3.808  13.709 -0.8885 -0.1160  0.0791
 7228TIP3    H143099   4.448   3.753  13.783  1.6202  0.4895 -0.2391
 7228TIP3    H243100   4.404   3.893  13.747 -0.2131  0.0255  0.1155
 7229TIP3   OH243101   2.153   2.824  14.684 -0.6443  0.3749  0.2493
 7229TIP3    H143102   2.097   2.762  14.637  0.8972  0.5218 -1.9025
 7229TIP3    H243103   2.094   2.894  14.710 -1.4800  0.7775 -2.3881
 7230TIP3   OH243104   4.572   6.182  15.402  0.8979  0.2395  0.2160
 7230TIP3    H143105   4.578   6.100  15.450  3.0929  0.8588  1.1309
 7230TIP3    H243106   4.611   6.164  15.316  0.8143  0.1880  0.1885
 7231TIP3   OH243107   2.352   2.800   0.479  0.3555  0.1844 -0.3875
 7231TIP3    H143108   2.334   2.893   0.470  1.9635  0.5590  0.0488
 7231TIP3    H243109   2.386   2.791   0.568  1.2978 -0.6253 -0.8101
 7232TIP3   OH243110   1.524   4.156  13.272 -0.1179 -0.7709 -0.3563
 7232TIP3    H143111   1.526   4.118  13.360  0.4205 -3.0645 -1.2816
 7232TIP3    H243112   1.457   4.224  13.277  0.4393 -0.2928  2.0071
 7233TIP3   OH243113   6.531   1.321   3.323 -0.2324 -0.0526  0.0614
 7233TIP3    H143114   6.626   1.308   3.317 -0.0275  1.0650  0.5687
 7233TIP3    H243115   6.498   1.297   3.237  0.5485 -0.1553 -0.2187
 7234TIP3   OH243116   5.481   2.587  17.246  0.0115 -0.1290 -0.2176
 7234TIP3    H143117   5.386   2.599  17.253  0.2632  2.0800  0.1990
 7234TIP3    H243118   5.496   2.565  17.154 -1.0172 -2.3886  0.0834
 7235TIP3   OH243119   4.274   6.679   4.161 -0.2590  0.5727  0.7428
 7235TIP3    H143120   4.329   6.740   4.111  0.0679  0.9443  1.5297
 7235TIP3    H243121   4.323   6.597   4.160  0.9128  1.1860  2.3661
 7236TIP3   OH243122   6.096   1.834  15.563  0.8038  0.2804 -0.1325
 7236TIP3    H143123   6.165   1.773  15.589 -0.2767 -0.6700  0.6328
 7236TIP3    H243124   6.068   1.875  15.645  0.4465  0.6222 -0.4214
 7237TIP3   OH243125   4.088   4.609  15.898 -0.6721 -0.1197 -0.3829
 7237TIP3    H143126   4.084   4.704  15.906  2.6906  0.5189 -3.6041
 7237TIP3    H243127   4.166   4.584  15.948  0.1550 -0.7109 -1.9058
 7238TIP3   OH243128   3.123   2.609   3.459 -0.1985 -0.2680 -0.5726
 7238TIP3    H143129   3.130   2.514   3.450  0.7724 -0.3123  0.4265
 7238TIP3    H243130   3.097   2.623   3.550 -1.9561  0.3953 -1.1295
 7239TIP3   OH243131   4.770   0.853   0.528  0.3790  0.3900 -0.1459
 7239TIP3    H143132   4.689   0.885   0.568  0.4724  0.4182  0.0209
 7239TIP3    H243133   4.778   0.763   0.560  0.5654  0.4816  0.0737
 7240TIP3   OH243134   5.692   2.433  16.472 -0.1018 -0.5016  0.5482
 7240TIP3    H143135   5.705   2.347  16.511 -0.7864 -0.5695  0.6423
 7240TIP3    H243136   5.684   2.416  16.378  1.7639 -0.3155  0.3105
 7241TIP3   OH243137   5.245   0.807   1.733 -0.2358  1.0066  0.0861
 7241TIP3    H143138   5.270   0.897   1.714 -0.7276  1.7887  2.6930
 7241TIP3    H243139   5.155   0.813   1.764 -0.1786 -0.3263  0.5824
 7242TIP3   OH243140   5.376   2.907   0.389 -0.0287  0.5510  0.8233
 7242TIP3    H143141   5.374   2.821   0.432 -0.6342  0.6851  1.0775
 7242TIP3    H243142   5.317   2.898   0.314  0.5448  0.5057  0.3704
 7243TIP3   OH243143   2.315   2.468  11.414 -0.1686  0.6589  0.0909
 7243TIP3    H143144   2.345   2.428  11.332 -1.1510 -1.0201  0.4994
 7243TIP3    H243145   2.226   2.499  11.394 -1.1340 -1.3884  0.9577
 7244TIP3   OH243146   6.485   2.011   4.760 -0.0136  0.4505 -0.0269
 7244TIP3    H143147   6.515   2.095   4.725 -0.9878 -0.1936 -2.6244
 7244TIP3    H243148   6.507   2.015   4.853  1.2167  3.0015 -0.3323
 7245TIP3   OH243149   5.276   6.554  15.883 -0.0754  0.6178  0.5723
 7245TIP3    H143150   5.181   6.546  15.893 -0.1736 -2.0955 -1.4285
 7245TIP3    H243151   5.311   6.475  15.925  0.8729 -0.6545 -2.3480
 7246TIP3   OH243152   0.804   4.552   5.317 -0.3534  0.0021 -0.2664
 7246TIP3    H143153   0.816   4.620   5.252  0.8972 -0.8470 -0.9685
 7246TIP3    H243154   0.798   4.471   5.266  0.7641 -0.6902  0.6425
 7247TIP3   OH243155   5.021   4.842   1.361 -0.3518 -0.3119 -0.4540
 7247TIP3    H143156   4.973   4.900   1.421 -0.4041  1.3807 -2.0423
 7247TIP3    H243157   4.954   4.805   1.304 -0.2621 -1.6158  0.2623
 7248TIP3   OH243158   0.909   5.329  16.520 -0.2527 -0.4115  0.5897
 7248TIP3    H143159   0.847   5.400  16.505 -0.0214 -0.4263 -0.5213
 7248TIP3    H243160   0.896   5.304  16.612 -1.7122 -0.2533  0.4469
 7249TIP3   OH243161   5.714   3.247   2.097  0.2036  0.0732 -0.5701
 7249TIP3    H143162   5.721   3.208   2.011 -1.9896  0.1853 -0.8543
 7249TIP3    H243163   5.672   3.180   2.151  1.5879 -0.0168  0.4648
 7250TIP3   OH243164   3.518   0.275  11.576 -0.1013 -0.6705  0.6708
 7250TIP3    H143165   3.551   0.224  11.503 -1.0674 -2.3762  1.3495
 7250TIP3    H243166   3.592   0.285  11.635  0.0425 -1.5572  0.6484
 7251TIP3   OH243167   3.734   1.087  13.590  0.0576 -0.1056 -0.3094
 7251TIP3    H143168   3.780   1.163  13.625 -0.0276 -0.1266 -0.1514
 7251TIP3    H243169   3.802   1.033  13.551 -0.0044  0.5987 -1.4427
 7252TIP3   OH243170   1.789   3.426  17.020  0.0290 -0.4309  0.3423
 7252TIP3    H143171   1.843   3.446  17.097 -0.1106  0.5712  0.1885
 7252TIP3    H243172   1.837   3.356  16.975  2.0976  1.5220 -0.6617
 7253TIP3   OH243173   3.338   6.058  15.344  0.0861  0.0314  0.1041
 7253TIP3    H143174   3.302   6.059  15.433  1.9993 -0.0762  0.9343
 7253TIP3    H243175   3.308   6.140  15.305 -1.2657 -0.1919  0.6160
 7254TIP3   OH243176   1.919   6.188   3.791 -0.1935  0.3195  0.5344
 7254TIP3    H143177   1.927   6.259   3.728  0.7276  1.4633  1.8865
 7254TIP3    H243178   2.003   6.141   3.785 -0.6971 -0.5290 -0.1664
 7255TIP3   OH243179   2.052   5.859  13.862  0.5571  0.2133  0.3215
 7255TIP3    H143180   2.024   5.950  13.873  0.2509 -0.0090  1.4899
 7255TIP3    H243181   2.124   5.849  13.925  1.2242 -0.1020 -0.4648
 7256TIP3   OH243182   4.009   3.918  15.169  0.1803  0.5240 -0.8277
 7256TIP3    H143183   4.101   3.904  15.191  0.1589 -0.1065 -1.1310
 7256TIP3    H243184   4.007   3.915  15.073 -0.1232  0.7427 -0.8289
 7257TIP3   OH243185   1.250   2.478   4.207  0.3070 -0.1220  0.3034
 7257TIP3    H143186   1.227   2.401   4.260  1.5951 -0.8995 -0.2160
 7257TIP3    H243187   1.282   2.441   4.125  3.9163  0.7422  1.1437
 7258TIP3   OH243188   2.929   0.780  13.276 -0.0967 -0.0991  0.4996
 7258TIP3    H143189   2.866   0.709  13.284  0.7759 -0.8366  0.9338
 7258TIP3    H243190   3.006   0.740  13.236  0.4209  0.5867  0.7811
 7259TIP3   OH243191   6.435   3.833   5.581 -0.6361  0.1154  0.0958
 7259TIP3    H143192   6.446   3.821   5.486 -0.4754  0.4859  0.0657
 7259TIP3    H243193   6.424   3.928   5.592 -1.1945  0.0242  0.3940
 7260TIP3   OH243194   3.120   0.859   0.876 -0.0814 -0.2995 -0.2912
 7260TIP3    H143195   3.057   0.799   0.917  0.7365 -0.9641  0.0174
 7260TIP3    H243196   3.188   0.871   0.942 -0.3077  1.1199 -0.2816
 7261TIP3   OH243197   0.630   1.193  17.035 -0.0196  0.1324  0.8355
 7261TIP3    H143198   0.619   1.277  16.992 -0.2720 -0.3297 -0.0338
 7261TIP3    H243199   0.645   1.131  16.963 -2.6661 -1.0480  1.1657
 7262TIP3   OH243200   1.335   1.027  13.732 -0.1155  0.5183 -0.4560
 7262TIP3    H143201   1.257   1.004  13.783 -0.4839  0.7842 -0.8967
 7262TIP3    H243202   1.377   1.096  13.784 -0.3943  0.6645 -0.4224
 7263TIP3   OH243203   3.086   4.108  16.586 -0.0630  0.1752  0.2408
 7263TIP3    H143204   3.165   4.091  16.638 -0.4004 -0.6390  0.4990
 7263TIP3    H243205   3.097   4.198  16.555  0.3447  0.5410  1.3828
 7264TIP3   OH243206   0.626   1.671  11.899 -0.2679 -0.5651 -0.0657
 7264TIP3    H143207   0.585   1.748  11.861  0.5664 -0.1933 -0.2515
 7264TIP3    H243208   0.623   1.687  11.994  3.0757  1.4926 -0.1369
 7265TIP3   OH243209   6.463   4.059  16.808 -0.2581  0.3160  0.0520
 7265TIP3    H143210   6.387   4.114  16.828  0.1358  1.4726 -1.4934
 7265TIP3    H243211   6.431   3.994  16.746 -0.4009 -0.4242  0.8650
 7266TIP3   OH243212   4.512   1.635  11.985 -0.2486  0.0593 -0.3213
 7266TIP3    H143213   4.511   1.695  12.059 -0.4767 -0.8543  0.4413
 7266TIP3    H243214   4.494   1.690  11.909  0.1315  1.0386  0.2759
 7267TIP3   OH243215   6.712   2.576   4.286  0.4373  0.3415  0.2076
 7267TIP3    H143216   6.773   2.641   4.250  0.0361 -0.5247 -2.1922
 7267TIP3    H243217   6.654   2.554   4.213 -1.1420 -0.7398  1.7257
 7268TIP3   OH243218   2.658   2.013  12.196 -0.1031  0.0716  0.1343
 7268TIP3    H143219   2.565   2.001  12.215 -0.3269  0.4111 -0.7017
 7268TIP3    H243220   2.700   1.932  12.227 -0.7354 -0.2622  0.1286
 7269TIP3   OH243221   4.072   1.934  13.066 -0.3535 -0.2594  0.1736
 7269TIP3    H143222   4.164   1.907  13.059 -0.3481 -0.1870 -0.0438
 7269TIP3    H243223   4.065   1.973  13.153 -0.4419 -1.2860  0.6463
 7270TIP3   OH243224   6.463   0.814   5.715  0.2619 -0.3164  0.7920
 7270TIP3    H143225   6.438   0.744   5.656  1.5607 -1.6579  1.7455
 7270TIP3    H243226   6.555   0.796   5.736  0.1387  0.6821  2.4002
 7271TIP3   OH243227   3.756   2.558   1.553  0.1884 -0.6190  0.1503
 7271TIP3    H143228   3.782   2.562   1.461  0.0598  2.0397  0.1312
 7271TIP3    H243229   3.721   2.470   1.565  1.1815 -1.3822 -2.0566
 7272TIP3   OH243230   5.875   2.726  11.826  0.6356 -0.1860  0.1243
 7272TIP3    H143231   5.827   2.657  11.872  0.8739 -0.4978 -0.0887
 7272TIP3    H243232   5.898   2.789  11.895 -0.3094  0.1147  0.1900
 7273TIP3   OH243233   3.328   0.463   4.694  0.2473  0.6898  0.3178
 7273TIP3    H143234   3.391   0.534   4.697  1.8081 -0.6634  1.2052
 7273TIP3    H243235   3.379   0.387   4.664 -0.9064 -0.4905  1.2272
 7274TIP3   OH243236   1.675   4.593  10.436 -0.2715  0.5610  0.1011
 7274TIP3    H143237   1.621   4.514  10.443 -0.3614  0.5631 -0.5135
 7274TIP3    H243238   1.719   4.585  10.351  1.9636 -0.2307  1.2484
 7275TIP3   OH243239   3.559   4.832   1.975 -0.2960  0.4743  0.6804
 7275TIP3    H143240   3.611   4.887   1.916  0.0703  1.2096  1.6691
 7275TIP3    H243241   3.469   4.861   1.961 -0.0705  1.6106  1.4613
 7276TIP3   OH243242   1.002   2.088   4.094 -0.0749 -0.8557  0.0373
 7276TIP3    H143243   0.987   2.009   4.146 -1.5446 -1.5845 -1.4202
 7276TIP3    H243244   0.926   2.094   4.036  1.0701  0.3841 -1.4324
 7277TIP3   OH243245   5.987   0.649  14.882  0.3752  0.2317  0.1926
 7277TIP3    H143246   5.983   0.623  14.790 -1.0982  1.8395 -0.2480
 7277TIP3    H243247   5.990   0.566  14.930 -1.8130 -0.7629 -1.2160
 7278TIP3   OH243248   5.541   0.840  11.360  0.7922 -0.1539 -0.2840
 7278TIP3    H143249   5.561   0.874  11.272 -1.5071 -1.6780 -1.4802
 7278TIP3    H243250   5.446   0.843  11.366  0.8552 -0.8617  1.8799
 7279TIP3   OH243251   4.447   1.722  17.014  0.2084  0.4759 -0.3506
 7279TIP3    H143252   4.463   1.716  16.920  0.1905 -0.7984 -0.2925
 7279TIP3    H243253   4.352   1.733  17.021  0.2389  0.8345 -0.4864
 7280TIP3   OH243254   5.711   2.242  15.934 -0.2125  0.6119  0.0224
 7280TIP3    H143255   5.657   2.163  15.932 -1.0797  1.1826  0.2146
 7280TIP3    H243256   5.796   2.214  15.900 -0.3547 -0.5124  0.5360
 7281TIP3   OH243257   0.361   3.701  13.132  0.0359 -0.0736 -0.3112
 7281TIP3    H143258   0.282   3.753  13.144  0.9659  1.1276  0.7809
 7281TIP3    H243259   0.430   3.750  13.176  1.0846 -1.9062  0.1934
 7282TIP3   OH243260   1.274   6.248  13.110  0.0194  0.1095 -0.5501
 7282TIP3    H143261   1.215   6.306  13.158 -1.6193 -0.8210 -1.3803
 7282TIP3    H243262   1.240   6.160  13.124  2.9299 -0.8708  1.3555
 7283TIP3   OH243263   3.232   6.237   2.488 -0.4342 -0.0180 -0.2005
 7283TIP3    H143264   3.316   6.250   2.444  0.3368 -0.3982  1.0753
 7283TIP3    H243265   3.178   6.311   2.461 -0.3240 -0.6857 -2.4345
 7284TIP3   OH243266   0.650   1.311   5.231 -0.7283 -0.4220 -0.1009
 7284TIP3    H143267   0.558   1.296   5.209 -0.1751 -2.1515 -1.4704
 7284TIP3    H243268   0.696   1.235   5.194  1.0386 -0.5546  2.1355
 7285TIP3   OH243269   3.228   1.971  13.801 -0.1652 -0.2511  0.4951
 7285TIP3    H143270   3.306   1.960  13.746  0.8228 -0.5010  1.8884
 7285TIP3    H243271   3.249   1.924  13.882 -2.3392 -1.5651  0.3775
 7286TIP3   OH243272   2.423   2.403   6.467  0.5428 -0.1955  0.3136
 7286TIP3    H143273   2.360   2.424   6.537  0.0290  2.1146 -0.7559
 7286TIP3    H243274   2.458   2.318   6.492  1.2060  0.9808  3.9978
 7287TIP3   OH243275   1.351   1.315   3.611  0.5097  0.6396 -0.1102
 7287TIP3    H143276   1.375   1.280   3.525  0.6222 -3.2153  1.2843
 7287TIP3    H243277   1.258   1.294   3.620  1.0973 -1.4958  1.6610
 7288TIP3   OH243278   5.162   2.762   1.016  0.7184 -0.0520  0.5096
 7288TIP3    H143279   5.170   2.726   1.104 -1.2224  0.8841  1.1426
 7288TIP3    H243280   5.130   2.688   0.963 -3.1326  0.4840  1.7728
 7289TIP3   OH243281   2.945   3.740   1.907 -0.4217 -0.2731  0.4780
 7289TIP3    H143282   2.966   3.653   1.872 -0.1362 -1.2863  2.9800
 7289TIP3    H243283   2.864   3.727   1.958  0.0868  0.7209  1.5862
 7290TIP3   OH243284   2.165   6.546  15.320 -0.2098  0.1198 -0.0474
 7290TIP3    H143285   2.174   6.526  15.227  1.7427 -3.2670  0.6678
 7290TIP3    H243286   2.232   6.613  15.336 -0.1402  0.2858 -0.9619
 7291TIP3   OH243287   6.755   0.347  16.335 -0.5904 -0.1824 -0.1429
 7291TIP3    H143288   6.740   0.320  16.425  0.3201 -0.6872 -0.1352
 7291TIP3    H243289   6.675   0.322  16.288  0.1461 -2.8646 -0.1333
 7292TIP3   OH243290   1.911   2.265  17.222 -0.4211 -0.0130  0.4697
 7292TIP3    H143291   1.827   2.221  17.231 -0.5118 -0.0223 -0.3275
 7292TIP3    H243292   1.913   2.295  17.131  2.7283 -4.7355 -1.3796
 7293TIP3   OH243293   3.061   6.592  11.688  0.4328 -0.2273 -0.0232
 7293TIP3    H143294   3.050   6.616  11.780 -1.0673 -1.6885  0.2323
 7293TIP3    H243295   3.137   6.533  11.687  1.7692  1.4270 -0.0878
 7294TIP3   OH243296   5.646   5.849  12.278 -0.2441 -0.3128 -0.0229
 7294TIP3    H143297   5.565   5.815  12.315  1.2947 -1.1381  2.8612
 7294TIP3    H243298   5.665   5.791  12.205 -1.4053 -1.1011  0.2795
 7295TIP3   OH243299   6.488   3.176   0.447  0.0809  0.1101  0.3189
 7295TIP3    H143300   6.441   3.107   0.400  0.2556 -0.1023  0.4592
 7295TIP3    H243301   6.550   3.211   0.382 -0.1748  0.3033  0.1733
 7296TIP3   OH243302   4.660   0.129   1.338  0.1645 -0.6242 -0.4496
 7296TIP3    H143303   4.571   0.161   1.323  0.2444 -0.3948 -0.4418
 7296TIP3    H243304   4.660   0.099   1.429  0.0335 -0.8305 -0.5178
 7297TIP3   OH243305   0.245   2.734  15.230 -0.3454  0.4639  0.2721
 7297TIP3    H143306   0.256   2.641  15.209  0.2376  0.6506 -0.2941
 7297TIP3    H243307   0.304   2.748  15.304  1.1875  0.8251 -0.9574
 7298TIP3   OH243308   3.152   0.306  15.247 -0.1195 -0.3964 -0.6930
 7298TIP3    H143309   3.202   0.316  15.166  0.2695  0.0281 -0.4073
 7298TIP3    H243310   3.196   0.364  15.309 -0.0891 -1.1195 -0.0258
 7299TIP3   OH243311   1.463   5.432   5.168  0.2854  0.0851  0.3991
 7299TIP3    H143312   1.477   5.472   5.254  0.9354 -0.0596  0.3609
 7299TIP3    H243313   1.537   5.461   5.115  0.4887 -0.7354  0.2157
 7300TIP3   OH243314   6.413   5.688   2.579  0.4376  0.4889 -0.7087
 7300TIP3    H143315   6.326   5.723   2.562  0.2685  0.2007 -0.4493
 7300TIP3    H243316   6.398   5.615   2.639  0.7547 -0.2106 -1.4591
 7301TIP3   OH243317   2.358   2.737  15.145  0.2136 -0.1880  0.2206
 7301TIP3    H143318   2.343   2.773  15.233  1.0902 -0.0373  0.3209
 7301TIP3    H243319   2.383   2.646  15.161  0.2078 -0.2066  0.1207
 7302TIP3   OH243320   1.497   3.684  10.818 -0.4157  0.4345 -0.8097
 7302TIP3    H143321   1.568   3.714  10.761 -1.4877  0.5090 -2.1433
 7302TIP3    H243322   1.470   3.601  10.779 -1.3053  0.5871 -0.5210
 7303TIP3   OH243323   2.628   1.230   2.985  0.0236  0.5623  0.5792
 7303TIP3    H143324   2.601   1.276   3.065  1.4286 -0.9062  1.9545
 7303TIP3    H243325   2.576   1.150   2.985 -1.1774  1.2658 -0.9270
 7304TIP3   OH243326   4.536   1.886  11.432 -0.2614  0.2636 -0.2201
 7304TIP3    H143327   4.540   1.902  11.338  0.5804  1.3833 -0.0273
 7304TIP3    H243328   4.583   1.961  11.470 -1.3890  0.3154  1.1322
 7305TIP3   OH243329   5.196   2.045  11.080 -0.1132 -0.6920 -0.3965
 7305TIP3    H143330   5.279   2.000  11.097  0.2380  0.3962  0.9467
 7305TIP3    H243331   5.210   2.090  10.997  0.0846 -1.7375 -0.9505
 7306TIP3   OH243332   1.899   2.219   0.334 -0.0267  0.3503 -0.7294
 7306TIP3    H143333   1.916   2.146   0.275  0.4756  0.5006 -0.7761
 7306TIP3    H243334   1.876   2.178   0.417  0.9025  0.1406 -0.5756
 7307TIP3   OH243335   3.663   5.338   5.374  0.6361  0.3401  0.0031
 7307TIP3    H143336   3.751   5.349   5.409  0.7313 -1.8588  0.6165
 7307TIP3    H243337   3.644   5.245   5.386 -2.2415  0.9338  1.0210
 7308TIP3   OH243338   3.649   1.542  15.179 -0.0408  0.2578 -0.2299
 7308TIP3    H143339   3.666   1.514  15.089 -0.5872  1.9293 -0.8926
 7308TIP3    H243340   3.554   1.558  15.182 -0.2595 -1.0391  1.0443
 7309TIP3   OH243341   2.897   0.926  13.497 -0.5460  0.2031 -0.2946
 7309TIP3    H143342   2.942   0.896  13.577 -0.6370 -0.8232 -0.6128
 7309TIP3    H243343   2.926   0.865  13.429  0.1430  1.5407 -1.2318
 7310TIP3   OH243344   4.807   0.691   5.563  0.3462 -0.1247  0.1303
 7310TIP3    H143345   4.878   0.734   5.609  1.3033 -0.8252 -0.6465
 7310TIP3    H243346   4.794   0.608   5.609  0.1744 -0.0906  0.1448
 7311TIP3   OH243347   1.031   5.130   1.715  0.2659 -0.1100  0.1964
 7311TIP3    H143348   0.980   5.203   1.680  0.9315  0.8164  1.0856
 7311TIP3    H243349   1.007   5.126   1.808  1.1535 -0.2069  0.4315
 7312TIP3   OH243350   6.660   6.616  13.033  0.3919 -0.2793 -0.9874
 7312TIP3    H143351   6.734   6.665  13.067  0.0528 -0.8204  0.6166
 7312TIP3    H243352   6.607   6.682  12.987 -0.9653  1.3995  2.5656
 7313TIP3   OH243353   3.522   2.558  12.742 -0.4612  0.2798  0.1167
 7313TIP3    H143354   3.532   2.475  12.696 -1.5031  0.4119 -0.3898
 7313TIP3    H243355   3.525   2.535  12.835 -1.0244 -0.3796 -0.0196
 7314TIP3   OH243356   2.703   2.710  12.178 -0.5869  0.2455  0.1530
 7314TIP3    H143357   2.703   2.713  12.083 -0.1366 -0.6811  0.1204
 7314TIP3    H243358   2.777   2.653  12.201 -0.7068  0.4334  1.0535
 7315TIP3   OH243359   0.161   3.719   5.784  0.1687  0.0421  0.0826
 7315TIP3    H143360   0.238   3.662   5.783  0.1136 -0.0299 -0.0824
 7315TIP3    H243361   0.089   3.663   5.757  0.0023  0.0319  0.5406
 7316TIP3   OH243362   2.345   3.297  12.150 -0.4176 -0.5981  0.0018
 7316TIP3    H143363   2.256   3.309  12.182  0.0939  1.8257  0.7014
 7316TIP3    H243364   2.393   3.263  12.226 -0.1684  0.8448  0.5172
 7317TIP3   OH243365   1.314   2.587  17.314 -0.1698  0.3234  0.5815
 7317TIP3    H143366   1.273   2.503  17.336  0.9064 -0.4518 -0.2735
 7317TIP3    H243367   1.245   2.635  17.268 -0.3876 -0.6545 -0.1525
 7318TIP3   OH243368   5.966   3.495   1.638 -0.3545 -0.4544 -0.1723
 7318TIP3    H143369   6.056   3.520   1.661 -0.1405 -0.4333 -0.9976
 7318TIP3    H243370   5.944   3.426   1.700 -0.4654  0.8274  1.2866
 7319TIP3   OH243371   6.739   5.916   0.801  0.1649  0.1320  0.4470
 7319TIP3    H143372   6.827   5.904   0.763 -0.4521  0.7228 -1.2705
 7319TIP3    H243373   6.712   5.828   0.827  0.3308 -0.4747 -1.2513
 7320TIP3   OH243374   6.496   1.386   5.916  0.2194  0.3329 -0.3219
 7320TIP3    H143375   6.406   1.418   5.926  0.5428  0.8860  1.0948
 7320TIP3    H243376   6.533   1.394   6.003  0.7079 -2.8166 -0.1270
 7321TIP3   OH243377   1.219   1.244  14.625  0.3527  0.3069 -0.2984
 7321TIP3    H143378   1.157   1.186  14.669  1.0176  1.1257  1.8282
 7321TIP3    H243379   1.165   1.312  14.586 -0.1910  0.2171  0.2881
 7322TIP3   OH243380   0.698   5.893  13.068 -0.0002  0.2170  0.1640
 7322TIP3    H143381   0.628   5.955  13.085 -1.7443 -1.6838  0.2629
 7322TIP3    H243382   0.685   5.823  13.132  0.9328 -1.0042 -0.9216
 7323TIP3   OH243383   4.213   4.174  15.759  0.0034 -0.9746  0.2557
 7323TIP3    H143384   4.228   4.162  15.852 -2.0542  0.3505  0.8279
 7323TIP3    H243385   4.128   4.133  15.742  0.4961 -1.4765 -1.1047
 7324TIP3   OH243386   4.555   2.396   0.468  0.0776 -0.0310  0.2952
 7324TIP3    H143387   4.583   2.487   0.474 -2.3901  0.7204  1.6886
 7324TIP3    H243388   4.613   2.349   0.527 -1.2259  1.4025  2.8592
 7325TIP3   OH243389   0.517   3.714  14.611  0.1841  0.1876 -0.3677
 7325TIP3    H143390   0.449   3.659  14.649  0.4908 -0.0639 -0.1734
 7325TIP3    H243391   0.492   3.803  14.636  0.0733  0.0733 -0.0578
 7326TIP3   OH243392   3.735   1.859  15.344 -0.2546 -0.1576  0.1201
 7326TIP3    H143393   3.818   1.895  15.377  0.1742 -1.2353  0.2391
 7326TIP3    H243394   3.672   1.931  15.356  1.0268  1.3774 -1.7139
 7327TIP3   OH243395   1.210   5.540  17.115  0.6408 -0.4493  0.6297
 7327TIP3    H143396   1.131   5.568  17.162  2.1128  3.9636  0.9530
 7327TIP3    H243397   1.186   5.544  17.023  0.4306  0.8361  0.7243
 7328TIP3   OH243398   2.465   3.394  16.192 -0.3542  0.2098 -0.5930
 7328TIP3    H143399   2.396   3.331  16.170 -0.0831 -0.2982 -0.0086
 7328TIP3    H243400   2.436   3.433  16.275  2.0127 -3.0593  2.0266
 7329TIP3   OH243401   3.998   1.095   4.693 -0.0983  0.8614 -0.6690
 7329TIP3    H143402   3.921   1.128   4.739 -0.3745 -0.0521 -0.4536
 7329TIP3    H243403   3.967   1.016   4.648  0.9446 -0.0984  0.2557
 7330TIP3   OH243404   5.193   2.918   0.166  0.2739 -0.2128 -0.2210
 7330TIP3    H143405   5.134   2.980   0.209 -0.4532 -1.4338  0.5842
 7330TIP3    H243406   5.205   2.955   0.078  1.3768  2.0425  0.7995
 7331TIP3   OH243407   6.384   0.599  12.516 -0.0995  0.0888 -0.0423
 7331TIP3    H143408   6.374   0.534  12.447  0.0906  1.3904 -1.3502
 7331TIP3    H243409   6.437   0.668  12.476 -0.4631  1.1416  1.2230
 7332TIP3   OH243410   1.396   1.546  14.229 -0.3847  0.0516  0.3600
 7332TIP3    H143411   1.451   1.575  14.301 -0.8143  0.1240  0.6641
 7332TIP3    H243412   1.421   1.454  14.215  1.4247  0.7082 -1.0209
 7333TIP3   OH243413   0.391   5.517   3.661 -0.1705  0.4277 -0.5346
 7333TIP3    H143414   0.451   5.460   3.710 -0.3011 -0.8933 -1.8083
 7333TIP3    H243415   0.306   5.503   3.701 -0.0632  0.3326 -0.3371
 7334TIP3   OH243416   1.423   6.534  11.060  0.0182 -0.0598  0.2098
 7334TIP3    H143417   1.512   6.551  11.029  0.9864  0.4031  2.9238
 7334TIP3    H243418   1.378   6.618  11.050  0.1274 -0.0684 -0.3954
 7335TIP3   OH243419   6.644   2.892  13.908 -0.2331 -0.3586 -0.2370
 7335TIP3    H143420   6.580   2.926  13.971 -0.3284 -0.0625 -0.4921
 7335TIP3    H243421   6.593   2.833  13.853 -0.3673  0.1525 -0.6659
 7336TIP3   OH243422   5.822   0.953  11.550  0.0710 -0.2487 -0.0102
 7336TIP3    H143423   5.863   0.879  11.505 -0.4861  0.7464 -2.3281
 7336TIP3    H243424   5.793   1.011  11.479 -0.2574  1.7987  1.6927
 7337TIP3   OH243425   1.394   6.440  12.513 -0.0198 -0.2948 -0.4561
 7337TIP3    H143426   1.408   6.465  12.422 -2.7816  0.3805 -0.8057
 7337TIP3    H243427   1.459   6.488  12.562 -0.4280  1.7948 -1.8333
 7338TIP3   OH243428   2.283   3.931  12.181  0.0846 -0.1057 -0.2303
 7338TIP3    H143429   2.306   3.887  12.263  2.3177  0.7043 -0.3443
 7338TIP3    H243430   2.283   3.861  12.116  0.3810 -0.4336  0.1122
 7339TIP3   OH243431   2.517   3.355  13.500 -0.0667 -0.3883  0.6106
 7339TIP3    H143432   2.505   3.262  13.517  1.6281 -0.7544 -0.0699
 7339TIP3    H243433   2.512   3.363  13.405 -0.2841  0.2373  0.6662
 7340TIP3   OH243434   5.350   4.044  13.568  0.7950  0.1209  0.2344
 7340TIP3    H143435   5.258   4.032  13.543  0.1397  0.7967  2.1064
 7340TIP3    H243436   5.396   3.970  13.528 -1.0531 -1.8012  1.4449
 7341TIP3   OH243437   5.049   6.670  10.603  0.2944 -0.4271  0.2026
 7341TIP3    H143438   5.041   6.620  10.522 -0.0187 -1.0663  0.6142
 7341TIP3    H243439   5.010   6.755  10.584 -2.5743 -1.5746  0.5180
 7342TIP3   OH243440   0.867   3.180  17.208  0.5208 -0.0531 -0.7499
 7342TIP3    H143441   0.947   3.173  17.156  0.2450 -1.2425 -1.0332
 7342TIP3    H243442   0.802   3.130  17.159  0.2435 -1.1734  0.6831
 7343TIP3   OH243443   3.717   6.448   3.286  0.5468 -0.3368 -0.2943
 7343TIP3    H143444   3.734   6.484   3.373 -0.6565 -0.0232 -0.1740
 7343TIP3    H243445   3.672   6.519   3.239 -0.6675 -1.2128 -0.4953
 7344TIP3   OH243446   0.411   0.321   1.635 -0.3152 -0.0024  0.3630
 7344TIP3    H143447   0.321   0.318   1.603 -0.1367 -0.7706 -0.1024
 7344TIP3    H243448   0.410   0.268   1.715 -0.6420  1.4633  1.3756
 7345TIP3   OH243449   3.663   3.930   1.386  0.6005  0.8941 -0.1651
 7345TIP3    H143450   3.677   4.012   1.433  0.0743 -0.3290  2.3475
 7345TIP3    H243451   3.745   3.913   1.341  0.8328  2.5867 -0.4213
 7346TIP3   OH243452   5.213   4.574  11.828  0.1703 -0.4374 -0.4182
 7346TIP3    H143453   5.119   4.577  11.812  0.3098  0.3546 -1.1618
 7346TIP3    H243454   5.230   4.649  11.885  0.6358  0.6855 -1.9717
 7347TIP3   OH243455   6.359   0.104  15.050  0.1041 -0.4987  0.6968
 7347TIP3    H143456   6.325   0.059  14.971  1.7630 -1.1967  0.3440
 7347TIP3    H243457   6.451   0.080  15.053  0.2066  0.0149  2.5487
 7348TIP3   OH243458   6.492   5.489   2.284 -0.0224 -0.6017 -0.3811
 7348TIP3    H143459   6.449   5.573   2.293  3.0237  1.2522 -1.4900
 7348TIP3    H243460   6.528   5.470   2.371  2.7339  1.4287 -0.9506
 7349TIP3   OH243461   6.073   1.225  14.998  0.0037 -0.2693  0.5474
 7349TIP3    H143462   6.124   1.166  15.054  0.1696 -1.8202 -1.1272
 7349TIP3    H243463   5.985   1.186  14.995  0.2559 -0.7880 -1.0093
 7350TIP3   OH243464   6.066   3.730   4.381 -0.2432 -0.1059 -0.4700
 7350TIP3    H143465   6.157   3.717   4.353 -0.2925  0.6875 -1.0487
 7350TIP3    H243466   6.014   3.689   4.312 -0.3479  1.0868 -1.1313
 7351TIP3   OH243467   6.300   3.560  11.936 -0.2646 -0.7789 -0.0632
 7351TIP3    H143468   6.347   3.642  11.948  0.4854 -1.2669  0.4190
 7351TIP3    H243469   6.360   3.504  11.886 -0.8677 -0.9517 -0.6122
 7352TIP3   OH243470   1.065   1.405  11.917 -0.0167 -0.3311  0.3871
 7352TIP3    H143471   0.990   1.464  11.923 -0.0098 -0.3009  0.1819
 7352TIP3    H243472   1.141   1.463  11.912  0.1161 -0.3646  1.7638
 7353TIP3   OH243473   6.422   4.703   1.863  0.1448 -0.4771  0.3126
 7353TIP3    H143474   6.489   4.680   1.799 -0.5677 -0.6663 -0.3724
 7353TIP3    H243475   6.375   4.621   1.880  0.1537 -0.3694  0.8716
 7354TIP3   OH243476   4.740   1.279   4.024  0.7402  1.1121 -0.9050
 7354TIP3    H143477   4.761   1.253   4.113  0.4799  0.5826 -0.9921
 7354TIP3    H243478   4.818   1.325   3.993  1.4776 -0.1509 -0.9710
 7355TIP3   OH243479   5.625   4.507  15.727  0.3701 -0.0631 -0.1425
 7355TIP3    H143480   5.625   4.426  15.777 -0.1693 -0.3916 -0.6589
 7355TIP3    H243481   5.717   4.536  15.727  1.1615 -2.2015 -2.3613
 7356TIP3   OH243482   4.437   3.494  13.566 -0.4974 -0.4369  0.1244
 7356TIP3    H143483   4.350   3.454  13.561 -1.1975  0.6443  2.3025
 7356TIP3    H243484   4.465   3.480  13.656 -0.4646  3.1183  0.8271
 7357TIP3   OH243485   3.177   0.873   1.844 -0.1721  0.3437 -0.2968
 7357TIP3    H143486   3.135   0.788   1.832  1.1223 -0.2323 -1.0481
 7357TIP3    H243487   3.220   0.890   1.760 -0.0340  1.5173  0.0052
 7358TIP3   OH243488   5.355   2.657  12.884  0.5878  0.2046  0.1921
 7358TIP3    H143489   5.335   2.611  12.802 -1.6580  0.4452  0.5434
 7358TIP3    H243490   5.432   2.710  12.863 -1.6672  2.6528 -2.8203
 7359TIP3   OH243491   3.430   2.450  16.919 -0.7032 -0.0815  0.1578
 7359TIP3    H143492   3.514   2.483  16.886 -2.0168  3.2845 -0.2816
 7359TIP3    H243493   3.412   2.373  16.865  1.7096 -0.4437 -0.2530
 7360TIP3   OH243494   0.614   3.481   3.001 -0.2083 -0.4745  0.0806
 7360TIP3    H143495   0.697   3.476   2.954 -1.0479 -1.3000 -1.3915
 7360TIP3    H243496   0.604   3.574   3.022  0.2181 -0.0588 -1.4020
 7361TIP3   OH243497   6.043   6.082   5.921  0.4505 -0.1636  0.1495
 7361TIP3    H143498   5.980   6.012   5.939  1.0744 -0.1977  2.4571
 7361TIP3    H243499   6.127   6.037   5.911  0.4859  0.0736 -0.7203
 7362TIP3   OH243500   4.071   0.933   2.117  0.1686  0.5233 -0.6104
 7362TIP3    H143501   4.033   0.850   2.087 -0.5511  0.9739 -0.9665
 7362TIP3    H243502   4.008   0.967   2.181  1.4624 -0.1941  1.1035
 7363TIP3   OH243503   4.916   4.819  14.803 -0.4938 -0.0700 -0.4773
 7363TIP3    H143504   4.969   4.746  14.837 -1.0911 -0.4319 -0.2996
 7363TIP3    H243505   4.839   4.820  14.860  0.3597  1.9069  0.7403
 7364TIP3   OH243506   4.929   4.159  15.620  0.5937  0.0617  0.0255
 7364TIP3    H143507   4.841   4.177  15.653  0.6643  0.8342 -0.2042
 7364TIP3    H243508   4.983   4.230  15.655  1.0432 -0.1749 -0.1819
 7365TIP3   OH243509   4.080   0.065  16.431  0.4111  0.4051 -0.4627
 7365TIP3    H143510   3.984   0.070  16.428  0.3191  0.4456  1.6303
 7365TIP3    H243511   4.098  -0.018  16.475  1.3733  0.0452 -1.4931
 7366TIP3   OH243512   4.615   6.290   5.377 -0.2042  0.3799  0.1763
 7366TIP3    H143513   4.607   6.216   5.316 -2.7239 -0.1120  0.9777
 7366TIP3    H243514   4.593   6.253   5.462 -0.7218  1.8795  0.7294
 7367TIP3   OH243515   3.636   4.376  12.287 -0.3852  0.1519  0.3891
 7367TIP3    H143516   3.606   4.301  12.235  2.8369 -1.3834  0.4645
 7367TIP3    H243517   3.725   4.393  12.254 -0.8856  3.8880  0.5340
 7368TIP3   OH243518   6.015   1.226  13.520  0.1974 -0.0454  0.1972
 7368TIP3    H143519   5.947   1.280  13.480 -0.1043 -0.8821 -0.4373
 7368TIP3    H243520   5.983   1.137  13.512  0.5014 -0.3081  1.6058
 7369TIP3   OH243521   1.067   0.890  14.475 -0.2228  0.1629  0.4460
 7369TIP3    H143522   1.094   0.855  14.390  2.0220 -0.0319  1.1949
 7369TIP3    H243523   1.112   0.974  14.482 -0.2131  0.0766  1.5344
 7370TIP3   OH243524   5.465   0.727  13.801 -0.0236  0.4390 -0.0176
 7370TIP3    H143525   5.397   0.732  13.869 -1.6529  0.0941 -1.5450
 7370TIP3    H243526   5.520   0.653  13.827 -1.1111 -0.2071  0.5164
 7371TIP3   OH243527   0.735   3.623   4.030 -0.0168 -0.2045  0.8246
 7371TIP3    H143528   0.665   3.586   3.976  0.4259 -0.1167  0.1733
 7371TIP3    H243529   0.811   3.626   3.972 -0.2288  2.4733  0.5885
 7372TIP3   OH243530   1.567   0.425   5.517  0.2473  0.2675  0.4114
 7372TIP3    H143531   1.592   0.500   5.462  0.5983 -0.7102 -0.8184
 7372TIP3    H243532   1.490   0.455   5.564  1.1057  1.8384  0.9157
 7373TIP3   OH243533   4.087   4.704   4.587  0.0410 -0.4783 -0.5176
 7373TIP3    H143534   4.018   4.756   4.628 -0.5277  0.8897 -2.9666
 7373TIP3    H243535   4.098   4.628   4.645 -2.6632 -0.1429  0.6005
 7374TIP3   OH243536   0.075   6.080   5.983  0.0981  0.2476 -0.0528
 7374TIP3    H143537   0.045   5.999   5.942  0.7196 -1.8005  3.1951
 7374TIP3    H243538   0.170   6.076   5.978  0.1564  0.3214  0.9243
 7375TIP3   OH243539   1.747   3.187   0.858  0.0627 -0.6292  0.0779
 7375TIP3    H143540   1.716   3.100   0.835 -1.4577 -0.0170 -0.3504
 7375TIP3    H243541   1.688   3.216   0.927 -0.5737  0.6917 -0.9554
 7376TIP3   OH243542   3.046   4.520  16.048  0.2893 -0.6271  0.5878
 7376TIP3    H143543   3.060   4.610  16.074 -0.7996 -0.3161  0.1770
 7376TIP3    H243544   2.955   4.502  16.073 -0.1830 -0.9188 -1.1717
 7377TIP3   OH243545   3.882   3.068  12.587 -0.2062  0.3018 -0.0397
 7377TIP3    H143546   3.806   3.020  12.617  0.1346 -0.9425 -1.0593
 7377TIP3    H243547   3.951   3.002  12.580  0.7295  1.2424  0.0611
 7378TIP3   OH243548   5.820   6.125  11.617  0.4758 -0.4216 -0.6700
 7378TIP3    H143549   5.914   6.118  11.605  0.5618  0.8436 -0.8793
 7378TIP3    H243550   5.783   6.062  11.555  1.1920 -2.1175  0.5564
 7379TIP3   OH243551   1.813   0.730   1.288  0.3907  0.4283 -0.4428
 7379TIP3    H143552   1.747   0.798   1.298 -0.1008 -0.4304  3.6676
 7379TIP3    H243553   1.767   0.657   1.246 -0.9203  0.4078  0.9466
 7380TIP3   OH243554   3.858   4.489  12.138 -0.0618  0.0885  0.5269
 7380TIP3    H143555   3.869   4.584  12.140  0.3256  0.1720 -2.2695
 7380TIP3    H243556   3.943   4.455  12.168  0.1844  0.6337  0.4697
 7381TIP3   OH243557   0.326   2.874  13.915  0.0879  0.0200  0.4494
 7381TIP3    H143558   0.343   2.920  13.833  0.2321 -0.2989  0.2976
 7381TIP3    H243559   0.254   2.815  13.895  0.5525 -0.5274  0.3714
 7382TIP3   OH243560   3.807   6.210  16.922 -0.5612  0.5702 -0.0016
 7382TIP3    H143561   3.751   6.133  16.914  0.3385 -0.0156 -1.0090
 7382TIP3    H243562   3.841   6.225  16.833 -0.8637  2.2548  0.1329
 7383TIP3   OH243563   6.214   4.484  15.304  0.1573 -0.2317  0.4168
 7383TIP3    H143564   6.250   4.553  15.358 -0.3638  1.3570 -1.1596
 7383TIP3    H243565   6.161   4.432  15.364  1.3597  0.1022  1.8409
 7384TIP3   OH243566   5.378   0.867  15.350  0.0721  0.1457 -0.2501
 7384TIP3    H143567   5.314   0.921  15.397  2.2965  2.9784 -0.1722
 7384TIP3    H243568   5.455   0.867  15.407  1.3054 -0.1780 -1.8514
 7385TIP3   OH243569   2.992   1.456   1.339  0.3382  0.4042 -0.9976
 7385TIP3    H143570   2.992   1.527   1.403  0.9503  0.1908 -0.7535
 7385TIP3    H243571   2.948   1.383   1.383  1.9903 -0.2085 -0.2640
 7386TIP3   OH243572   5.053   3.664  11.191  0.1962  0.5655  0.1671
 7386TIP3    H143573   5.096   3.719  11.126 -0.1895  2.6599  1.5654
 7386TIP3    H243574   5.070   3.708  11.274 -0.5270 -1.2363  1.3229
 7387TIP3   OH243575   3.444   6.591  16.304 -0.1810 -0.6330 -0.1477
 7387TIP3    H143576   3.505   6.517  16.303 -1.0986 -1.4520  1.1954
 7387TIP3    H243577   3.359   6.552  16.323 -0.5132  0.8469  1.7913
 7388TIP3   OH243578   6.204   2.838   0.070  1.0229 -0.0428 -0.3730
 7388TIP3    H143579   6.279   2.786   0.098 -0.1834 -0.9386  1.3919
 7388TIP3    H243580   6.163   2.786   0.001  1.5700  0.0668 -0.7828
 7389TIP3   OH243581   5.856   5.093  15.430  0.1005 -0.2536  0.1282
 7389TIP3    H143582   5.822   5.131  15.511  0.8463  0.3678  0.1573
 7389TIP3    H243583   5.924   5.153  15.402  1.0147 -1.3491 -0.0610
 7390TIP3   OH243584   2.515   6.761   2.758 -0.0599 -0.4510  0.2059
 7390TIP3    H143585   2.443   6.752   2.696 -0.3244  1.1970  0.2223
 7390TIP3    H243586   2.473   6.754   2.844  0.0114 -0.8185  0.2121
 7391TIP3   OH243587   1.296   5.597   0.344 -0.0379  0.0274  0.2172
 7391TIP3    H143588   1.243   5.522   0.370  0.1727  0.4698  2.0347
 7391TIP3    H243589   1.359   5.561   0.281  0.0344 -1.3195  1.0240
 7392TIP3   OH243590   0.154   6.223  13.441 -0.1096 -0.3986  0.2726
 7392TIP3    H143591   0.100   6.225  13.520 -0.2624 -2.2739  0.2551
 7392TIP3    H243592   0.090   6.222  13.369  0.0127 -0.0813  0.1561
 7393TIP3   OH243593   5.479   3.730  14.659 -0.9072 -0.1288 -0.3178
 7393TIP3    H143594   5.484   3.821  14.688 -2.6686  0.3715 -1.4183
 7393TIP3    H243595   5.566   3.711  14.626 -0.3511  0.9777  0.4461
 7394TIP3   OH243596   4.856   1.551  12.749 -0.0248  0.0555  0.5268
 7394TIP3    H143597   4.875   1.460  12.770 -0.5535  0.1766  1.5814
 7394TIP3    H243598   4.761   1.553  12.738  0.2419 -0.4037 -3.9340
 7395TIP3   OH243599   2.339   6.126   5.250 -0.1959 -0.1222 -0.2711
 7395TIP3    H143600   2.318   6.081   5.168  0.4681 -0.6240 -0.1822
 7395TIP3    H243601   2.407   6.071   5.290 -0.0241  0.4822  0.2873
 7396TIP3   OH243602   0.044   6.315   1.893 -0.0680 -0.4903  0.1446
 7396TIP3    H143603  -0.017   6.340   1.963  0.5109  0.1084  0.4527
 7396TIP3    H243604   0.021   6.225   1.872 -1.6636  0.0128 -0.3985
 7397TIP3   OH243605   5.367   5.893   3.782  0.3709  0.0802  0.3661
 7397TIP3    H143606   5.357   5.830   3.711  2.0602 -0.3274  0.4547
 7397TIP3    H243607   5.408   5.970   3.741 -0.5634  0.6688  0.5022
 7398TIP3   OH243608   0.273   2.406  11.035  0.1112  0.0106  0.1525
 7398TIP3    H143609   0.235   2.333  10.986  1.7078 -1.1963  0.6250
 7398TIP3    H243610   0.197   2.457  11.064 -1.0349 -1.2605 -0.4684
 7399TIP3   OH243611   4.078   5.044   6.055  0.0629 -0.1455  0.0348
 7399TIP3    H143612   4.072   4.956   6.092  1.2883 -0.3371 -0.1759
 7399TIP3    H243613   4.142   5.036   5.985  0.5558  1.0308  0.3300
 7400TIP3   OH243614   2.245   1.315   4.329 -0.2133 -0.6408 -0.5082
 7400TIP3    H143615   2.264   1.342   4.239 -1.5807  0.1149 -0.5964
 7400TIP3    H243616   2.274   1.389   4.382  1.4611 -1.4607 -0.2033
 7401TIP3   OH243617   1.955   1.828  10.722  0.0081 -0.0942 -0.4818
 7401TIP3    H143618   1.943   1.735  10.742 -0.7981  0.2244  0.5706
 7401TIP3    H243619   1.872   1.869  10.746  0.3814  0.9186 -0.8541
 7402TIP3   OH243620   0.843   4.197  14.970  0.5515  0.3625 -0.1935
 7402TIP3    H143621   0.757   4.185  15.010  0.2881  2.6040  0.0205
 7402TIP3    H243622   0.831   4.169  14.879 -0.4372  0.7462 -0.1895
 7403TIP3   OH243623   1.946   1.774   5.243 -0.3150  0.1125 -0.3843
 7403TIP3    H143624   2.019   1.715   5.261 -1.1057 -1.1308 -1.1238
 7403TIP3    H243625   1.881   1.720   5.198 -0.4929  1.8543 -2.4332
 7404TIP3   OH243626   1.680   4.852   5.531  0.6258 -0.8303  0.5341
 7404TIP3    H143627   1.761   4.860   5.480 -0.2391  0.4640 -0.7137
 7404TIP3    H243628   1.641   4.939   5.526 -0.8909 -1.4656  1.0420
 7405TIP3   OH243629   0.097   1.330   1.887 -0.4334  0.4958 -0.1233
 7405TIP3    H143630   0.173   1.349   1.942  0.4410  0.7419 -1.3623
 7405TIP3    H243631   0.033   1.290   1.946 -0.0821  1.9934  1.3566
 7406TIP3   OH243632   2.603   0.461   4.531 -0.3784  0.0165 -0.0181
 7406TIP3    H143633   2.543   0.535   4.530 -0.1083  0.2293 -0.8135
 7406TIP3    H243634   2.680   0.492   4.579 -1.0134 -0.3642  1.3032
 7407TIP3   OH243635   1.763   1.531  16.550  0.0816 -0.0162 -0.1621
 7407TIP3    H143636   1.671   1.548  16.565  0.1022  1.1066 -1.2267
 7407TIP3    H243637   1.808   1.574  16.623 -0.2045 -0.2803  0.1725
 7408TIP3   OH243638   0.407   2.681   3.547 -0.3516 -0.3720  0.0812
 7408TIP3    H143639   0.461   2.696   3.624 -1.3969 -0.1311  0.7800
 7408TIP3    H243640   0.351   2.607   3.570  0.2940 -1.2186 -0.9721
 7409TIP3   OH243641   2.269   1.662  13.206 -0.0066  0.1255 -0.1138
 7409TIP3    H143642   2.199   1.596  13.211 -0.5002 -0.0438 -4.6894
 7409TIP3    H243643   2.342   1.616  13.164  0.4730  1.8510 -1.2808
 7410TIP3   OH243644   1.388   2.910   2.549 -0.7863  0.1364 -0.3749
 7410TIP3    H143645   1.345   2.860   2.479  1.3352 -0.3539 -1.4084
 7410TIP3    H243646   1.364   3.001   2.532 -1.8241 -0.1588 -0.5803
 7411TIP3   OH243647   1.079   6.691  12.296 -0.5336  0.4998 -0.7317
 7411TIP3    H143648   1.141   6.740  12.350 -2.3939  1.0613  1.0470
 7411TIP3    H243649   1.119   6.689  12.209  1.9753  0.7251  0.3316
 7412TIP3   OH243650   0.208   5.415   0.154 -0.0212 -0.3167  0.0886
 7412TIP3    H143651   0.201   5.322   0.131  0.3603 -0.1167 -0.8977
 7412TIP3    H243652   0.147   5.459   0.095 -0.9244 -0.0228  1.2068
 7413TIP3   OH243653   1.669   5.584   3.126  0.2926 -0.1064  0.4058
 7413TIP3    H143654   1.672   5.567   3.220  0.9472 -0.2531  0.3658
 7413TIP3    H243655   1.761   5.598   3.102  0.0286  1.0501 -0.0034
 7414TIP3   OH243656   5.963   4.656  16.245 -0.2049  0.2181 -0.0054
 7414TIP3    H143657   5.979   4.746  16.274  0.9999 -0.1535  0.5312
 7414TIP3    H243658   5.888   4.627  16.296 -1.3107  1.2724 -0.9729
 7415TIP3   OH243659   2.649   3.775   6.460  0.4295  0.4678 -0.0559
 7415TIP3    H143660   2.729   3.752   6.414  1.7884  3.0472  0.8452
 7415TIP3    H243661   2.676   3.838   6.527 -2.3717  1.6818  0.0943
 7416TIP3   OH243662   3.911   0.327   6.609  0.5274 -0.1064  0.5293
 7416TIP3    H143663   3.937   0.396   6.669 -0.2310  0.3347  0.3619
 7416TIP3    H243664   3.936   0.246   6.654 -0.2957  0.1984  1.5926
 7417TIP3   OH243665   2.341   3.075   3.472 -0.1074 -0.4943 -0.5299
 7417TIP3    H143666   2.421   3.124   3.456 -0.4660 -0.0483 -0.9695
 7417TIP3    H243667   2.325   3.028   3.391 -1.0160  0.4687 -0.9349
 7418TIP3   OH243668   1.764   2.862  15.723 -0.3167  0.3831  0.3285
 7418TIP3    H143669   1.859   2.860  15.712 -0.2846  2.6131 -0.3424
 7418TIP3    H243670   1.751   2.885  15.815 -0.2246 -0.0545  0.4538
 7419TIP3   OH243671   1.173   6.524  14.351  0.4627  0.4259  0.4937
 7419TIP3    H143672   1.149   6.474  14.429  0.9471 -1.4860 -0.5195
 7419TIP3    H243673   1.162   6.462  14.279  1.9490  1.5226 -0.7386
 7420TIP3   OH243674   4.866   0.977  14.469 -0.1881  0.1629  0.3524
 7420TIP3    H143675   4.827   0.928  14.541 -0.1893  0.0963  0.3065
 7420TIP3    H243676   4.836   0.932  14.390  0.8310 -0.5380  0.3409
 7421TIP3   OH243677   1.713   3.412   3.573  0.8840  0.6117 -0.3491
 7421TIP3    H143678   1.661   3.375   3.502  0.7249  1.5858 -0.7577
 7421TIP3    H243679   1.795   3.362   3.572  0.9236  0.6783 -1.2950
 7422TIP3   OH243680   4.042   0.132   6.776  1.0491  0.4257  0.0206
 7422TIP3    H143681   4.122   0.181   6.796  1.4786 -0.6851  1.2302
 7422TIP3    H243682   4.016   0.094   6.860 -0.7567  0.7485 -0.3592
 7423TIP3   OH243683   5.177   5.026  14.782  0.3123  0.4413 -0.1720
 7423TIP3    H143684   5.158   4.973  14.704  1.3552  0.0676 -0.1848
 7423TIP3    H243685   5.099   5.018  14.836  0.3126 -0.8223 -0.3424
 7424TIP3   OH243686   4.036   0.309   1.793  0.0380  0.2630 -0.3969
 7424TIP3    H143687   3.994   0.387   1.756 -1.6150 -0.6401 -0.5048
 7424TIP3    H243688   4.115   0.296   1.740  1.9930  3.4418  1.3569
 7425TIP3   OH243689   3.584   3.003  11.785 -0.3620 -0.3021 -0.0725
 7425TIP3    H143690   3.659   2.955  11.752 -0.1749 -0.7992  1.0092
 7425TIP3    H243691   3.509   2.945  11.770 -0.5561  0.2324 -1.2357
 7426TIP3   OH243692   0.751   3.294  15.675  0.2763 -0.5087  0.2707
 7426TIP3    H143693   0.703   3.255  15.601  0.0326  0.2119  0.0453
 7426TIP3    H243694   0.827   3.336  15.635  0.6108 -0.8652  0.5300
 7427TIP3   OH243695   2.806   5.671   2.684  0.2653  0.2066  0.2733
 7427TIP3    H143696   2.803   5.728   2.607  3.0427  1.0183  0.6516
 7427TIP3    H243697   2.878   5.705   2.736 -0.8788 -0.9534  2.7731
 7428TIP3   OH243698   4.728   5.815  12.583 -0.5137  0.3335  0.2231
 7428TIP3    H143699   4.672   5.892  12.596 -0.0297  1.3389 -2.9305
 7428TIP3    H243700   4.671   5.740  12.605 -2.0028  1.4473  0.3352
 7429TIP3   OH243701   3.164   2.905   3.957  0.4887  0.2975 -0.0262
 7429TIP3    H143702   3.217   2.833   3.993  0.6194  0.7721  0.7378
 7429TIP3    H243703   3.125   2.868   3.877 -0.9774 -1.2546  1.3444
 7430TIP3   OH243704   4.262   3.750  13.388 -0.3621 -0.1353  0.3408
 7430TIP3    H143705   4.297   3.771  13.301  1.1222 -0.3752  0.8405
 7430TIP3    H243706   4.231   3.660  13.381 -1.0512  0.1426 -0.1727
 7431TIP3   OH243707   1.740   2.274  16.823 -0.0706 -0.2922 -0.1580
 7431TIP3    H143708   1.722   2.202  16.763 -2.1120  0.1960 -0.2230
 7431TIP3    H243709   1.832   2.293  16.811 -0.2184 -0.7697 -2.5085
 7432TIP3   OH243710   4.813   5.169  11.963 -0.6412 -0.0377 -0.3315
 7432TIP3    H143711   4.838   5.111  12.035  0.4957  0.8545  0.0138
 7432TIP3    H243712   4.767   5.242  12.005  2.0523  1.6975 -0.1308
 7433TIP3   OH243713   0.708   1.312   2.960 -0.0002 -0.3413 -0.7857
 7433TIP3    H143714   0.619   1.278   2.947 -0.0245 -0.7373  0.2989
 7433TIP3    H243715   0.765   1.246   2.923 -0.0127 -2.0042  1.8657
 7434TIP3   OH243716   6.153   6.606  15.157 -0.3437 -0.4846 -0.4655
 7434TIP3    H143717   6.201   6.522  15.152  0.7018 -0.0611  1.2840
 7434TIP3    H243718   6.171   6.649  15.074  1.8040 -0.6619 -0.1598
 7435TIP3   OH243719   4.534   5.381   5.126 -0.0564 -0.5971 -0.2754
 7435TIP3    H143720   4.608   5.374   5.066 -0.4061 -0.8768 -0.6751
 7435TIP3    H243721   4.465   5.329   5.086 -0.4608 -0.3712  0.1163
 7436TIP3   OH243722   5.988   6.539   3.580 -0.0805 -0.4039 -0.2693
 7436TIP3    H143723   6.068   6.570   3.539  0.7189  0.1677  1.6253
 7436TIP3    H243724   5.946   6.617   3.615  0.4892 -1.0664  2.0440
 7437TIP3   OH243725   5.585   3.375   5.635  0.1812 -0.6131 -0.3567
 7437TIP3    H143726   5.527   3.304   5.609 -0.9140  0.6039 -1.4371
 7437TIP3    H243727   5.534   3.455   5.618  2.3227  0.5569 -1.8102
 7438TIP3   OH243728   2.528   0.851  12.148 -0.1107  0.2945  0.4256
 7438TIP3    H143729   2.581   0.919  12.107 -0.5046  0.3845  0.0480
 7438TIP3    H243730   2.485   0.895  12.222 -2.1337  1.1103 -1.1294
 7439TIP3   OH243731   3.523   3.785  14.096  0.3760 -0.5283  0.3250
 7439TIP3    H143732   3.527   3.829  14.010  0.0406 -1.3865 -0.1394
 7439TIP3    H243733   3.430   3.766  14.109  0.3585  0.0422  1.1207
 7440TIP3   OH243734   3.517   5.265  15.933 -0.1886  0.0031  0.5982
 7440TIP3    H143735   3.478   5.344  15.971 -0.9083  0.4357 -0.9620
 7440TIP3    H243736   3.495   5.196  15.995 -1.6431  0.6237  0.8243
 7441TIP3   OH243737   4.591   3.032   4.056  0.2825 -0.0250 -0.7878
 7441TIP3    H143738   4.604   3.065   3.967  0.6809 -0.8954 -1.0649
 7441TIP3    H243739   4.602   3.109   4.112  3.7427 -0.0543 -1.2188
 7442TIP3   OH243740   1.579   5.008  12.543 -0.1745  0.2614  0.4787
 7442TIP3    H143741   1.659   4.956  12.534 -0.1949  0.4438 -0.9705
 7442TIP3    H243742   1.529   4.963  12.611  0.3283 -0.9381  0.0745
 7443TIP3   OH243743   6.761   0.216  16.583  0.0077 -0.5691 -0.0397
 7443TIP3    H143744   6.816   0.242  16.657  0.0192 -0.4209 -0.0982
 7443TIP3    H243745   6.695   0.158  16.620 -0.6293  0.3381  0.2821
 7444TIP3   OH243746   0.946   4.390  10.740  0.2500  0.9204  0.0340
 7444TIP3    H143747   0.918   4.408  10.830 -2.1820 -0.0330 -0.4848
 7444TIP3    H243748   1.007   4.316  10.749  0.4187  1.1428  0.9146
 7445TIP3   OH243749   4.430   5.188   1.674 -0.0743  0.2173 -0.3241
 7445TIP3    H143750   4.524   5.199   1.662  0.1461 -0.0945  0.9579
 7445TIP3    H243751   4.413   5.217   1.764 -1.1569  0.0476 -0.4558
 7446TIP3   OH243752   0.908   3.240   6.015  0.0446  0.1716  0.3586
 7446TIP3    H143753   0.910   3.241   6.111 -0.2190 -1.8516  0.4268
 7446TIP3    H243754   0.989   3.195   5.990 -0.1227  0.2626 -0.3573
 7447TIP3   OH243755   5.046   4.011   5.527  0.2944 -0.2152  0.0206
 7447TIP3    H143756   4.972   4.067   5.504  1.0098  1.0685  0.7169
 7447TIP3    H243757   5.007   3.929   5.556 -0.8064  0.1373 -0.4394
 7448TIP3   OH243758   1.058   1.203  10.869  0.3303  0.2542 -0.3448
 7448TIP3    H143759   1.143   1.211  10.913 -0.2127  0.6229  0.6811
 7448TIP3    H243760   1.075   1.231  10.779  1.6077 -1.0934 -0.5563
 7449TIP3   OH243761   3.186   0.809  16.119  0.2232  0.0662 -0.0563
 7449TIP3    H143762   3.126   0.773  16.053 -0.2184 -0.3817  0.5799
 7449TIP3    H243763   3.153   0.775  16.202 -0.8979  2.7754  0.7404
 7450TIP3   OH243764   5.220   5.775   2.827  0.1365  0.2543  0.2490
 7450TIP3    H143765   5.190   5.761   2.916  0.4608 -0.3681  0.2669
 7450TIP3    H243766   5.210   5.869   2.812  2.9966  0.9553  2.0037
 7451TIP3   OH243767   3.850   3.846   1.177  0.1334 -0.2658 -0.2414
 7451TIP3    H143768   3.874   3.868   1.087  1.3373 -0.5315 -0.0050
 7451TIP3    H243769   3.925   3.797   1.210  0.3714  1.1159  1.3940
 7452TIP3   OH243770   3.040   6.042  11.530  0.0875  0.3579 -0.7807
 7452TIP3    H143771   2.997   6.113  11.578  0.1841  0.3927 -0.7470
 7452TIP3    H243772   3.025   6.063  11.438  0.6136  0.7234 -0.7820
 7453TIP3   OH243773   5.752   1.283   6.160 -0.4585 -0.0452 -0.0557
 7453TIP3    H143774   5.768   1.359   6.217 -0.7895 -0.5176  0.6934
 7453TIP3    H243775   5.793   1.210   6.206 -1.9913 -0.7102  0.3452
 7454TIP3   OH243776   5.508   3.567   0.330  0.2344 -0.1481 -0.5686
 7454TIP3    H143777   5.443   3.496   0.333  0.0327  0.0707  0.9572
 7454TIP3    H243778   5.464   3.637   0.281 -0.2054 -0.4578 -0.6233
 7455TIP3   OH243779   5.901   1.209   1.387 -0.6017 -0.4693  0.1683
 7455TIP3    H143780   5.987   1.244   1.363 -0.4960  0.4287  1.7714
 7455TIP3    H243781   5.839   1.276   1.358 -0.7443 -0.8887 -0.5285
 7456TIP3   OH243782   1.657   4.461   2.510  0.3027  0.4093 -0.5249
 7456TIP3    H143783   1.739   4.412   2.524 -0.5570 -0.8636  0.2677
 7456TIP3    H243784   1.633   4.490   2.598 -1.0086 -0.7870 -0.4479
 7457TIP3   OH243785   5.481   1.014   2.822 -0.6513 -0.8963  0.6399
 7457TIP3    H143786   5.439   0.937   2.859  1.1889 -1.8372  0.8726
 7457TIP3    H243787   5.473   1.082   2.889 -0.2265 -1.6006  1.4068
 7458TIP3   OH243788   1.199   3.460  16.081  0.1454  0.0673  0.1038
 7458TIP3    H143789   1.228   3.443  16.171 -0.0097  0.1510  0.1707
 7458TIP3    H243790   1.103   3.458  16.086  0.1191  0.8758  0.1079
 7459TIP3   OH243791   0.666   3.197   5.905  0.3597  0.5766  0.1462
 7459TIP3    H143792   0.636   3.129   5.965 -1.4370  2.2417  1.2242
 7459TIP3    H243793   0.748   3.228   5.943  0.4791 -0.0321  0.3926
 7460TIP3   OH243794   6.417   6.217  16.333  0.1055 -0.3775  0.0041
 7460TIP3    H143795   6.474   6.147  16.364  1.2100  1.0784  1.4560
 7460TIP3    H243796   6.462   6.297  16.360 -0.8458  0.9243 -2.0477
 7461TIP3   OH243797   6.277   5.968  13.751 -0.0770  0.2260 -0.4951
 7461TIP3    H143798   6.282   6.050  13.702  0.1400 -0.3655 -1.4830
 7461TIP3    H243799   6.195   5.928  13.722 -0.4826  0.3522  0.4259
 7462TIP3   OH243800   3.890   4.607   0.981  0.5040 -0.5153 -0.1372
 7462TIP3    H143801   3.829   4.661   1.032 -1.0661 -0.9467 -1.4749
 7462TIP3    H243802   3.877   4.518   1.016  1.2383 -0.4298  0.3627
 7463TIP3   OH243803   1.392   4.921   0.518 -0.6523 -0.4471  0.1432
 7463TIP3    H143804   1.370   4.994   0.460 -1.3717 -0.4816  0.3610
 7463TIP3    H243805   1.335   4.933   0.594  1.4291  0.5578  1.6563
 7464TIP3   OH243806   1.652   4.137   5.314  0.1469  0.1537 -0.5412
 7464TIP3    H143807   1.731   4.165   5.267  1.9306  0.1836  2.2670
 7464TIP3    H243808   1.591   4.210   5.303  1.5325  1.3775 -0.5194
 7465TIP3   OH243809   4.729   1.102  13.811  0.5905  0.3966  0.0149
 7465TIP3    H143810   4.661   1.055  13.859 -0.1834  0.1835 -1.2679
 7465TIP3    H243811   4.715   1.194  13.835 -0.5043  0.4211 -0.6285
 7466TIP3   OH243812   2.346   4.322   0.444  0.1820 -0.0040  0.5121
 7466TIP3    H143813   2.363   4.309   0.351  1.3326 -0.5271  0.7876
 7466TIP3    H243814   2.275   4.260   0.464  0.0406 -0.0015  0.0265
 7467TIP3   OH243815   6.485   5.811  17.040  0.3470  0.3934  0.3659
 7467TIP3    H143816   6.443   5.752  16.978 -0.1870  1.0265  0.1091
 7467TIP3    H243817   6.442   5.793  17.124 -1.6345  2.1264 -0.1812
 7468TIP3   OH243818   2.797   0.856   0.769 -0.0996 -0.3103  0.2168
 7468TIP3    H143819   2.834   0.891   0.689  0.8658  0.9382  1.1654
 7468TIP3    H243820   2.704   0.881   0.765  0.0355  0.1334 -0.3127
 7469TIP3   OH243821   3.117   1.223  15.329  0.0729 -0.8143 -0.3010
 7469TIP3    H143822   3.118   1.128  15.323  0.2002 -0.9532  1.4626
 7469TIP3    H243823   3.209   1.249  15.319  0.1316 -0.9264 -0.0350
 7470TIP3   OH243824   6.494   5.772  16.061 -0.2711 -0.0762 -0.1644
 7470TIP3    H143825   6.497   5.867  16.046  3.5373  0.0304  0.3236
 7470TIP3    H243826   6.459   5.764  16.150 -1.2562  0.8143 -0.4533
 7471TIP3   OH243827   6.071   0.017  15.339 -0.2477  0.5528 -0.1459
 7471TIP3    H143828   6.152   0.065  15.323 -0.6431  0.9624 -0.9886
 7471TIP3    H243829   6.065  -0.045  15.266 -0.8255  0.7113 -0.2375
 7472TIP3   OH243830   3.422   5.867  11.016 -0.3072 -0.4413  0.1589
 7472TIP3    H143831   3.353   5.894  10.956 -0.7720  0.1415  0.9310
 7472TIP3    H243832   3.423   5.771  11.010  0.6306 -0.3554 -1.8153
 7473TIP3   OH243833   1.203   2.239  16.699 -0.3669 -0.4484 -0.3120
 7473TIP3    H143834   1.261   2.313  16.681 -0.5699 -0.2104  0.0142
 7473TIP3    H243835   1.206   2.187  16.619  0.9317 -0.8631 -0.0101
 7474TIP3   OH243836   2.060   1.963  13.663  0.0413 -0.6858 -0.1784
 7474TIP3    H143837   1.970   1.938  13.682  0.5139 -1.6039  0.9991
 7474TIP3    H243838   2.057   1.999  13.575 -1.3736 -1.2296 -0.3778
 7475TIP3   OH243839   3.722   0.554  13.727 -0.3993  0.1788  0.0533
 7475TIP3    H143840   3.669   0.482  13.692  1.8834 -1.5420 -0.1331
 7475TIP3    H243841   3.659   0.611  13.771 -2.6536 -0.5508 -1.9863
 7476TIP3   OH243842   4.648   1.623  11.535  0.5073 -0.4905 -0.2990
 7476TIP3    H143843   4.725   1.627  11.592  1.9004  0.9693 -2.1707
 7476TIP3    H243844   4.621   1.714  11.524 -1.4270 -0.9597  0.1480
 7477TIP3   OH243845   5.578   2.620   5.203  0.6814 -0.0310  1.1456
 7477TIP3    H143846   5.670   2.598   5.220  0.7519  0.2935  1.1785
 7477TIP3    H243847   5.568   2.709   5.234  0.6658  0.3705  0.0534
 7478TIP3   OH243848   3.395   0.110  12.872 -0.4373 -0.2148  0.2618
 7478TIP3    H143849   3.472   0.095  12.816 -1.3891 -0.4910 -1.0303
 7478TIP3    H243850   3.375   0.203  12.860  0.0334  0.0076  1.0845
 7479TIP3   OH243851   4.282   4.875   0.551 -0.3748 -0.5515  0.3330
 7479TIP3    H143852   4.366   4.845   0.584 -0.5977 -0.7823  0.7051
 7479TIP3    H243853   4.299   4.962   0.516  0.1440 -0.8491 -0.1553
 7480TIP3   OH243854   0.758   2.976  13.035  0.3666  0.0864 -0.0778
 7480TIP3    H143855   0.751   3.060  12.990 -1.2544  0.0205  0.0139
 7480TIP3    H243856   0.765   2.912  12.965  0.1514  0.1759 -0.1817
 7481TIP3   OH243857   3.033   0.129  15.433  0.1257 -0.0936 -0.7905
 7481TIP3    H143858   3.030   0.211  15.483  0.8331 -0.8194  0.5096
 7481TIP3    H243859   3.085   0.150  15.356  1.0549  0.4716 -0.0328
 7482TIP3   OH243860   2.268   3.657  12.591 -0.6322 -0.1261  0.1264
 7482TIP3    H143861   2.348   3.606  12.578  0.0110  0.9900 -0.4102
 7482TIP3    H243862   2.222   3.612  12.662  0.5014 -0.7414  0.4918
 7483TIP3   OH243863   4.031   0.395  11.056  0.1882 -0.5662  0.4686
 7483TIP3    H143864   4.068   0.343  11.127  1.2784  1.2973  1.3143
 7483TIP3    H243865   3.937   0.396  11.074 -0.2690 -4.1011 -0.8783
 7484TIP3   OH243866   1.581   0.261  12.948 -0.2051 -0.2052  0.7604
 7484TIP3    H143867   1.662   0.235  12.905  0.1883 -0.0470  1.3918
 7484TIP3    H243868   1.534   0.179  12.962 -0.1341 -0.3023  0.4373
 7485TIP3   OH243869   3.894   1.222   2.229  0.7095  0.2516 -0.0937
 7485TIP3    H143870   3.990   1.226   2.226  0.7780 -1.0901 -0.1002
 7485TIP3    H243871   3.868   1.307   2.265  1.8357  1.1211 -1.2205
 7486TIP3   OH243872   3.930   5.157   5.319 -0.2503  0.1167 -0.2040
 7486TIP3    H143873   3.997   5.223   5.331  0.6188 -1.0359  1.7406
 7486TIP3    H243874   3.890   5.178   5.234  1.2186  1.9862 -0.4901
 7487TIP3   OH243875   2.488   6.311   3.090 -0.2762  0.2394  0.5682
 7487TIP3    H143876   2.440   6.246   3.142  0.3343  0.3508  1.2846
 7487TIP3    H243877   2.471   6.394   3.133 -0.2124  0.4139  0.2609
 7488TIP3   OH243878   0.181   3.859  11.428 -0.0091  0.2032  0.3534
 7488TIP3    H143879   0.124   3.935  11.416 -0.7602 -0.1414  1.6323
 7488TIP3    H243880   0.135   3.787  11.386 -1.3831 -0.4353  2.7741
 7489TIP3   OH243881   5.006   4.053   2.857 -0.4662 -0.3920 -0.9074
 7489TIP3    H143882   5.069   4.016   2.919  0.7100  1.2526 -1.0657
 7489TIP3    H243883   4.928   3.998   2.867  1.6129 -3.9045 -2.2586
 7490TIP3   OH243884   1.302   2.879   4.783  0.0142  0.2122  0.0763
 7490TIP3    H143885   1.244   2.814   4.745 -0.8927 -0.0301  1.7707
 7490TIP3    H243886   1.380   2.830   4.810 -0.1484  0.0483  0.2474
 7491TIP3   OH243887   6.285   2.754  12.460  0.0989 -0.0062  0.0273
 7491TIP3    H143888   6.244   2.808  12.392 -0.7365  0.7884  1.1239
 7491TIP3    H243889   6.288   2.666  12.423 -1.8031  0.0994 -0.4357
 7492TIP3   OH243890   3.100   0.342  17.158  0.0865  0.4136  0.6891
 7492TIP3    H143891   3.013   0.380  17.151  0.3130  0.8235 -0.0486
 7492TIP3    H243892   3.160   0.416  17.150  0.5175  0.0119  0.0581
 7493TIP3   OH243893   2.788   1.882  17.125 -0.1053 -0.0213  0.3293
 7493TIP3    H143894   2.775   1.805  17.070 -1.2918  0.7248 -0.4709
 7493TIP3    H243895   2.850   1.936  17.077 -1.2685  0.7084 -0.4150
 7494TIP3   OH243896   0.022   1.067   5.721 -0.0346 -0.0266  0.4931
 7494TIP3    H143897  -0.063   1.055   5.679 -0.3455  1.7101  0.5887
 7494TIP3    H243898   0.045   1.158   5.704  2.4517 -0.7970 -0.6703
 7495TIP3   OH243899   5.511   4.855   4.224  0.1294 -0.0690  0.3055
 7495TIP3    H143900   5.525   4.825   4.314 -0.0154  0.9367  0.6691
 7495TIP3    H243901   5.425   4.819   4.200  0.0810 -0.1767  0.6358
 7496TIP3   OH243902   1.294   5.248   1.728 -1.0264 -0.7168  0.4605
 7496TIP3    H143903   1.308   5.309   1.655  0.5406 -0.7861  0.6681
 7496TIP3    H243904   1.199   5.234   1.729 -1.9017  3.6004  1.9219
 7497TIP3   OH243905   1.583   2.498  11.366  0.3162 -0.0572 -0.0199
 7497TIP3    H143906   1.667   2.453  11.365  0.5245  0.3270 -0.0263
 7497TIP3    H243907   1.518   2.428  11.358  0.6784 -0.2448 -1.5920
 7498TIP3   OH243908   6.027   3.995  13.428 -0.2583 -0.4375  0.0617
 7498TIP3    H143909   5.934   4.002  13.450  0.2535  0.2157  2.3037
 7498TIP3    H243910   6.042   3.901  13.422 -1.1216 -0.5436 -0.6707
 7499TIP3   OH243911   4.206   0.417  17.320 -0.1380  0.1350 -0.1046
 7499TIP3    H143912   4.163   0.334  17.301 -0.5516 -0.2541  2.1795
 7499TIP3    H243913   4.134   0.479  17.333  0.0359  0.1268  1.0429
 7500TIP3   OH243914   1.302   6.445  12.859 -0.0869 -0.1443 -0.3439
 7500TIP3    H143915   1.282   6.421  12.768 -0.4351  0.6660 -0.4950
 7500TIP3    H243916   1.281   6.366  12.910  0.9237 -0.8960 -1.0467
 7501TIP3   OH243917   3.480   0.447  13.294  0.1249 -0.0820  0.1922
 7501TIP3    H143918   3.531   0.375  13.333  0.6409 -0.1294 -0.5533
 7501TIP3    H243919   3.538   0.484  13.228 -0.5773  0.2928 -0.2215
 7502TIP3   OH243920   3.583   1.881   2.492 -0.2797  0.3630 -0.1943
 7502TIP3    H143921   3.674   1.902   2.516  0.2222 -0.9548 -0.8634
 7502TIP3    H243922   3.531   1.924   2.560  0.8840  0.4680  0.6741
 7503TIP3   OH243923   2.130   4.601   2.913 -0.3368 -0.7649 -0.0105
 7503TIP3    H143924   2.159   4.673   2.857 -2.5942  0.1891 -0.0271
 7503TIP3    H243925   2.195   4.531   2.898  0.5234  0.3605 -1.8436
 7504TIP3   OH243926   2.971   1.467   1.076  0.2207  0.3046  0.0656
 7504TIP3    H143927   3.055   1.468   1.029 -0.2778 -2.4510 -1.0925
 7504TIP3    H243928   2.995   1.465   1.168  1.3589  1.5344 -0.1725
 7505TIP3   OH243929   5.741   2.164   3.851  0.1831  0.7201 -0.0592
 7505TIP3    H143930   5.738   2.238   3.790 -1.1637  1.2220  0.5808
 7505TIP3    H243931   5.833   2.157   3.876  0.7198  0.7136 -1.8667
 7506TIP3   OH243932   5.851   0.935   6.307  0.0373 -0.0941  0.0364
 7506TIP3    H143933   5.815   0.884   6.234 -0.1863  2.1195 -1.5066
 7506TIP3    H243934   5.912   0.996   6.265 -0.1055  1.2552  1.7141
 7507TIP3   OH243935   4.017   0.847   2.420 -0.1717  0.3134 -0.0952
 7507TIP3    H143936   3.929   0.848   2.382 -0.1448 -0.1012 -0.1793
 7507TIP3    H243937   4.058   0.769   2.382  0.2555  0.5416 -0.1101
 7508TIP3   OH243938   2.565   6.539  16.250 -0.3894  0.4920 -0.1552
 7508TIP3    H143939   2.660   6.542  16.263 -0.1357  1.2558 -1.9138
 7508TIP3    H243940   2.531   6.509  16.334  1.4159  0.0019  0.4607
 7509TIP3   OH243941   1.217   2.929  15.428 -0.3394  0.0991 -0.2097
 7509TIP3    H143942   1.121   2.933  15.432 -0.4021 -0.4192 -0.9522
 7509TIP3    H243943   1.242   2.871  15.501 -0.5101  1.0253  0.6037
 7510TIP3   OH243944   1.587   4.769  16.611  0.5504  0.2197  0.9312
 7510TIP3    H143945   1.586   4.862  16.586 -2.6496  0.3485  1.0985
 7510TIP3    H243946   1.611   4.723  16.531  0.8807  1.1263  0.4862
 7511TIP3   OH243947   3.243   0.077  17.160 -0.1220 -0.0054 -0.3804
 7511TIP3    H143948   3.238   0.151  17.220 -1.3582 -1.1650  1.0521
 7511TIP3    H243949   3.181   0.097  17.090 -0.9911  0.0102  0.3830
 7512TIP3   OH243950   4.741   1.188   1.823 -0.3567  0.1488  0.0767
 7512TIP3    H143951   4.765   1.267   1.872 -0.0576  0.8258 -1.1339
 7512TIP3    H243952   4.656   1.163   1.860  1.8341 -2.1591  4.2693
 7513TIP3   OH243953   6.603   6.271  14.990  0.0275 -0.3802  0.4428
 7513TIP3    H143954   6.589   6.288  15.084  3.0434  1.9003  0.6203
 7513TIP3    H243955   6.559   6.343  14.946  0.7240 -0.0302  0.3012
 7514TIP3   OH243956   5.974   3.820   3.001 -0.0365  0.0541  0.1309
 7514TIP3    H143957   5.913   3.856   2.937  1.7072  0.3841 -1.4376
 7514TIP3    H243958   5.955   3.727   3.003  0.1805 -0.0330 -1.2355
 7515TIP3   OH243959   1.066   5.173   5.560 -0.1605 -0.0434 -0.0561
 7515TIP3    H143960   1.106   5.256   5.587 -1.1926 -0.2412  2.3552
 7515TIP3    H243961   0.982   5.198   5.521 -1.7154  0.0616  3.0662
 7516TIP3   OH243962   3.090   3.172  16.323 -0.6341  0.3096  0.4618
 7516TIP3    H143963   3.055   3.162  16.411  1.0495 -0.2251  1.1055
 7516TIP3    H243964   3.039   3.111  16.270 -1.5445  0.5081  1.0914
 7517TIP3   OH243965   6.011   2.643   1.255  0.4982 -0.3629  0.5247
 7517TIP3    H143966   6.004   2.716   1.316 -0.2274  1.9222 -2.1134
 7517TIP3    H243967   5.929   2.643   1.206  1.9272 -0.4943 -2.0752
 7518TIP3   OH243968   0.190   5.255  16.423 -0.6778  0.3279 -0.1960
 7518TIP3    H143969   0.136   5.307  16.483  0.8834  0.5017  1.1187
 7518TIP3    H243970   0.180   5.165  16.453 -1.0173  0.2354 -0.5833
 7519TIP3   OH243971   2.485   5.922  17.235 -0.0644  0.2949 -0.1710
 7519TIP3    H143972   2.399   5.909  17.274 -0.0914  0.0705 -0.3009
 7519TIP3    H243973   2.527   5.836  17.239 -0.1051  0.2449 -0.7237
 7520TIP3   OH243974   2.345   4.353  16.070  0.0849 -0.4684 -0.0688
 7520TIP3    H143975   2.397   4.380  16.146 -2.1822 -0.8234  1.7186
 7520TIP3    H243976   2.267   4.408  16.073 -0.3258 -0.8860 -1.8570
 7521TIP3   OH243977   4.873   5.463   0.115 -0.3040 -0.5178 -0.0215
 7521TIP3    H143978   4.938   5.531   0.125 -1.5419  0.8631 -0.9047
 7521TIP3    H243979   4.876   5.440   0.022 -0.7030 -0.8367  0.0393
 7522TIP3   OH243980   4.693   3.928  15.963  0.5526  0.0568 -0.2869
 7522TIP3    H143981   4.610   3.909  16.007  2.0250 -0.6484  2.3559
 7522TIP3    H243982   4.683   3.887  15.876 -0.8941 -2.3942  0.9136
 7523TIP3   OH243983   2.826   4.616   1.705 -0.3142  0.0085 -0.1715
 7523TIP3    H143984   2.874   4.663   1.773  1.0091  1.4119 -1.9652
 7523TIP3    H243985   2.733   4.630   1.726  0.0606  2.1356  0.2180
 7524TIP3   OH243986   5.327   5.570   1.768  0.1355  0.3163 -0.1694
 7524TIP3    H143987   5.280   5.639   1.816 -0.9029 -1.0611  0.8618
 7524TIP3    H243988   5.309   5.590   1.676 -1.7861  0.3664  0.1619
 7525TIP3   OH243989   6.584   6.774  14.088  0.2322  0.1975 -0.2311
 7525TIP3    H143990   6.554   6.698  14.138 -3.1692  1.1766 -0.5659
 7525TIP3    H243991   6.675   6.753  14.065 -0.5538 -3.7812 -0.3777
 7526TIP3   OH243992   2.146   3.385  12.772  0.1962  0.2108 -0.2820
 7526TIP3    H143993   2.067   3.375  12.718 -1.1417 -1.4956  1.8276
 7526TIP3    H243994   2.194   3.303  12.760  0.3556  0.2008  0.3690
 7527TIP3   OH243995   4.891   5.991  15.580 -0.0869 -0.4533  0.4649
 7527TIP3    H143996   4.941   5.913  15.603  0.4112 -0.1878  0.2929
 7527TIP3    H243997   4.852   5.970  15.495  2.6386  0.6210 -1.1938
 7528TIP3   OH243998   4.040   5.367   5.073 -0.5583  0.5887 -0.0562
 7528TIP3    H143999   3.986   5.289   5.063 -0.7007  0.7775 -0.7918
 7528TIP3    H244000   4.032   5.413   4.989  2.1754 -0.2547 -0.8716
 7529TIP3   OH244001   2.032   1.351  16.956  0.1514 -0.1111  0.0567
 7529TIP3    H144002   1.990   1.267  16.937  2.0822 -1.2961  0.7098
 7529TIP3    H244003   2.014   1.366  17.049  0.5134 -0.2455  0.1514
 7530TIP3   OH244004   4.038   3.165  11.054  0.3431  0.2069  0.4493
 7530TIP3    H144005   4.059   3.082  11.011 -1.5187  0.8599 -1.9368
 7530TIP3    H244006   4.076   3.232  10.996 -2.2737  1.1211 -0.3310
 7531TIP3   OH244007   0.724   6.310   4.176  0.0614 -0.3983  0.1217
 7531TIP3    H144008   0.645   6.358   4.202  0.8614  2.2435 -1.8726
 7531TIP3    H244009   0.691   6.233   4.130 -1.3186 -0.4522  1.1362
 7532TIP3   OH244010   4.215   6.232   2.705  0.2824  0.2916  0.3087
 7532TIP3    H144011   4.138   6.273   2.666  1.1482  0.9471 -0.7815
 7532TIP3    H244012   4.219   6.145   2.665 -0.9128 -0.4901  1.7732
 7533TIP3   OH244013   5.554   5.350   3.923 -0.3016 -0.7420 -0.3850
 7533TIP3    H144014   5.521   5.439   3.938 -0.5266 -0.8181 -0.4240
 7533TIP3    H244015   5.505   5.296   3.985  2.2713 -0.3766  2.2228
 7534TIP3   OH244016   4.489   3.231  12.493 -0.1507 -0.2074 -0.1843
 7534TIP3    H144017   4.539   3.285  12.555  0.7802 -1.6760  0.4060
 7534TIP3    H244018   4.492   3.280  12.411 -1.3496  1.7519  0.8563
 7535TIP3   OH244019   3.302   2.028  13.448 -0.1751  0.1711 -0.1368
 7535TIP3    H144020   3.354   2.082  13.388  0.1882 -0.4729 -0.4091
 7535TIP3    H244021   3.224   2.005  13.398  0.5620 -1.1476 -0.7123
 7536TIP3   OH244022   1.891   2.037   5.253 -0.3763  0.4549  0.8289
 7536TIP3    H144023   1.855   2.071   5.171  0.9593  0.9304  0.4122
 7536TIP3    H244024   1.911   1.946   5.235 -1.8933  0.0061  1.2585
 7537TIP3   OH244025   2.427   3.220   4.348  0.0694 -0.2858  0.5650
 7537TIP3    H144026   2.515   3.248   4.376 -0.4058  1.8022  0.0951
 7537TIP3    H244027   2.441   3.183   4.261  0.2115  2.6135 -0.7831
 7538TIP3   OH244028   5.724   2.921   0.692 -0.4071 -0.1135 -0.1912
 7538TIP3    H144029   5.732   3.016   0.684 -1.0037 -0.0566 -0.1526
 7538TIP3    H244030   5.765   2.887   0.613  0.2627  0.1557  0.0351
 7539TIP3   OH244031   4.152   5.892  14.153 -0.1863  0.0019 -0.2114
 7539TIP3    H144032   4.111   5.978  14.167  1.2419  1.0370 -1.9125
 7539TIP3    H244033   4.087   5.842  14.103 -0.9651  0.1343  0.6471
 7540TIP3   OH244034   0.161   6.515   2.640 -0.2786 -0.3939 -0.0800
 7540TIP3    H144035   0.227   6.584   2.652  0.5717 -1.0930 -0.5683
 7540TIP3    H244036   0.195   6.463   2.567 -1.6448 -0.4687 -0.6779
 7541TIP3   OH244037   1.287   0.814  12.920 -0.1108  0.0199  0.0579
 7541TIP3    H144038   1.325   0.899  12.943 -1.0962 -0.0433  2.1171
 7541TIP3    H244039   1.338   0.751  12.971 -0.2797 -0.4914 -0.4013
 7542TIP3   OH244040   4.931   5.575   4.121  0.7948 -0.0654  0.5566
 7542TIP3    H144041   4.858   5.524   4.085  0.2894  2.1414 -1.7923
 7542TIP3    H244042   5.008   5.520   4.106  0.1940 -0.4769 -1.2908
 7543TIP3   OH244043   3.724   4.317  11.831 -0.7366 -0.1179 -0.1365
 7543TIP3    H144044   3.775   4.260  11.773  2.1804  0.7436  1.3558
 7543TIP3    H244045   3.669   4.258  11.882  0.8532 -1.4560  0.0963
 7544TIP3   OH244046   2.908   2.857  15.354 -0.0771 -0.8173 -0.4111
 7544TIP3    H144047   2.964   2.843  15.430 -0.9520  0.9672  0.6083
 7544TIP3    H244048   2.915   2.951  15.335 -1.6843 -0.7959 -1.0696
 7545TIP3   OH244049   0.725   5.408  15.878 -0.0692  0.1446  0.5687
 7545TIP3    H144050   0.697   5.411  15.969 -4.0663 -0.0224 -0.4554
 7545TIP3    H244051   0.769   5.492  15.863  0.3497  0.3213  2.4934
 7546TIP3   OH244052   0.524   4.395   4.231  0.8965  0.7458 -0.3783
 7546TIP3    H144053   0.529   4.312   4.277 -1.7198 -0.0613 -1.3733
 7546TIP3    H244054   0.488   4.373   4.145  0.0527  2.8941 -0.6415
 7547TIP3   OH244055   2.646   2.887   3.274 -0.0903 -0.3068 -0.4665
 7547TIP3    H144056   2.669   2.821   3.209 -0.6942 -1.4656  0.4529
 7547TIP3    H244057   2.718   2.886   3.337  0.1842  0.3568 -0.7530
 7548TIP3   OH244058   3.692   2.448   6.699 -0.7155 -0.3051 -0.4192
 7548TIP3    H144059   3.772   2.480   6.657 -1.5787  0.3006 -1.6428
 7548TIP3    H244060   3.707   2.463   6.792 -0.6910  2.9116 -0.8253
 7549TIP3   OH244061   0.933   2.349   4.256 -0.4494 -0.0016 -0.8865
 7549TIP3    H144062   0.859   2.408   4.237  0.4551  1.8030  0.8966
 7549TIP3    H244063   0.984   2.348   4.175 -0.0587  2.3615 -0.7174
 7550TIP3   OH244064   0.089   3.731   4.301 -0.2429 -0.7780 -0.1570
 7550TIP3    H144065   0.157   3.671   4.333  2.2119  0.7930 -2.1169
 7550TIP3    H244066   0.072   3.788   4.376  1.8847 -0.1481 -0.0715
 7551TIP3   OH244067   6.697   4.845  15.868  0.0104  0.0460  0.1452
 7551TIP3    H144068   6.728   4.860  15.779 -1.3512  1.0557 -0.2010
 7551TIP3    H244069   6.673   4.933  15.900 -2.5597 -0.6079  0.2937
 7552TIP3   OH244070   4.056   6.453  12.489 -0.2646 -0.5217  0.1691
 7552TIP3    H144071   3.965   6.485  12.492  0.0579  0.5383 -0.9999
 7552TIP3    H244072   4.047   6.358  12.502 -1.6828 -0.6553 -1.3644
 7553TIP3   OH244073   6.625   2.843   2.841 -0.0983 -0.7027 -0.7105
 7553TIP3    H144074   6.646   2.898   2.765 -0.0279  1.8018  0.9939
 7553TIP3    H244075   6.709   2.807   2.869  0.4168  0.9297 -0.0259
 7554TIP3   OH244076   5.012   3.484  13.187 -0.0728 -0.6130  0.2053
 7554TIP3    H144077   4.991   3.472  13.094  1.0699 -0.7821 -0.0487
 7554TIP3    H244078   4.929   3.511  13.227 -0.2759  0.9407 -1.1294
 7555TIP3   OH244079   0.300   6.018   5.282 -0.2166  0.1720  0.4044
 7555TIP3    H144080   0.316   5.970   5.364  0.3255  0.5001  0.4924
 7555TIP3    H244081   0.357   6.094   5.287 -0.2432  0.2398 -0.2451
 7556TIP3   OH244082   0.304   3.301  16.279 -1.1806  0.7316  0.1511
 7556TIP3    H144083   0.280   3.246  16.204  0.7120  1.5701 -1.1314
 7556TIP3    H244084   0.329   3.385  16.241  1.3152  0.7175  1.5073
 7557TIP3   OH244085   6.728   4.520  13.953 -0.5453 -0.7567  0.1823
 7557TIP3    H144086   6.695   4.581  14.019 -0.6561 -0.7541  0.1245
 7557TIP3    H244087   6.657   4.513  13.890 -0.0308  0.0805 -0.5079
 7558TIP3   OH244088   2.797   4.754   4.577 -0.2725  0.1886 -0.4269
 7558TIP3    H144089   2.827   4.672   4.617  0.4955  0.3337 -0.7108
 7558TIP3    H244090   2.729   4.726   4.515  0.6014 -0.3260 -1.1688
 7559TIP3   OH244091   0.711   6.237  13.813  0.5042  0.3146 -0.5078
 7559TIP3    H144092   0.721   6.193  13.729  0.0478  0.9607 -0.9109
 7559TIP3    H244093   0.748   6.324  13.800  0.4566  0.4110 -0.0342
 7560TIP3   OH244094   0.347   4.170   4.558  0.3808  0.3535  0.0202
 7560TIP3    H144095   0.339   4.265   4.550 -1.8378  0.0976 -2.2088
 7560TIP3    H244096   0.364   4.155   4.651 -1.4652  2.8660  0.8777
 7561TIP3   OH244097   5.797   3.798   6.176  0.1488  0.1210  0.4842
 7561TIP3    H144098   5.844   3.850   6.241 -1.6695  1.2952  0.9436
 7561TIP3    H244099   5.733   3.859   6.138 -0.8863 -1.3278 -0.2120
 7562TIP3   OH244100   4.234   4.493  14.356 -0.1677 -0.3129 -0.0558
 7562TIP3    H144101   4.149   4.452  14.340  0.6248 -1.2817 -2.1005
 7562TIP3    H244102   4.285   4.426  14.402 -0.4367  0.2069  1.0193
 7563TIP3   OH244103   0.974   2.593  15.637 -0.3354 -0.0207  0.1527
 7563TIP3    H144104   0.915   2.600  15.561 -0.1497  1.9945  0.1274
 7563TIP3    H244105   1.061   2.613  15.602 -0.2848  1.1953  0.9030
 7564TIP3   OH244106   3.383   0.048  16.154 -0.1861  0.5106 -0.0508
 7564TIP3    H144107   3.446   0.058  16.083  2.3505  1.3910  2.1786
 7564TIP3    H244108   3.377  -0.047  16.167  0.3902  0.4014 -0.5362
 7565TIP3   OH244109   6.506   2.412   0.379 -0.0346 -0.0320  0.2346
 7565TIP3    H144110   6.590   2.448   0.406  0.3664 -0.8122  0.0603
 7565TIP3    H244111   6.443   2.451   0.439  0.4734  0.4132  0.4883
 7566TIP3   OH244112   2.800   1.253   1.020 -0.4066  0.3152 -0.4898
 7566TIP3    H144113   2.852   1.330   1.040 -1.4224  0.8683  0.1217
 7566TIP3    H244114   2.768   1.224   1.105  2.2457 -2.5218 -0.2684
 7567TIP3   OH244115   0.623   6.222   2.899 -0.5583  0.5344 -1.2087
 7567TIP3    H144116   0.648   6.285   2.831 -0.3140  2.4993  0.5926
 7567TIP3    H244117   0.657   6.259   2.980 -2.5687 -0.6666  0.2959
 7568TIP3   OH244118   2.004   0.954  13.802  0.6054 -0.2865  0.3173
 7568TIP3    H144119   2.052   0.969  13.720 -1.9581 -3.4709 -2.0219
 7568TIP3    H244120   2.013   0.861  13.819 -2.0229 -0.4163  1.5212
 7569TIP3   OH244121   6.739   3.457   5.047  0.5603 -0.3589  0.7486
 7569TIP3    H144122   6.823   3.494   5.073  0.4102  0.1064  0.5754
 7569TIP3    H244123   6.708   3.515   4.977 -0.4340  0.1337  1.5828
 7570TIP3   OH244124   4.549   0.514  10.820 -0.6274  0.0269  0.2465
 7570TIP3    H144125   4.530   0.576  10.751 -0.2390 -1.4921 -1.3010
 7570TIP3    H244126   4.465   0.500  10.864 -1.0020  0.5904 -0.2755
 7571TIP3   OH244127   1.852   2.145   0.660 -0.6474 -0.3572  0.3549
 7571TIP3    H144128   1.789   2.217   0.665 -0.9580 -0.6821  1.2388
 7571TIP3    H244129   1.881   2.131   0.750  0.1050 -0.7311  0.0649
 7572TIP3   OH244130   6.078   4.749   5.056  0.2622  0.0695  1.0286
 7572TIP3    H144131   6.099   4.747   5.150 -0.1599  1.9802  1.1974
 7572TIP3    H244132   6.056   4.840   5.038  2.8066  0.3231 -1.4933
 7573TIP3   OH244133   3.024   5.223   3.381 -0.5960  0.5732 -0.1810
 7573TIP3    H144134   2.939   5.196   3.418 -1.0638 -0.1583 -1.7082
 7573TIP3    H244135   3.081   5.148   3.398 -0.5998  0.5564 -0.2420
 7574TIP3   OH244136   3.606   5.787  12.192  0.4408 -0.2310  0.5217
 7574TIP3    H144137   3.514   5.813  12.180  0.5993  0.6752  1.2206
 7574TIP3    H244138   3.617   5.714  12.131 -0.5406  0.1209 -0.1212
 7575TIP3   OH244139   6.725   1.728  13.292  0.4418  0.0137 -0.4221
 7575TIP3    H144140   6.731   1.669  13.217  0.3383 -0.5581  0.0110
 7575TIP3    H244141   6.650   1.695  13.342 -0.0379  0.9158 -0.5174
 7576TIP3   OH244142   2.761   3.564   4.883 -0.0935 -0.0679  0.1465
 7576TIP3    H144143   2.725   3.514   4.810  0.3676  0.6055 -0.5497
 7576TIP3    H244144   2.690   3.565   4.948 -0.6120 -0.4269 -0.3990
 7577TIP3   OH244145   0.961   2.228   3.223  0.5014  0.4040  0.1839
 7577TIP3    H144146   0.867   2.216   3.237  0.5388 -0.5500 -0.2774
 7577TIP3    H244147   1.002   2.155   3.269  0.8083 -0.8881 -1.9765
 7578TIP3   OH244148   3.069   5.533  16.854  0.3038  0.4813  0.4280
 7578TIP3    H144149   3.026   5.452  16.881  0.7797  0.0225 -0.1726
 7578TIP3    H244150   2.999   5.598  16.856  0.3993  0.6193  3.2443
 7579TIP3   OH244151   6.348   3.929   3.768 -0.4754 -0.6471 -0.1360
 7579TIP3    H144152   6.420   3.955   3.711 -1.1387 -0.1554 -0.7834
 7579TIP3    H244153   6.290   3.879   3.710 -0.9396 -0.5247  0.2210
 7580TIP3   OH244154   2.403   1.387  15.166 -0.1681  0.2185 -0.2435
 7580TIP3    H144155   2.476   1.331  15.193  0.3336  1.3538  0.8898
 7580TIP3    H244156   2.342   1.383  15.240 -1.5416 -1.1228 -1.3908
 7581TIP3   OH244157   3.898   5.233  16.107  0.1425 -0.3195  0.1286
 7581TIP3    H144158   3.884   5.310  16.050  0.4841 -1.5227 -1.6745
 7581TIP3    H244159   3.810   5.206  16.133 -0.0561 -0.0319 -0.2275
 7582TIP3   OH244160   4.121   3.277  14.221 -0.4342  0.0434  0.2676
 7582TIP3    H144161   4.170   3.314  14.147 -2.0766  2.5305  0.2776
 7582TIP3    H244162   4.092   3.353  14.271 -2.2977 -1.3903  1.5360
 7583TIP3   OH244163   3.387   5.798   4.767  0.3161  0.7695 -0.2607
 7583TIP3    H144164   3.348   5.868   4.715 -1.4172 -0.5684 -0.8427
 7583TIP3    H244165   3.394   5.724   4.706 -2.9943 -1.2882  1.5797
 7584TIP3   OH244166   2.090   0.680   3.113  0.0843 -0.3958 -0.1497
 7584TIP3    H144167   2.121   0.601   3.158  0.0668 -0.7689 -0.7833
 7584TIP3    H244168   2.008   0.652   3.071 -0.3305  0.1715  0.2635
 7585TIP3   OH244169   1.599   5.922  14.977  0.1647 -0.6559  0.2218
 7585TIP3    H144170   1.646   5.940  14.896  0.6261 -0.5103  0.5175
 7585TIP3    H244171   1.514   5.965  14.966 -0.3555 -1.8898 -0.7752
 7586TIP3   OH244172   0.635   4.207   1.656  0.6125  0.3173 -0.7710
 7586TIP3    H144173   0.609   4.144   1.589 -3.4841 -0.6339  1.3679
 7586TIP3    H244174   0.690   4.156   1.716 -1.0915 -0.8400 -0.0844
 7587TIP3   OH244175   0.755   5.587   3.041  0.6260 -0.5101 -0.6336
 7587TIP3    H144176   0.800   5.529   3.102 -0.9493 -0.9313  0.1923
 7587TIP3    H244177   0.702   5.528   2.987  0.5784  0.0128 -1.1693
 7588TIP3   OH244178   2.375   0.173  14.882  0.4724 -0.3709 -0.1612
 7588TIP3    H144179   2.295   0.198  14.835  0.7905 -1.0927 -1.1364
 7588TIP3    H244180   2.346   0.156  14.971 -0.3287  0.1367 -0.3134
 7589TIP3   OH244181   1.273   2.055  12.645  0.4285 -0.0696  0.0644
 7589TIP3    H144182   1.316   2.075  12.562 -0.8146 -0.0042 -0.5876
 7589TIP3    H244183   1.191   2.105  12.641 -0.3479 -1.2729  0.6622
 7590TIP3   OH244184   2.072   0.730  16.018 -0.2905  0.4105  0.0142
 7590TIP3    H144185   2.040   0.723  16.108  0.0917  0.8927  0.1945
 7590TIP3    H244186   2.068   0.641  15.984 -1.9082  0.4657 -0.0079
 7591TIP3   OH244187   4.213   4.498  13.628  0.2626  0.6097 -0.3842
 7591TIP3    H144188   4.274   4.428  13.606 -0.2753  0.1994 -0.6176
 7591TIP3    H244189   4.171   4.520  13.545  0.4989  1.2793 -0.3282
 7592TIP3   OH244190   5.658   2.006   4.552  0.0585 -0.4141 -0.1118
 7592TIP3    H144191   5.625   2.091   4.522 -1.1347 -1.1814 -1.0761
 7592TIP3    H244192   5.746   2.001   4.515 -0.8990 -0.7615 -2.5316
 7593TIP3   OH244193   6.263   4.251   4.402  0.0130 -0.3496 -0.2769
 7593TIP3    H144194   6.207   4.305   4.345 -1.1549 -0.6113  0.5682
 7593TIP3    H244195   6.223   4.164   4.399  0.4721 -0.5814  0.2120
 7594TIP3   OH244196   6.713   6.774  11.157  0.6526  0.1114 -0.0776
 7594TIP3    H144197   6.670   6.821  11.086 -1.1393 -1.1144  0.1191
 7594TIP3    H244198   6.643   6.758  11.220  1.2987 -2.3157  0.1071
 7595TIP3   OH244199   3.163   5.710   0.860 -0.3720 -0.3918  0.5668
 7595TIP3    H144200   3.145   5.804   0.854 -0.1569 -0.3824 -0.0603
 7595TIP3    H244201   3.132   5.675   0.776  0.6743 -0.6841  0.2896
 7596TIP3   OH244202   2.308   6.739  12.298 -0.1751 -0.3053 -0.3000
 7596TIP3    H144203   2.271   6.775  12.218  1.0021  0.4505 -0.5209
 7596TIP3    H244204   2.246   6.670  12.324 -0.8203 -0.2346 -1.5769
 7597TIP3   OH244205   4.559   6.561  13.509  0.2633  0.3570 -0.5076
 7597TIP3    H144206   4.463   6.556  13.508  0.3188 -1.4412 -0.0530
 7597TIP3    H244207   4.578   6.636  13.565 -0.8764  0.2537  0.0515
 7598TIP3   OH244208   0.987   3.143  10.671 -0.2138  0.3078  0.0707
 7598TIP3    H144209   1.054   3.210  10.682 -0.5371  0.5288  0.7068
 7598TIP3    H244210   0.976   3.105  10.758 -0.0531 -0.5657 -0.2752
 7599TIP3   OH244211   5.068   4.208  14.381  0.3073  0.2500  0.1694
 7599TIP3    H144212   5.157   4.238  14.370 -0.5738  2.4049 -1.6895
 7599TIP3    H244213   5.020   4.283  14.416 -1.0490 -0.4195 -0.1395
 7600TIP3   OH244214   6.019   3.113   5.785 -0.0966 -0.3402 -0.0034
 7600TIP3    H144215   5.966   3.192   5.777  0.0084  0.1613  2.9682
 7600TIP3    H244216   6.094   3.140   5.838 -1.5256 -2.9233  3.7826
 7601TIP3   OH244217   0.405   5.197   3.623 -0.7618  0.3290 -0.3592
 7601TIP3    H144218   0.339   5.264   3.642  2.0171  2.9698  0.8037
 7601TIP3    H244219   0.434   5.216   3.534 -2.5785 -1.9029 -1.5401
 7602TIP3   OH244220   5.867   2.257  14.128 -0.0241 -0.8076 -0.1874
 7602TIP3    H144221   5.796   2.194  14.123 -0.9906  0.1953  0.5408
 7602TIP3    H244222   5.941   2.207  14.162 -0.8740 -1.4953  0.7051
 7603TIP3   OH244223   6.147   3.221  10.827 -0.8165 -0.1676 -0.2011
 7603TIP3    H144224   6.236   3.201  10.800 -0.5687  1.2008 -0.4769
 7603TIP3    H244225   6.106   3.135  10.842  0.8791 -0.8009  1.1142
 7604TIP3   OH244226   3.394   0.286  16.432 -1.2499 -0.1158  0.3349
 7604TIP3    H144227   3.311   0.333  16.436 -1.0507  0.1735  2.0612
 7604TIP3    H244228   3.456   0.343  16.479  0.1415  0.0563 -1.5917
 7605TIP3   OH244229   6.443   6.688  11.310  0.0493 -0.1329  0.0549
 7605TIP3    H144230   6.471   6.676  11.401  2.0362  0.1825 -0.4751
 7605TIP3    H244231   6.411   6.778  11.307 -1.7272 -0.6878  0.8082
 7606TIP3   OH244232   6.709   5.903   3.803  0.4518  0.1220  0.0617
 7606TIP3    H144233   6.791   5.946   3.776  0.5762  2.3156  3.3028
 7606TIP3    H244234   6.730   5.863   3.888 -1.6831  0.2862  0.7255
 7607TIP3   OH244235   6.036   3.614   5.399 -0.2334  0.1945 -0.0779
 7607TIP3    H144236   6.016   3.522   5.416  0.3390 -0.2185 -1.4643
 7607TIP3    H244237   6.006   3.660   5.477  1.7130 -1.4336  1.7799
 7608TIP3   OH244238   6.208   5.387   1.782 -0.5352 -0.5836 -0.0804
 7608TIP3    H144239   6.137   5.437   1.740 -0.1841 -0.6855 -0.8029
 7608TIP3    H244240   6.261   5.454   1.826  0.1701 -0.2464 -1.3890
 7609TIP3   OH244241   3.297   4.497  11.193 -0.4977  0.6032 -0.2485
 7609TIP3    H144242   3.327   4.411  11.221 -3.0434 -0.1768  0.4036
 7609TIP3    H244243   3.316   4.555  11.267  0.0831  0.3282 -0.1779
 7610TIP3   OH244244   1.635   6.302   5.536  0.2337 -0.1266  0.0881
 7610TIP3    H144245   1.683   6.233   5.489  0.2180  0.1034 -0.2670
 7610TIP3    H244246   1.610   6.261   5.619  1.0405 -0.2556  0.2793
 7611TIP3   OH244247   0.006   1.025  10.319 -0.2848 -0.3913  0.2991
 7611TIP3    H144248   0.055   0.943  10.306 -0.6334 -0.4159 -0.9794
 7611TIP3    H244249   0.074   1.091  10.332  0.2919 -0.1096 -3.2102
 7612TIP3   OH244250   4.913   0.691   0.852  0.1345  0.0735 -0.1105
 7612TIP3    H144251   4.910   0.786   0.861  2.4316  0.1908 -0.1812
 7612TIP3    H244252   5.003   0.671   0.827 -0.7722 -1.9680 -2.2069
 7613TIP3   OH244253   6.516   3.733   2.490  0.0515  0.2078  0.2931
 7613TIP3    H144254   6.553   3.814   2.458 -0.2526  0.2851  0.1326
 7613TIP3    H244255   6.475   3.693   2.414 -0.8707  0.5038  0.6165
 7614TIP3   OH244256   1.638   2.296   5.557  0.1022  0.0916 -0.0919
 7614TIP3    H144257   1.647   2.313   5.650  3.3856 -0.1670 -0.2614
 7614TIP3    H244258   1.662   2.378   5.514 -2.5177  0.5945 -0.8108
 7615TIP3   OH244259   0.247   1.322   0.626 -0.3226  0.1288  0.0915
 7615TIP3    H144260   0.250   1.230   0.649  0.6161  0.4158  1.2318
 7615TIP3    H244261   0.155   1.340   0.607 -0.2352 -1.5133 -2.3545
 7616TIP3   OH244262   5.135   4.883   3.691  0.3217  0.5349  0.4504
 7616TIP3    H144263   5.143   4.796   3.651 -0.4347  0.4585  0.4507
 7616TIP3    H244264   5.192   4.939   3.639 -1.6354  0.7446 -1.6181
 7617TIP3   OH244265   5.716   6.346  14.152  0.0175 -0.2402 -0.3711
 7617TIP3    H144266   5.630   6.309  14.136  0.1557 -0.2010 -1.2605
 7617TIP3    H244267   5.760   6.281  14.207 -0.4014 -0.5042 -0.3421
 7618TIP3   OH244268   6.297   3.324  14.699  0.3035 -0.2534 -0.1434
 7618TIP3    H144269   6.377   3.278  14.675  0.8206 -0.2006  1.3321
 7618TIP3    H244270   6.285   3.389  14.630  1.2672 -0.5852 -0.6429
 7619TIP3   OH244271   5.084   1.215  15.461  0.5157 -0.6976 -0.1778
 7619TIP3    H144272   5.071   1.309  15.449  0.2712 -0.7927 -0.7084
 7619TIP3    H244273   5.168   1.197  15.418  1.0653 -0.5501  0.8248
 7620TIP3   OH244274   1.095   2.637  17.175  0.1320 -0.2893  0.3545
 7620TIP3    H144275   1.067   2.681  17.095  2.1469  0.6975  0.1143
 7620TIP3    H244276   1.111   2.546  17.148 -3.7645 -1.2547  0.7889
 7621TIP3   OH244277   0.567   1.391  12.377 -0.2344  0.0288  0.8994
 7621TIP3    H144278   0.576   1.426  12.465  0.5881 -0.3544  0.9850
 7621TIP3    H244279   0.612   1.306  12.381  0.9714  0.5781 -0.2052
 7622TIP3   OH244280   5.322   3.399  12.209  0.3566  0.2923  0.2257
 7622TIP3    H144281   5.394   3.350  12.249  1.4894  0.5817 -1.3342
 7622TIP3    H244282   5.244   3.369  12.255  1.5982  1.2576  3.2389
 7623TIP3   OH244283   2.858   2.367  13.191  0.0813  0.0802  0.0673
 7623TIP3    H144284   2.904   2.451  13.186  0.1305  0.0077 -0.9192
 7623TIP3    H244285   2.829   2.350  13.101 -1.4996 -0.0902  0.5687
 7624TIP3   OH244286   0.990   3.778  11.058 -0.4296  0.3178 -0.0395
 7624TIP3    H144287   0.926   3.842  11.029 -1.7823 -1.0149 -0.1379
 7624TIP3    H244288   1.003   3.798  11.151 -2.2656 -0.3607  0.4164
 7625TIP3   OH244289   4.752   5.671   5.749 -0.0034 -0.0253 -0.4148
 7625TIP3    H144290   4.711   5.589   5.777  0.9196 -1.0729 -2.0294
 7625TIP3    H244291   4.833   5.676   5.798 -0.7801  0.7534  0.8529
 7626TIP3   OH244292   1.322   0.303  16.875 -0.1130  0.1606 -0.5543
 7626TIP3    H144293   1.353   0.215  16.854 -1.8002 -0.2228 -1.7031
 7626TIP3    H244294   1.265   0.290  16.951 -0.0114  0.3194 -0.4527
 7627TIP3   OH244295   0.856   1.520  12.731  0.0901  0.0831 -0.0458
 7627TIP3    H144296   0.870   1.528  12.637 -0.2933  0.8933 -0.0412
 7627TIP3    H244297   0.932   1.471  12.762  1.2691  1.5690 -0.4866
 7628TIP3   OH244298   4.553   2.955   0.737  0.0543  0.1797 -0.5987
 7628TIP3    H144299   4.553   3.009   0.816  1.4346  1.4543 -1.4392
 7628TIP3    H244300   4.517   3.011   0.669  0.0320 -0.4954 -1.1515
 7629TIP3   OH244301   2.102   3.044  14.415 -0.2755 -0.1393 -0.2841
 7629TIP3    H144302   2.011   3.020  14.430 -0.1736 -0.0765  0.4840
 7629TIP3    H244303   2.118   3.021  14.324 -1.7878  2.1836 -1.2257
 7630TIP3   OH244304   2.829   2.686  11.922 -0.0473 -0.4274 -0.3397
 7630TIP3    H144305   2.896   2.708  11.857  0.2434 -1.0142 -0.2462
 7630TIP3    H244306   2.849   2.596  11.948  0.4725  0.1349  1.3376
 7631TIP3   OH244307   3.072   5.028   3.050  0.3037  0.3027 -0.0575
 7631TIP3    H144308   3.054   4.976   2.971 -0.2377 -1.6728  1.3015
 7631TIP3    H244309   3.159   5.001   3.077  0.3073  0.6489  0.2852
 7632TIP3   OH244310   6.677   1.774  17.001  0.3865 -0.1273  0.5105
 7632TIP3    H144311   6.650   1.760  17.092 -0.6201  0.0637  0.2570
 7632TIP3    H244312   6.595   1.794  16.955  0.6349 -1.7982 -0.7520
 7633TIP3   OH244313   4.755   3.410  15.088 -0.4046  0.1637  0.5167
 7633TIP3    H144314   4.674   3.440  15.048 -1.0106  0.6741  2.0436
 7633TIP3    H244315   4.817   3.403  15.015 -1.1179  2.1082 -0.3334
 7634TIP3   OH244316   1.578   0.786   4.390 -0.3801  0.4174 -0.7505
 7634TIP3    H144317   1.500   0.834   4.418 -2.1217 -2.8222  0.5442
 7634TIP3    H244318   1.610   0.833   4.314 -3.4671  2.0707 -1.1618
 7635TIP3   OH244319   2.378   0.893  14.931 -0.4104  0.0451  0.7706
 7635TIP3    H144320   2.414   0.945  15.003  2.5937 -0.9285  0.0911
 7635TIP3    H244321   2.371   0.804  14.967  0.8533 -0.3917 -0.0035
 7636TIP3   OH244322   5.259   3.169   3.936 -0.3144  0.6166 -0.2302
 7636TIP3    H144323   5.241   3.086   3.980 -0.4792  0.0560 -1.3260
 7636TIP3    H244324   5.354   3.177   3.938 -0.2965  0.3880 -0.1512
 7637TIP3   OH244325   2.253   5.606   4.224  0.4032 -0.6471  0.6274
 7637TIP3    H144326   2.329   5.618   4.282 -0.5090  0.4211  1.6643
 7637TIP3    H244327   2.179   5.636   4.276 -0.5299 -0.1490 -0.9292
 7638TIP3   OH244328   4.136   0.515  16.000  0.3617 -0.2556  0.3728
 7638TIP3    H144329   4.217   0.487  15.957  0.4849 -0.4967  0.7592
 7638TIP3    H244330   4.165   0.568  16.074  0.2243 -1.4880  1.3421
 7639TIP3   OH244331   6.682   3.853  15.666 -0.3136  0.3143 -0.5693
 7639TIP3    H144332   6.706   3.760  15.658 -2.0993 -0.4534  1.7107
 7639TIP3    H244333   6.610   3.853  15.730 -1.9791  3.0496 -2.2686
 7640TIP3   OH244334   5.221   5.057  14.251 -0.3129 -0.9106  0.0667
 7640TIP3    H144335   5.187   5.144  14.227  0.1440 -0.6610  0.3277
 7640TIP3    H244336   5.267   5.071  14.333  1.1043 -1.0846 -0.6679
 7641TIP3   OH244337   2.593   6.107  15.699  0.2524 -0.7282  0.2664
 7641TIP3    H144338   2.659   6.047  15.734  0.9845 -0.3150 -0.3801
 7641TIP3    H244339   2.544   6.137  15.776  2.4178  0.8892  1.0994
 7642TIP3   OH244340   4.922   1.128  12.475 -0.0155 -0.4981  0.5574
 7642TIP3    H144341   4.831   1.148  12.456  0.1083  2.9040  2.7362
 7642TIP3    H244342   4.919   1.050  12.530 -1.6606 -0.1374  1.0245
 7643TIP3   OH244343   1.067   3.920   4.535 -0.0028 -0.0953  0.0808
 7643TIP3    H144344   1.071   3.846   4.595  2.4449 -0.3790 -0.3208
 7643TIP3    H244345   1.118   3.892   4.459 -0.3599  1.4374 -0.7687
 7644TIP3   OH244346   6.069   3.111  17.126 -0.0981 -0.0419 -0.1350
 7644TIP3    H144347   6.032   3.053  17.059  1.2662 -0.5463 -0.4751
 7644TIP3    H244348   6.006   3.106  17.198  1.2141 -4.2312  1.0256
 7645TIP3   OH244349   3.710   0.995  14.873 -0.3118 -0.4671 -0.0805
 7645TIP3    H144350   3.741   0.910  14.905 -1.7964 -0.9663  0.0816
 7645TIP3    H244351   3.628   0.976  14.828 -0.5724  0.8620 -0.2074
 7646TIP3   OH244352   4.094   2.352  12.537  0.0109 -0.1112  0.1764
 7646TIP3    H144353   4.117   2.431  12.488 -0.1297  0.7813  1.5169
 7646TIP3    H244354   4.173   2.297  12.531 -0.7636 -1.0774 -2.9566
 7647TIP3   OH244355   3.207   3.497  16.148 -0.3188  0.1962 -0.6870
 7647TIP3    H144356   3.196   3.537  16.062 -0.6395  0.3731 -0.5647
 7647TIP3    H244357   3.146   3.544  16.204 -1.1085 -0.8203 -0.6568
 7648TIP3   OH244358   4.556   4.746  13.312  0.0728 -0.5672  0.3707
 7648TIP3    H144359   4.585   4.696  13.235  1.5524 -0.3159  0.7170
 7648TIP3    H244360   4.461   4.735  13.314  0.0447 -0.9134 -1.2592
 7649TIP3   OH244361   1.867   5.832   1.957 -0.1630  0.0960  0.4857
 7649TIP3    H144362   1.915   5.914   1.961  0.2487 -0.1820  1.5303
 7649TIP3    H244363   1.916   5.778   1.895 -0.6805  0.7720 -0.5441
 7650TIP3   OH244364   2.173   6.098  17.327  0.7559 -0.2491 -0.1680
 7650TIP3    H144365   2.168   6.138  17.241 -0.5508 -0.2134 -0.0972
 7650TIP3    H244366   2.098   6.039  17.330  0.8512 -0.3318  0.9008
 7651TIP3   OH244367   3.270   3.458   3.644 -0.4700 -0.2584  0.1929
 7651TIP3    H144368   3.184   3.497   3.630 -0.4236  0.1694  1.0478
 7651TIP3    H244369   3.331   3.518   3.599 -0.7447 -1.5621 -2.0979
 7652TIP3   OH244370   1.296   2.846   1.133  0.3730  0.0135 -0.3848
 7652TIP3    H144371   1.237   2.914   1.164  2.6038  1.2265  1.5982
 7652TIP3    H244372   1.348   2.823   1.210  1.5636 -1.9416 -1.6856
 7653TIP3   OH244373   2.116   0.966  16.538  0.5795 -0.4521 -0.0804
 7653TIP3    H144374   2.039   0.931  16.583  0.3279 -0.4060 -0.4695
 7653TIP3    H244375   2.191   0.932  16.587  0.3040  0.5835  1.1381
 7654TIP3   OH244376   1.246   3.257   5.213  0.4833  0.1964 -0.3798
 7654TIP3    H144377   1.230   3.315   5.287  0.7352 -2.0036  1.4940
 7654TIP3    H244378   1.342   3.249   5.209  0.4731  0.2904 -0.9809
 7655TIP3   OH244379   4.034   5.694   1.720 -0.3620  0.7617  0.4178
 7655TIP3    H144380   4.113   5.745   1.701  0.9000  0.1900  3.5289
 7655TIP3    H244381   3.972   5.720   1.652  1.7538  2.9053 -0.8512
 7656TIP3   OH244382   6.713   2.428  17.148  0.3361 -0.1796 -0.5182
 7656TIP3    H144383   6.761   2.408  17.228  0.2331 -1.3504 -0.7315
 7656TIP3    H244384   6.715   2.524  17.142  1.2550 -0.1326  0.3143
 7657TIP3   OH244385   6.228   5.921   5.567  0.1043  0.2981 -0.1966
 7657TIP3    H144386   6.291   5.856   5.599 -0.6110 -0.5314 -0.4175
 7657TIP3    H244387   6.176   5.945   5.645  0.1536  0.3522 -0.1807
 7658TIP3   OH244388   5.579   5.822   5.607  0.0115 -0.1476  0.6412
 7658TIP3    H144389   5.550   5.810   5.698  0.9608  1.9008  1.2581
 7658TIP3    H244390   5.670   5.851   5.615  0.1394 -0.0544 -0.9808
 7659TIP3   OH244391   6.136   1.844  15.031 -0.1366 -0.1780 -0.0516
 7659TIP3    H144392   6.054   1.816  14.989 -0.3506 -0.3128  0.4481
 7659TIP3    H244393   6.121   1.831  15.124  0.7616 -0.9914 -0.0082
 7660TIP3   OH244394   4.652   4.002   3.899  0.5915 -0.1114 -0.5809
 7660TIP3    H144395   4.651   3.958   3.984  0.6547 -0.7807 -0.9222
 7660TIP3    H244396   4.572   4.054   3.898  1.3137  1.0781  0.4943
 7661TIP3   OH244397   0.069   1.651  15.190  0.0884  0.2617 -0.5303
 7661TIP3    H144398   0.015   1.612  15.258 -2.0851 -2.4508 -3.4951
 7661TIP3    H244399   0.008   1.704  15.138  0.8588 -0.4897 -2.2788
 7662TIP3   OH244400   5.438   4.565   4.314 -0.0621  0.0917 -0.5190
 7662TIP3    H144401   5.353   4.560   4.358  0.8717 -0.4109  1.3166
 7662TIP3    H244402   5.491   4.622   4.371  1.3760 -1.0583 -0.6519
 7663TIP3   OH244403   1.179   3.174   4.131 -0.5101 -0.1207 -0.5949
 7663TIP3    H144404   1.086   3.165   4.150 -0.6932 -0.3011 -1.5432
 7663TIP3    H244405   1.219   3.193   4.216 -1.3878 -0.1858 -0.1580
 7664TIP3   OH244406   0.305   5.048   4.569  0.2130  0.1096 -0.7896
 7664TIP3    H144407   0.260   5.037   4.652  1.2161 -0.9794 -0.3658
 7664TIP3    H244408   0.357   4.968   4.559 -0.2055  0.0234 -2.6607
 7665TIP3   OH244409   2.432   2.179  12.980 -0.1329 -0.5396 -0.4635
 7665TIP3    H144410   2.436   2.145  13.069 -0.4397 -1.0464 -0.6384
 7665TIP3    H244411   2.338   2.184  12.961 -0.1398  1.2365 -0.1370
 7666TIP3   OH244412   1.633   3.807   1.132  0.3464  0.2608  0.1033
 7666TIP3    H144413   1.658   3.726   1.178  2.3371  1.2683  0.9368
 7666TIP3    H244414   1.594   3.862   1.200 -0.6806  0.1458 -0.3833
 7667TIP3   OH244415   5.083   1.007   0.540 -0.0900 -0.1958  0.1994
 7667TIP3    H144416   5.021   1.014   0.466  2.3372 -0.2512 -1.9831
 7667TIP3    H244417   5.110   1.098   0.556  1.8511 -0.4518 -1.3026
 7668TIP3   OH244418   0.531   4.753   2.875  0.1495 -0.4430  0.2817
 7668TIP3    H144419   0.504   4.691   2.943  1.0414  1.5573  2.6353
 7668TIP3    H244420   0.623   4.733   2.860 -0.2148 -1.3174 -0.8944
 7669TIP3   OH244421   2.650   3.536   2.095  0.6204 -0.1698  0.1808
 7669TIP3    H144422   2.696   3.453   2.107  1.0935  0.2742  1.6008
 7669TIP3    H244423   2.592   3.543   2.170  0.0998  0.4877 -0.2666
 7670TIP3   OH244424   5.598   5.987   3.472  0.0296 -0.0367 -0.1131
 7670TIP3    H144425   5.629   5.926   3.540  0.5844 -0.4611 -0.7314
 7670TIP3    H244426   5.670   5.990   3.409 -0.7176 -0.1114 -0.9823
 7671TIP3   OH244427   0.048   5.542  13.811  0.3394 -0.3906 -0.2282
 7671TIP3    H144428  -0.044   5.515  13.808  0.9903 -2.8643 -0.8184
 7671TIP3    H244429   0.059   5.580  13.898 -1.3234  0.4446 -0.3261
 7672TIP3   OH244430   1.215   1.537   0.820  0.0461 -0.3907  0.1228
 7672TIP3    H144431   1.259   1.611   0.863  1.1478 -0.7311 -0.3803
 7672TIP3    H244432   1.226   1.553   0.727  0.1025 -1.0750  0.0060
 7673TIP3   OH244433   2.724   3.153   1.012 -0.3258  0.1122 -0.0455
 7673TIP3    H144434   2.799   3.138   0.955 -1.0757  2.2583 -1.7480
 7673TIP3    H244435   2.653   3.103   0.973 -0.2737 -0.3229  0.4084
 7674TIP3   OH244436   4.427   2.596  11.580 -0.2908  0.2080 -0.7805
 7674TIP3    H144437   4.428   2.589  11.675 -0.3225 -2.4399 -0.9177
 7674TIP3    H244438   4.514   2.631  11.558  0.6271 -1.3819  0.1407
 7675TIP3   OH244439   4.337   4.007   2.310 -0.3428 -0.7328 -0.5511
 7675TIP3    H144440   4.272   3.960   2.364 -0.0148 -1.3476 -0.6770
 7675TIP3    H244441   4.362   4.082   2.364 -1.6337 -0.1146 -0.7676
 7676TIP3   OH244442   0.230   2.326  12.506 -0.4847 -0.2273 -0.2953
 7676TIP3    H144443   0.205   2.419  12.506 -0.5924 -0.2491  1.0627
 7676TIP3    H244444   0.149   2.280  12.529 -0.0686 -0.5417  0.5663
 7677TIP3   OH244445   5.439   2.396   0.636 -0.3903  0.0045  0.8137
 7677TIP3    H144446   5.422   2.306   0.608 -0.5067  0.4240 -0.5699
 7677TIP3    H244447   5.534   2.403   0.641 -0.1599  0.6135 -2.2258
 7678TIP3   OH244448   4.395   1.179   3.617 -0.1923 -0.4321 -0.1666
 7678TIP3    H144449   4.344   1.237   3.673  1.0149  0.6342 -0.1302
 7678TIP3    H244450   4.482   1.219   3.613  0.7402 -2.3219 -0.0095
 7679TIP3   OH244451   3.642   2.567  11.526 -0.3622  0.0723  0.1191
 7679TIP3    H144452   3.699   2.635  11.490 -1.5368  0.6982 -0.6169
 7679TIP3    H244453   3.686   2.540  11.607  0.2161  1.5827  0.3473
 7680TIP3   OH244454   3.529   4.197  11.998  0.2013  0.6790 -0.2540
 7680TIP3    H144455   3.462   4.200  12.066  1.4575  2.0061  0.9944
 7680TIP3    H244456   3.597   4.140  12.033  0.3111  0.3718 -0.9482
 7681TIP3   OH244457   3.357   6.039  16.219  0.3931  0.2774 -0.3950
 7681TIP3    H144458   3.396   6.126  16.209 -0.8838  1.1972  1.8180
 7681TIP3    H244459   3.341   6.030  16.313 -0.8345 -1.7617 -0.7290
 7682TIP3   OH244460   3.231   2.533   0.842 -0.2541 -0.2198 -0.6774
 7682TIP3    H144461   3.292   2.589   0.794 -0.8401  1.8635  0.8544
 7682TIP3    H244462   3.205   2.466   0.779  1.2979  0.6098 -2.2807
 7683TIP3   OH244463   5.225   2.638  16.614 -0.0410  0.0625 -0.2510
 7683TIP3    H144464   5.209   2.698  16.687  1.5243  1.5881 -1.0903
 7683TIP3    H244465   5.146   2.645  16.560 -1.1385 -0.9453  1.1407
 7684TIP3   OH244466   3.914   4.935   2.966  0.5401 -0.7208  0.1339
 7684TIP3    H144467   3.896   4.897   2.880 -0.9887 -0.1094  0.1558
 7684TIP3    H244468   3.828   4.942   3.008  0.9257  1.4815  0.6559
 7685TIP3   OH244469   3.165   3.654   5.137  0.3194 -0.3747  0.5546
 7685TIP3    H144470   3.113   3.579   5.108 -1.0025  0.3349  0.9943
 7685TIP3    H244471   3.207   3.624   5.217 -0.6944 -0.4698  1.0659
 7686TIP3   OH244472   5.635   5.124   2.536 -0.1774  0.3789 -0.0915
 7686TIP3    H144473   5.565   5.070   2.500 -0.2301  0.3748  0.0173
 7686TIP3    H244474   5.610   5.214   2.513  0.9005  0.2570 -2.0411
 7687TIP3   OH244475   1.679   3.279  10.948 -0.0887 -0.2507 -0.2074
 7687TIP3    H144476   1.715   3.326  10.874 -0.3445  2.5556  1.3265
 7687TIP3    H244477   1.756   3.249  10.997  0.1208  0.8081  0.1207
 7688TIP3   OH244478   4.056   0.540  17.012  0.6182  0.0538 -0.3387
 7688TIP3    H144479   4.140   0.584  17.024 -0.1293  1.7497 -1.0270
 7688TIP3    H244480   4.044   0.535  16.917  0.4057 -1.1372 -0.2688
 7689TIP3   OH244481   4.174   3.377  16.475 -0.0694  0.0951  0.1857
 7689TIP3    H144482   4.149   3.435  16.403 -1.3560  0.1827  0.6713
 7689TIP3    H244483   4.261   3.408  16.502 -0.5655  1.5776  0.1870
 7690TIP3   OH244484   5.098   5.409   4.973 -0.0189  0.0990  0.6444
 7690TIP3    H144485   5.165   5.434   4.910 -1.7226  0.1795 -1.2517
 7690TIP3    H244486   5.064   5.326   4.940 -0.6691 -0.0749  1.7117
 7691TIP3   OH244487   3.803   3.767  13.680 -0.1083  0.0978  0.9550
 7691TIP3    H144488   3.852   3.843  13.649 -0.0427  0.2188  1.3483
 7691TIP3    H244489   3.757   3.798  13.759 -1.1993  0.1186  0.3338
 7692TIP3   OH244490   0.247   2.286  14.190  0.3596 -0.6018  0.7872
 7692TIP3    H144491   0.311   2.287  14.120 -0.4951  0.1179 -0.0123
 7692TIP3    H244492   0.297   2.263  14.268  1.7112  0.5629  0.3112
 7693TIP3   OH244493   1.388   1.685   2.576  0.3607  0.4101 -0.1312
 7693TIP3    H144494   1.388   1.759   2.637  0.4357  2.2391 -2.2394
 7693TIP3    H244495   1.298   1.652   2.580 -0.4054  2.2412 -0.9605
 7694TIP3   OH244496   5.070   3.251   5.105  0.3744  0.1137  0.7939
 7694TIP3    H144497   4.999   3.225   5.164  0.8267 -1.4138  0.7159
 7694TIP3    H244498   5.032   3.321   5.051 -1.7596 -1.9285 -0.5638
 7695TIP3   OH244499   4.438   5.213  10.924 -0.5510 -0.3780 -0.7251
 7695TIP3    H144500   4.507   5.222  10.857 -0.2496  1.2728 -0.2424
 7695TIP3    H244501   4.364   5.262  10.888 -0.5225  0.1818 -0.0467
 7696TIP3   OH244502   5.606   5.028   1.551  0.5957  0.0804  0.3538
 7696TIP3    H144503   5.686   4.975   1.555  1.1756  0.8976  0.0354
 7696TIP3    H244504   5.632   5.112   1.587 -0.4916 -0.0446  1.4672
 7697TIP3   OH244505   2.902   4.615  16.516 -0.5431  0.3273  0.2346
 7697TIP3    H144506   2.950   4.578  16.590 -0.7035 -0.3930 -0.0101
 7697TIP3    H244507   2.834   4.669  16.555  0.0638  0.8387  0.5951
 7698TIP3   OH244508   5.022   2.574  14.575  0.3077  0.2267  0.3307
 7698TIP3    H144509   5.056   2.491  14.609  0.3093 -0.0926 -0.4282
 7698TIP3    H244510   4.988   2.552  14.489 -2.8057  0.2902  1.4275
 7699TIP3   OH244511   4.779   3.383  13.658 -0.3793 -0.2873  0.0891
 7699TIP3    H144512   4.848   3.398  13.722  1.4806 -0.1156 -1.8355
 7699TIP3    H244513   4.815   3.317  13.599 -2.1573 -0.6915 -0.5969
 7700TIP3   OH244514   6.289   6.220   5.227 -0.2501  0.3524 -0.1551
 7700TIP3    H144515   6.363   6.162   5.246  0.7567  0.2513 -3.6318
 7700TIP3    H244516   6.315   6.305   5.260  0.7298 -0.0326  0.0748
 7701TIP3   OH244517   1.689   1.633  11.287 -0.0884  0.3169 -0.3566
 7701TIP3    H144518   1.629   1.669  11.352  0.6260  1.2776 -0.2094
 7701TIP3    H244519   1.685   1.695  11.214  1.2273  0.7930 -0.0603
 7702TIP3   OH244520   2.545   0.868   4.912 -0.2730 -0.3469  0.6300
 7702TIP3    H144521   2.521   0.887   4.821  1.1397  0.3020  0.3703
 7702TIP3    H244522   2.552   0.772   4.915 -0.9347 -0.4181  0.2278
 7703TIP3   OH244523   4.526   6.657  15.375  0.1084 -0.2447  0.1439
 7703TIP3    H144524   4.498   6.567  15.390 -0.0274  0.0386  1.7838
 7703TIP3    H244525   4.596   6.671  15.438 -1.4307  1.4955  1.5682
 7704TIP3   OH244526   2.336   6.050  14.882 -0.2334  0.1365 -0.6317
 7704TIP3    H144527   2.301   6.139  14.888  0.5124  0.3790  0.1422
 7704TIP3    H244528   2.295   6.003  14.954  1.2565  0.5073  0.4857
 7705TIP3   OH244529   0.284   0.704   5.440 -0.1001 -0.1366  0.0992
 7705TIP3    H144530   0.223   0.652   5.387  0.7083 -0.7772 -0.2073
 7705TIP3    H244531   0.370   0.689   5.401  0.5964 -0.9887  1.8655
 7706TIP3   OH244532   5.006   6.256   2.091  0.0533 -0.0696  0.0402
 7706TIP3    H144533   4.989   6.325   2.154  1.0696 -0.3207  0.6043
 7706TIP3    H244534   5.098   6.266   2.067 -0.5105  0.5841 -2.1207
 7707TIP3   OH244535   0.167   0.061   2.515  0.2085 -0.0353 -0.0684
 7707TIP3    H144536   0.168   0.057   2.419  0.3840 -0.1287 -0.0622
 7707TIP3    H244537   0.240   0.005   2.543  0.0923 -0.0930  0.1227
 7708TIP3   OH244538   3.821   3.483  11.198 -0.3343  0.0994 -0.2613
 7708TIP3    H144539   3.797   3.573  11.223 -1.2501  0.4013 -2.0391
 7708TIP3    H244540   3.757   3.460  11.131  0.7075 -1.4032 -0.7776
 7709TIP3   OH244541   6.427   5.278  16.375  0.0171  0.0493  0.9395
 7709TIP3    H144542   6.461   5.366  16.394  2.0706 -0.5425  0.2758
 7709TIP3    H244543   6.445   5.266  16.282 -1.7972 -0.4549  0.6289
 7710TIP3   OH244544   4.383   4.037  11.954  0.2143  0.2804  0.3037
 7710TIP3    H144545   4.430   3.954  11.946 -1.3558 -0.8709  2.2306
 7710TIP3    H244546   4.319   4.036  11.883  0.7732  0.2924 -0.2165
 7711TIP3   OH244547   5.941   4.863  15.553  0.2913 -0.0698 -0.2884
 7711TIP3    H144548   5.942   4.948  15.511  0.9186 -0.5266 -1.2410
 7711TIP3    H244549   5.974   4.879  15.642  3.0201  0.2885 -1.2942
 7712TIP3   OH244550   6.040   6.729  12.667  0.1771  0.1246  0.4818
 7712TIP3    H144551   5.961   6.678  12.649  1.4399 -0.9867 -2.6570
 7712TIP3    H244552   6.108   6.664  12.682  1.0222  0.9787  0.4402
 7713TIP3   OH244553   1.177   4.078   1.366  0.5101  0.2907  0.2469
 7713TIP3    H144554   1.168   4.091   1.271 -2.1611 -0.3055  0.3295
 7713TIP3    H244555   1.194   4.165   1.401 -2.3418  1.2596 -0.5040
 7714TIP3   OH244556   5.272   6.157   2.431 -0.2433 -0.2268 -0.1825
 7714TIP3    H144557   5.272   6.150   2.336  0.0489 -1.5427 -0.1070
 7714TIP3    H244558   5.354   6.115   2.459 -0.2747  0.2358  0.6372
 7715TIP3   OH244559   6.437   1.250   2.351  0.4745  0.2480 -0.2348
 7715TIP3    H144560   6.532   1.241   2.352  0.4592 -0.4233  2.0813
 7715TIP3    H244561   6.422   1.343   2.370  0.6750  0.2833 -0.2460
 7716TIP3   OH244562   5.515   3.260   3.923  0.0037 -0.2060 -0.0395
 7716TIP3    H144563   5.561   3.333   3.882  0.2291 -0.8069 -0.8943
 7716TIP3    H244564   5.545   3.183   3.874 -1.5370 -0.6732 -0.2940
 7717TIP3   OH244565   1.347   2.925  12.101 -0.0347 -1.1416  0.1163
 7717TIP3    H144566   1.422   2.866  12.107 -0.3276 -1.5945 -0.6343
 7717TIP3    H244567   1.351   2.976  12.182  0.6496 -1.6747  0.4300
 7718TIP3   OH244568   1.391   0.114   4.699  0.1194  0.0510 -0.5543
 7718TIP3    H144569   1.341   0.142   4.775 -2.3635  0.0776 -2.0629
 7718TIP3    H244570   1.344   0.153   4.624  2.0861 -0.4435 -2.1453
 7719TIP3   OH244571   4.978   1.055  15.731 -0.2582 -0.0506  0.1629
 7719TIP3    H144572   5.017   1.102  15.657  0.9754  0.6828  1.2509
 7719TIP3    H244573   5.049   1.047  15.795 -1.1498 -1.1695  1.0521
 7720TIP3   OH244574   4.508   2.977  12.094 -0.0967 -0.2882 -0.5285
 7720TIP3    H144575   4.537   2.916  12.162 -0.5337 -0.3255 -0.3697
 7720TIP3    H244576   4.424   3.010  12.126 -0.3922 -0.4367 -1.1309
 7721TIP3   OH244577   3.924   3.003   2.545  0.1969  0.3097  0.6611
 7721TIP3    H144578   3.925   3.060   2.622  1.9285  0.4205  0.5942
 7721TIP3    H244579   3.936   3.063   2.471 -1.2013  0.1770  0.2948
 7722TIP3   OH244580   3.969   2.891   4.446 -0.3086  0.6019  0.8663
 7722TIP3    H144581   3.891   2.903   4.393 -0.4794 -0.6131  0.7978
 7722TIP3    H244582   4.016   2.974   4.440 -0.8934  0.8705 -0.2415
 7723TIP3   OH244583   4.091   2.675  16.089  0.1789 -0.0491  0.3085
 7723TIP3    H144584   4.092   2.728  16.009 -0.8302  1.2919  1.1371
 7723TIP3    H244585   4.004   2.635  16.089  1.0322 -2.0342 -0.4599
 7724TIP3   OH244586   5.476   3.911   3.683 -0.4903 -0.0328  0.1168
 7724TIP3    H144587   5.531   3.937   3.609  1.3198 -1.5669  0.8317
 7724TIP3    H244588   5.484   3.982   3.746 -0.1530  0.2136 -0.2009
 7725TIP3   OH244589   4.208   4.777  12.939 -0.2424  0.1119 -0.1965
 7725TIP3    H144590   4.156   4.823  13.005  1.2250  1.0210  0.3743
 7725TIP3    H244591   4.298   4.783  12.970  0.1875 -1.9088 -0.8719
 7726TIP3   OH244592   4.058   5.738   2.805 -0.2275  0.3834  0.2557
 7726TIP3    H144593   4.110   5.801   2.755 -0.1357  0.0842 -0.0216
 7726TIP3    H244594   4.062   5.771   2.895  0.2653  0.4802  0.1996
 7727TIP3   OH244595   5.908   2.227  13.171 -0.0636 -0.0865 -0.1163
 7727TIP3    H144596   5.876   2.205  13.258 -0.1654 -0.8581 -0.3414
 7727TIP3    H244597   5.895   2.147  13.120  0.0406  0.3431 -0.8247
 7728TIP3   OH244598   3.507   2.167  13.201 -0.2036  0.0903  0.5042
 7728TIP3    H144599   3.505   2.262  13.215  0.8266  0.2192 -0.1339
 7728TIP3    H244600   3.462   2.155  13.117  0.9620  0.1798 -0.1502
 7729TIP3   OH244601   2.287   2.716  16.645  0.1454 -0.3974  0.1531
 7729TIP3    H144602   2.204   2.689  16.685  0.2011  0.5268  0.9423
 7729TIP3    H244603   2.324   2.635  16.610 -0.5758 -1.0104  0.7575
 7730TIP3   OH244604   5.275   4.655   0.068  0.4739 -0.3440 -0.3009
 7730TIP3    H144605   5.310   4.726   0.014 -1.1177  0.2514 -0.6160
 7730TIP3    H244606   5.246   4.590   0.005 -0.8166  0.0744 -0.1634
 7731TIP3   OH244607   3.108   6.234  10.887 -0.0409 -0.2463 -0.0911
 7731TIP3    H144608   3.112   6.246  10.982 -0.7953  1.1350 -0.1906
 7731TIP3    H244609   3.017   6.256  10.865  0.2455 -0.1125 -1.1783
 7732TIP3   OH244610   6.012   1.228   0.758 -0.0602 -0.3171 -0.2265
 7732TIP3    H144611   6.058   1.150   0.726 -1.8403 -0.6971 -2.1240
 7732TIP3    H244612   5.967   1.262   0.681 -1.5861  0.9605  1.1473
 7733TIP3   OH244613   1.238   5.464  14.062 -0.3621 -0.0380 -0.2015
 7733TIP3    H144614   1.278   5.428  14.141 -0.1848 -0.8376 -0.6461
 7733TIP3    H244615   1.157   5.414  14.052  0.3361 -1.0222 -1.3417
 7734TIP3   OH244616   5.107   0.263  16.514  0.4516  0.1172 -0.0784
 7734TIP3    H144617   5.161   0.202  16.464 -0.9652 -0.1707 -1.3276
 7734TIP3    H244618   5.091   0.336  16.454 -1.9095 -0.5887 -0.4076
 7735TIP3   OH244619   3.394   1.153  16.415 -0.0688 -0.0173  0.0856
 7735TIP3    H144620   3.390   1.241  16.378  0.7722  0.2466  0.5908
 7735TIP3    H244621   3.356   1.162  16.503  2.1388  0.3813  1.0624
 7736TIP3   OH244622   0.728   6.353  16.046 -0.4583  0.2101  0.6636
 7736TIP3    H144623   0.802   6.294  16.053 -0.6175 -0.4262 -1.8941
 7736TIP3    H244624   0.651   6.296  16.045 -0.7257  0.5606 -0.0890
 7737TIP3   OH244625   5.916   3.767   4.618 -0.2191 -0.2140  0.0525
 7737TIP3    H144626   5.963   3.763   4.534  0.2123  1.9773  0.1219
 7737TIP3    H244627   5.986   3.770   4.684 -0.5397 -3.4089  0.6909
 7738TIP3   OH244628   1.776   5.676  13.539 -0.1789  0.9807  0.4287
 7738TIP3    H144629   1.763   5.704  13.449  0.2476  1.0252  0.3802
 7738TIP3    H244630   1.739   5.746  13.592 -3.2072 -0.3668  0.2979
 7739TIP3   OH244631   3.481   4.530  15.192 -0.8986  0.7189 -0.8426
 7739TIP3    H144632   3.454   4.494  15.108 -0.0040 -1.5964 -0.2139
 7739TIP3    H244633   3.416   4.497  15.254 -0.3221  0.5786 -0.3034
 7740TIP3   OH244634   0.432   5.304   2.520 -0.8177 -0.2444 -0.5211
 7740TIP3    H144635   0.462   5.311   2.610 -1.1606  4.2171 -0.5298
 7740TIP3    H244636   0.512   5.298   2.468 -0.6143 -2.6096 -0.0263
 7741TIP3   OH244637   3.993   6.301   2.484  0.0640  0.4165 -0.5679
 7741TIP3    H144638   3.970   6.311   2.392 -1.6518 -0.8291 -0.3335
 7741TIP3    H244639   4.027   6.387   2.510  1.0441  0.6419 -2.4463
 7742TIP3   OH244640   1.309   6.116  11.101 -0.4577 -0.2774  0.1926
 7742TIP3    H144641   1.386   6.109  11.044 -0.3936  3.1837 -0.3703
 7742TIP3    H244642   1.237   6.083  11.048  0.0558  0.2359 -0.8655
 7743TIP3   OH244643   5.035   3.174  11.007 -0.0545 -0.5677 -0.1406
 7743TIP3    H144644   5.058   3.134  11.091 -1.7048 -1.7276 -0.1854
 7743TIP3    H244645   4.942   3.154  10.997 -0.3970  1.4179 -1.2517
 7744TIP3   OH244646   5.353   2.082   2.680 -0.2206  0.0053 -0.0199
 7744TIP3    H144647   5.386   2.122   2.600 -0.7359  0.5288  0.0299
 7744TIP3    H244648   5.380   1.990   2.674  1.3437  0.4183  0.0579
 7745TIP3   OH244649   0.599   1.599   3.354  0.4247  0.2535  0.4177
 7745TIP3    H144650   0.620   1.522   3.407  0.6158  0.3962  0.5490
 7745TIP3    H244651   0.659   1.594   3.280  0.6750  0.4616  0.6039
 7746TIP3   OH244652   5.451   2.525  17.000  0.1334  0.3156  0.0693
 7746TIP3    H144653   5.388   2.455  16.984  0.7250 -0.4270  0.8986
 7746TIP3    H244654   5.535   2.488  16.972  0.1806  1.4378 -1.4273
 7747TIP3   OH244655   0.194   5.499  13.548  0.2727 -0.2006 -0.1206
 7747TIP3    H144656   0.178   5.512  13.455  0.0960  0.4595 -0.0047
 7747TIP3    H244657   0.142   5.567  13.591  0.0718 -0.7217  0.4792
 7748TIP3   OH244658   5.952   1.851   2.505  0.0635  0.5924 -0.0898
 7748TIP3    H144659   5.929   1.928   2.556 -0.4127  0.1252  0.4053
 7748TIP3    H244660   5.948   1.778   2.567  0.4774  0.1610 -0.5575
 7749TIP3   OH244661   3.670   1.516  15.965  0.3757  0.0147 -0.2452
 7749TIP3    H144662   3.614   1.575  16.016  0.0230 -0.1419 -0.4432
 7749TIP3    H244663   3.642   1.429  15.991  1.6166 -0.0854  0.8359
 7750TIP3   OH244664   0.373   3.680   1.911 -0.2307 -0.0065 -0.0306
 7750TIP3    H144665   0.290   3.720   1.935 -1.2829 -2.4705  0.7366
 7750TIP3    H244666   0.348   3.600   1.863  1.7114 -0.3587 -0.5363
 7751TIP3   OH244667   1.740   1.119  16.832  0.0429  0.2730  0.2819
 7751TIP3    H144668   1.718   1.101  16.924 -1.7674  1.4579  0.1319
 7751TIP3    H244669   1.759   1.033  16.795 -1.1476 -0.4609  1.3102
 7752TIP3   OH244670   6.354   3.274   1.144 -0.0054  0.1504 -0.2051
 7752TIP3    H144671   6.358   3.199   1.203  0.2897 -0.7202 -1.2972
 7752TIP3    H244672   6.303   3.339   1.191  0.6785 -0.3146  1.2256
 7753TIP3   OH244673   3.544   1.560   2.805  0.4122 -0.4286 -0.6474
 7753TIP3    H144674   3.554   1.655   2.802  1.0333 -0.3501  1.6532
 7753TIP3    H244675   3.580   1.535   2.890 -0.3568 -2.6551 -0.9045
 7754TIP3   OH244676   5.337   4.787  11.565 -0.3090 -0.1087  0.0466
 7754TIP3    H144677   5.322   4.751  11.477  0.1962 -0.7519  0.2158
 7754TIP3    H244678   5.318   4.715  11.624 -3.7280  1.1526  0.7129
 7755TIP3   OH244679   5.357   0.255  17.127 -0.5582 -0.2142  0.3474
 7755TIP3    H144680   5.410   0.188  17.083 -0.3597  0.4564 -0.4739
 7755TIP3    H244681   5.267   0.225  17.116 -0.5554  0.2083 -1.0460
 7756TIP3   OH244682   3.811   0.124   1.681 -0.0501  0.4927 -0.1053
 7756TIP3    H144683   3.866   0.178   1.737  0.2971  0.9668 -0.8907
 7756TIP3    H244684   3.802   0.041   1.728 -0.0546  1.0019  0.8081
 7757TIP3   OH244685   1.589   0.296   5.790  0.1260  0.2440 -0.0175
 7757TIP3    H144686   1.611   0.301   5.697  0.8073 -0.0215  0.1282
 7757TIP3    H244687   1.673   0.295   5.835 -0.1719 -0.7575  0.5508
 7758TIP3   OH244688   6.189   2.221   2.176  0.2435 -0.6109 -0.6682
 7758TIP3    H144689   6.115   2.274   2.206  1.4283  0.8624 -0.2164
 7758TIP3    H244690   6.211   2.166   2.251  0.9514  0.5204 -0.0132
 7759TIP3   OH244691   5.964   2.506  16.477 -0.3817  0.5284 -0.0958
 7759TIP3    H144692   5.982   2.571  16.546 -0.2821  0.5286 -0.1216
 7759TIP3    H244693   5.869   2.500  16.475 -0.3981 -1.5830  2.0493
 7760TIP3   OH244694   4.798   6.271   0.118 -0.3341  0.0123  0.3157
 7760TIP3    H144695   4.808   6.300   0.027 -0.7631 -1.5364 -0.2677
 7760TIP3    H244696   4.708   6.293   0.140  0.4247  2.5097  1.2180
 7761TIP3   OH244697   5.820   6.285  12.044 -0.1417  0.6229 -0.0049
 7761TIP3    H144698   5.757   6.319  11.981 -0.1185 -0.1569 -0.4618
 7761TIP3    H244699   5.857   6.208  12.001 -1.8109 -1.3310  1.8449
 7762TIP3   OH244700   4.844   1.479   5.803 -0.1971 -0.4088  0.6006
 7762TIP3    H144701   4.873   1.486   5.894  1.0678 -1.5333  0.3098
 7762TIP3    H244702   4.890   1.403   5.769 -0.0799  0.4338 -1.2069
 7763TIP3   OH244703   3.272   3.580  11.730  0.2254 -0.0397 -0.0652
 7763TIP3    H144704   3.285   3.669  11.762  2.5267 -0.4585  0.3298
 7763TIP3    H244705   3.359   3.552  11.701 -1.0239 -0.9968 -3.3541
 7764TIP3   OH244706   5.557   1.320  14.076  0.3572  0.2442 -0.0916
 7764TIP3    H144707   5.536   1.400  14.028  0.0366 -0.4849 -1.2051
 7764TIP3    H244708   5.473   1.290  14.111  0.4088  0.1755 -0.0251
 7765TIP3   OH244709   1.362   4.885   4.203  0.0679  0.5055 -0.1209
 7765TIP3    H144710   1.334   4.796   4.183  1.5388 -0.1035  0.3974
 7765TIP3    H244711   1.378   4.885   4.297  0.5562  1.1620 -0.1896
 7766TIP3   OH244712   4.945   6.645  13.616  0.1363  0.5067 -0.1529
 7766TIP3    H144713   5.038   6.636  13.596  0.0579  0.9471 -0.7254
 7766TIP3    H244714   4.906   6.682  13.537 -0.1900  2.2139  0.7558
 7767TIP3   OH244715   1.142   1.126  13.955  0.1034 -0.0667 -0.3111
 7767TIP3    H144716   1.098   1.177  13.887  0.4242  1.2051  0.4131
 7767TIP3    H244717   1.176   1.191  14.016  2.5022 -1.0340 -0.5292
 7768TIP3   OH244718   4.796   4.159  14.188 -0.4921  0.1661  0.1034
 7768TIP3    H144719   4.869   4.132  14.132  0.2952  4.0667 -1.0906
 7768TIP3    H244720   4.779   4.083  14.244  2.4152 -1.9902 -1.6422
 7769TIP3   OH244721   4.778   3.607   3.182  0.7081 -0.1213  0.5564
 7769TIP3    H144722   4.804   3.699   3.174  0.9865 -0.1234  1.2784
 7769TIP3    H244723   4.762   3.595   3.276 -0.0806 -0.6134  0.3669
 7770TIP3   OH244724   3.142   2.558   0.207 -0.2089  0.2804  0.5077
 7770TIP3    H144725   3.158   2.621   0.278 -1.8568 -0.9879  2.1008
 7770TIP3    H244726   3.066   2.593   0.160 -1.6687 -0.8464  1.9196
 7771TIP3   OH244727   1.817   3.144  15.410  0.3660 -0.0053 -0.3873
 7771TIP3    H144728   1.854   3.139  15.499 -0.7703  3.1820  0.3864
 7771TIP3    H244729   1.760   3.067  15.405  0.9960 -0.6536  1.3658
 7772TIP3   OH244730   3.629   1.940   4.089 -0.3100  0.2253 -0.0760
 7772TIP3    H144731   3.588   1.903   4.011  1.1144  0.9072 -1.1966
 7772TIP3    H244732   3.660   1.864   4.138  2.0107 -0.2287 -2.0280
 7773TIP3   OH244733   6.737   4.586   0.764  0.0963  0.3994 -0.1112
 7773TIP3    H144734   6.694   4.665   0.731 -0.1916  0.2341 -0.1432
 7773TIP3    H244735   6.665   4.532   0.796 -0.0741 -1.1507 -2.7976
 7774TIP3   OH244736   4.616   5.228   4.380 -0.0153 -0.3385  0.2308
 7774TIP3    H144737   4.603   5.228   4.474 -0.3232 -0.4919  0.1913
 7774TIP3    H244738   4.529   5.246   4.344  0.0880 -0.3378 -0.0240
 7775TIP3   OH244739   5.496   2.101  15.748 -0.3510 -0.1050  0.0992
 7775TIP3    H144740   5.424   2.107  15.811 -1.6524 -0.3122 -1.3044
 7775TIP3    H244741   5.498   2.009  15.723 -0.2722  0.0938 -0.6293
 7776TIP3   OH244742   0.245   1.035   1.812 -0.0166 -0.4432 -0.4586
 7776TIP3    H144743   0.188   0.965   1.781  1.0809 -0.9833 -1.3130
 7776TIP3    H244744   0.192   1.114   1.801 -0.9279 -1.0249 -0.3786
 7777TIP3   OH244745   1.759   3.290   1.635 -0.0161 -0.9220  0.3550
 7777TIP3    H144746   1.783   3.364   1.578 -0.0372 -1.8197 -0.8591
 7777TIP3    H244747   1.664   3.293   1.639  0.0251 -0.2666  1.1880
 7778TIP3   OH244748   1.436   3.418   3.671 -0.5028 -0.1484 -0.5421
 7778TIP3    H144749   1.526   3.392   3.655  0.2835  2.0684 -0.1284
 7778TIP3    H244750   1.412   3.472   3.595 -1.5918 -0.9574 -0.7919
 7779TIP3   OH244751   3.461   3.658  16.541  0.5188 -0.4096  0.3237
 7779TIP3    H144752   3.503   3.686  16.622 -0.5172  0.6740  0.4990
 7779TIP3    H244753   3.371   3.690  16.547  0.1506 -1.1588 -0.8271
 7780TIP3   OH244754   2.512   5.472   2.725 -0.2881  0.5420  0.1165
 7780TIP3    H144755   2.539   5.562   2.746 -1.3928  0.3193  2.8289
 7780TIP3    H244756   2.564   5.417   2.783 -0.1430 -0.5686 -1.0143
 7781TIP3   OH244757   0.211   5.064  14.187 -0.0923  0.2994 -0.1289
 7781TIP3    H144758   0.164   4.995  14.142  3.0092 -2.3267  0.3160
 7781TIP3    H244759   0.219   5.034  14.277  0.9163  1.4844  0.2143
 7782TIP3   OH244760   5.700   5.577  17.109 -0.0821 -0.4953 -0.2746
 7782TIP3    H144761   5.611   5.588  17.076 -0.8474 -0.4553  1.6908
 7782TIP3    H244762   5.729   5.665  17.131  0.1180 -0.5926 -0.1452
 7783TIP3   OH244763   5.573   2.836   5.415 -0.6153 -0.7536  0.1275
 7783TIP3    H144764   5.583   2.926   5.384 -1.0553  0.6000  3.4605
 7783TIP3    H244765   5.627   2.832   5.494  1.1374 -4.1608 -1.0039
 7784TIP3   OH244766   5.149   1.725  11.417  0.0300 -0.1668 -0.4146
 7784TIP3    H144767   5.201   1.711  11.338  1.2888 -1.6237  0.6140
 7784TIP3    H244768   5.181   1.808  11.452 -0.0736  0.1611 -1.0737
 7785TIP3   OH244769   4.671   4.245  15.692  0.4267 -0.1020 -0.2012
 7785TIP3    H144770   4.656   4.339  15.688  0.6800 -0.0941 -1.3550
 7785TIP3    H244771   4.613   4.208  15.626  1.0859 -0.6435 -0.5002
 7786TIP3   OH244772   0.637   2.877   3.691  0.8470  0.1032  0.0440
 7786TIP3    H144773   0.594   2.924   3.763  0.1050 -0.2294 -0.1686
 7786TIP3    H244774   0.707   2.826   3.732  0.5866  0.1113  0.4937
 7787TIP3   OH244775   2.801   1.839  13.726 -0.1010 -0.4084 -0.1630
 7787TIP3    H144776   2.873   1.887  13.685  0.2641 -0.6563  0.1806
 7787TIP3    H244777   2.742   1.907  13.758  0.4651 -0.1845  0.4133
 7788TIP3   OH244778   1.208   4.076  11.250  0.2394  0.4300  0.1289
 7788TIP3    H144779   1.208   3.994  11.299  1.2848  0.9060  0.9750
 7788TIP3    H244780   1.282   4.125  11.286  0.0680  1.4476 -0.8566
 7789TIP3   OH244781   5.736   6.474   0.717  0.4959 -0.5106 -0.7014
 7789TIP3    H144782   5.744   6.379   0.723  2.1711 -0.5157 -2.0892
 7789TIP3    H244783   5.823   6.507   0.742 -0.4899  0.7895  1.2836
 7790TIP3   OH244784   5.459   4.816  10.891 -0.3723 -0.4190  0.3021
 7790TIP3    H144785   5.458   4.835  10.985  0.4666 -0.8855  0.4067
 7790TIP3    H244786   5.403   4.739  10.882  0.5392 -1.1250  0.5892
 7791TIP3   OH244787   4.199   6.595   3.318 -0.7834  0.2172  0.2145
 7791TIP3    H144788   4.112   6.585   3.358 -0.2439 -0.1443  1.3222
 7791TIP3    H244789   4.206   6.688   3.300 -1.4597  0.2328 -0.0199
 7792TIP3   OH244790   0.067   5.179   3.042  0.2255  0.0592  0.0604
 7792TIP3    H144791   0.093   5.271   3.035  0.2430  0.0243 -0.3437
 7792TIP3    H244792   0.035   5.171   3.132  2.2507 -0.0653  0.8218
 7793TIP3   OH244793   3.976   3.803  12.957 -0.5023 -0.0773 -0.2392
 7793TIP3    H144794   4.011   3.737  12.897 -1.6949 -1.5617  0.6264
 7793TIP3    H244795   3.882   3.803  12.941 -0.7713 -0.0967  1.2370
 7794TIP3   OH244796   5.253   2.641  14.019  0.1854 -0.8947  0.1154
 7794TIP3    H144797   5.280   2.704  14.086  2.5552  0.4874 -1.9420
 7794TIP3    H244798   5.191   2.689  13.965 -0.0196 -1.2428  0.0423
 7795TIP3   OH244799   2.358   5.932  13.685 -0.1335 -0.3433 -0.3438
 7795TIP3    H144800   2.384   6.010  13.734 -0.0439 -0.0429 -0.8630
 7795TIP3    H244801   2.433   5.873  13.692 -0.0007 -0.1784 -0.3755
 7796TIP3   OH244802   6.263   4.992  14.194 -0.1090 -0.8501  0.1770
 7796TIP3    H144803   6.353   4.966  14.174 -0.0937 -0.9202  0.3445
 7796TIP3    H244804   6.227   5.020  14.109  1.1454  2.4968  0.5783
 7797TIP3   OH244805   2.708   6.133   5.827  0.2834 -0.0458  0.1719
 7797TIP3    H144806   2.677   6.192   5.895 -0.9483  2.3225 -2.2568
 7797TIP3    H244807   2.688   6.046   5.861 -1.1043  1.0364  2.4238
 7798TIP3   OH244808   4.069   6.652  12.688 -0.0043 -0.4666  0.2843
 7798TIP3    H144809   4.082   6.594  12.613  0.6910  0.3127 -0.2150
 7798TIP3    H244810   4.019   6.726  12.653  0.1588 -0.1908  0.6261
 7799TIP3   OH244811   3.731   2.893   4.595  0.0893  0.5847  0.3969
 7799TIP3    H144812   3.813   2.935   4.569 -0.2904  1.0957  0.0191
 7799TIP3    H244813   3.757   2.805   4.623  0.7007  0.5505 -0.2484
 7800TIP3   OH244814   1.906   5.387   4.152 -0.1184  0.4135  0.1863
 7800TIP3    H144815   1.823   5.415   4.115 -0.2908 -0.2896  0.0173
 7800TIP3    H244816   1.892   5.295   4.174  0.9103  0.0190 -0.7126
 7801TIP3   OH244817   2.722   3.853   3.107  0.1447  0.2296 -0.1529
 7801TIP3    H144818   2.767   3.827   3.187 -1.2035 -1.0342  0.2441
 7801TIP3    H244819   2.672   3.775   3.081  1.1239  0.3222 -2.6577
 7802TIP3   OH244820   3.264   0.581   2.766  0.2124  0.0885 -0.2204
 7802TIP3    H144821   3.324   0.507   2.775 -2.1797 -1.8308  1.5227
 7802TIP3    H244822   3.183   0.543   2.731 -1.1090  1.8500  0.7315
 7803TIP3   OH244823   1.096   4.012   0.960 -0.7159  0.0462 -0.5703
 7803TIP3    H144824   1.154   3.936   0.955 -1.1702 -0.2530 -1.4019
 7803TIP3    H244825   1.137   4.069   1.026  1.7995  0.9025 -2.6960
 7804TIP3   OH244826   1.659   3.155   0.474  0.9293 -0.0233  0.5204
 7804TIP3    H144827   1.607   3.232   0.450  1.9649  0.2889 -0.8793
 7804TIP3    H244828   1.594   3.090   0.500 -0.0568  0.8746  0.4021
 7805TIP3   OH244829   1.100   2.177   2.292  0.1426  0.3529 -0.0982
 7805TIP3    H144830   1.083   2.162   2.386  0.7127 -0.7175 -0.1508
 7805TIP3    H244831   1.052   2.107   2.248  0.2128  0.6084 -0.5843
 7806TIP3   OH244832   0.999   5.650  16.776 -0.1633  0.3314  0.2721
 7806TIP3    H144833   0.904   5.666  16.777 -0.2345 -0.0203 -0.2703
 7806TIP3    H244834   1.008   5.561  16.808 -0.1627 -0.2525 -1.2779
 7807TIP3   OH244835   2.693   5.751   1.797  0.1077  0.2355 -0.2362
 7807TIP3    H144836   2.645   5.828   1.765  1.6754  1.4481  0.2405
 7807TIP3    H244837   2.628   5.703   1.849 -0.6509  1.7125  0.2347
 7808TIP3   OH244838   2.656   3.811   4.721  0.8834  0.6215 -0.1833
 7808TIP3    H144839   2.636   3.723   4.688 -0.0929  1.2882 -1.4417
 7808TIP3    H244840   2.602   3.820   4.799  0.3655  0.3968 -0.5099
 7809TIP3   OH244841   4.644   0.878   3.414  0.4358  0.2552 -0.3168
 7809TIP3    H144842   4.555   0.876   3.448  0.0668 -0.7506 -1.2600
 7809TIP3    H244843   4.645   0.952   3.353 -0.0151 -0.2463 -0.9418
 7810TIP3   OH244844   1.602   6.661  16.700  0.4377 -0.0530  0.4458
 7810TIP3    H144845   1.524   6.612  16.673 -0.1158  0.4595  1.0821
 7810TIP3    H244846   1.580   6.752  16.683  0.3823  0.2103  1.8529
 7811TIP3   OH244847   0.505   4.840  12.659  0.2770  0.0135  0.0976
 7811TIP3    H144848   0.580   4.788  12.629 -0.7218 -1.2277 -0.3787
 7811TIP3    H244849   0.438   4.774  12.681  0.0765  0.9667  2.6749
 7812TIP3   OH244850   4.054   0.212  15.932  0.3871 -0.0292 -0.6006
 7812TIP3    H144851   4.133   0.219  15.878  1.4853 -1.1669  0.7847
 7812TIP3    H244852   4.086   0.217  16.022 -0.9282 -1.9788  0.0400
 7813TIP3   OH244853   0.119   2.680   5.126  0.0482 -0.0840 -0.8691
 7813TIP3    H144854   0.205   2.643   5.104 -0.1308  0.0460 -1.8400
 7813TIP3    H244855   0.084   2.622   5.194  1.1490  0.2015 -0.0261
 7814TIP3   OH244856   0.489   0.282  16.084  0.1734 -0.3492  0.0248
 7814TIP3    H144857   0.425   0.241  16.027 -0.3643  0.0690  0.3228
 7814TIP3    H244858   0.498   0.221  16.158 -1.0527  0.3128  0.7517
 7815TIP3   OH244859   3.140   0.062  14.242 -0.2558  0.2828 -0.4406
 7815TIP3    H144860   3.195   0.048  14.165  0.2546  1.2346 -0.2581
 7815TIP3    H244861   3.149  -0.019  14.293  0.0153 -0.0448 -1.0032
 7816TIP3   OH244862   0.919   0.624   4.362  0.0083 -0.4350 -0.1889
 7816TIP3    H144863   0.901   0.661   4.276  0.2797 -0.6828 -0.3511
 7816TIP3    H244864   0.844   0.566   4.379  1.2030 -2.4435 -1.4075
 7817TIP3   OH244865   1.498   1.502  16.620 -0.2238 -0.0898  0.7939
 7817TIP3    H144866   1.508   1.418  16.664 -0.2934  0.7434  2.4776
 7817TIP3    H244867   1.407   1.527  16.637 -1.3069 -1.1620 -2.5662
 7818TIP3   OH244868   3.492   4.154   1.267  1.0675 -0.6681  0.3959
 7818TIP3    H144869   3.420   4.166   1.205  2.2072  1.8611 -0.6116
 7818TIP3    H244870   3.553   4.096   1.222  1.1046 -0.2221 -0.1418
 7819TIP3   OH244871   5.391   6.114   2.139 -0.1358  0.2696 -0.0500
 7819TIP3    H144872   5.466   6.069   2.102 -0.2545 -0.3415  0.4368
 7819TIP3    H244873   5.425   6.199   2.167  0.6263 -0.4033  1.1354
 7820TIP3   OH244874   1.795   2.468   4.095 -0.0712  0.4445 -0.2876
 7820TIP3    H144875   1.865   2.414   4.132  1.5903  1.7635 -1.4018
 7820TIP3    H244876   1.716   2.416   4.110  1.5361 -3.2904 -2.8770
 7821TIP3   OH244877   2.179   3.678  14.461 -0.0065  0.2304  0.5675
 7821TIP3    H144878   2.267   3.651  14.434 -0.1288  0.7003 -0.3341
 7821TIP3    H244879   2.135   3.596  14.484  0.2229 -0.1568 -0.3302
 7822TIP3   OH244880   5.987   1.350  12.565 -0.0647 -0.3027 -0.4245
 7822TIP3    H144881   6.082   1.356  12.565 -0.0263 -0.0930 -2.8326
 7822TIP3    H244882   5.968   1.267  12.521 -0.9653  0.7214 -2.0799
 7823TIP3   OH244883   3.143   5.535   1.441 -0.1737 -0.2020 -0.0488
 7823TIP3    H144884   3.153   5.484   1.521  0.5524 -0.3582 -0.2325
 7823TIP3    H244885   3.170   5.475   1.371  0.8605  0.4821 -0.2524
 7824TIP3   OH244886   3.388   1.212  15.271 -0.2854  0.1687 -0.0060
 7824TIP3    H144887   3.464   1.231  15.216  0.7920  0.4011  1.4937
 7824TIP3    H244888   3.423   1.159  15.343 -1.7776 -0.7162  0.1062
 7825TIP3   OH244889   0.149   1.625   1.094  0.5858  0.0827 -0.2253
 7825TIP3    H144890   0.156   1.543   1.142 -1.5292  0.7337  1.3318
 7825TIP3    H244891   0.121   1.600   1.006 -1.3349 -0.8447  0.5985
 7826TIP3   OH244892   0.488   6.593  16.187 -0.0784 -0.4722  0.2264
 7826TIP3    H144893   0.501   6.512  16.235 -3.1271 -0.9483  0.4898
 7826TIP3    H244894   0.410   6.577  16.134  0.1617  1.7706 -0.9480
 7827TIP3   OH244895   0.110   2.250  12.779 -0.3323  0.0517 -0.0473
 7827TIP3    H144896   0.121   2.185  12.709 -3.3885 -0.5763 -0.0827
 7827TIP3    H244897   0.042   2.309  12.747  0.2170  1.4438  1.2617
 7828TIP3   OH244898   5.118   2.088  11.768  0.5889 -0.3799 -0.2855
 7828TIP3    H144899   5.183   2.155  11.749  2.2835 -1.2893  1.8310
 7828TIP3    H244900   5.147   2.011  11.719  1.8222 -1.1010  1.4667
 7829TIP3   OH244901   1.752   4.893  10.865 -0.3471 -0.6767  0.4518
 7829TIP3    H144902   1.709   4.837  10.800  2.8569 -3.3280  0.3926
 7829TIP3    H244903   1.810   4.949  10.814 -0.4584 -0.2177  0.8208
 7830TIP3   OH244904   2.218   2.702   5.148 -0.1190  0.8410  0.0493
 7830TIP3    H144905   2.202   2.793   5.125 -0.0427  1.1434  1.1588
 7830TIP3    H244906   2.197   2.696   5.241  1.4451  0.1056  0.3801
 7831TIP3   OH244907   0.851   1.694   3.624  0.5714  0.2025 -0.1680
 7831TIP3    H144908   0.784   1.758   3.599  0.0916 -0.4107 -0.4969
 7831TIP3    H244909   0.804   1.630   3.678  0.4709 -1.1238 -1.7208
 7832TIP3   OH244910   6.149   2.901   3.405  0.7887 -0.2752  0.2574
 7832TIP3    H144911   6.091   2.922   3.332  1.1133  0.2069  0.1391
 7832TIP3    H244912   6.180   2.812   3.386 -0.2040 -0.6830  0.5153
 7833TIP3   OH244913   4.616   0.738  16.270 -0.5797  0.5318 -0.1956
 7833TIP3    H144914   4.682   0.796  16.309 -1.6810  1.8841 -0.2921
 7833TIP3    H244915   4.667   0.665  16.236  0.6374  0.2988  1.9388
 7834TIP3   OH244916   6.114   6.510  16.710 -0.6076 -0.3006  0.3823
 7834TIP3    H144917   6.135   6.440  16.649 -0.7023 -2.9942  3.1704
 7834TIP3    H244918   6.018   6.509  16.715 -0.5830 -0.5584  0.9819
 7835TIP3   OH244919   5.408   4.233  10.732 -0.3748 -0.2413  0.4011
 7835TIP3    H144920   5.426   4.312  10.680  1.5703 -1.2820 -0.6352
 7835TIP3    H244921   5.410   4.263  10.823  2.8755  0.6025  0.2009
 7836TIP3   OH244922   1.806   5.235  12.247  0.1833 -0.8473 -0.2634
 7836TIP3    H144923   1.717   5.253  12.279  0.8157 -0.7703  1.5543
 7836TIP3    H244924   1.795   5.221  12.153 -1.6018  0.1723 -0.2544
 7837TIP3   OH244925   0.703   1.823   5.337  0.1754  0.2605  0.3165
 7837TIP3    H144926   0.753   1.864   5.407  2.3327 -0.4947 -0.6748
 7837TIP3    H244927   0.687   1.893   5.274 -1.3189  0.8224  1.2766
 7838TIP3   OH244928   3.842   5.620  15.052  0.3159 -0.0888  0.2308
 7838TIP3    H144929   3.814   5.665  14.973  0.6964  0.3672  0.3484
 7838TIP3    H244930   3.910   5.676  15.089  0.6609 -0.6647  0.4873
 7839TIP3   OH244931   1.795   5.915   1.119  0.7662  0.0061  0.0672
 7839TIP3    H144932   1.767   5.997   1.078 -0.8014 -0.6349 -0.2186
 7839TIP3    H244933   1.793   5.851   1.047 -2.2812 -1.2000  1.0617
 7840TIP3   OH244934   0.397   0.632  14.894  0.5778 -0.3249  0.0751
 7840TIP3    H144935   0.408   0.671  14.981  0.5627 -1.7673  0.7578
 7840TIP3    H244936   0.336   0.690  14.849 -0.0407  0.0328  1.3177
 7841TIP3   OH244937   4.727   1.705   4.307  0.1736 -0.0898 -0.5784
 7841TIP3    H144938   4.765   1.657   4.381  0.8579 -2.0824 -2.1466
 7841TIP3    H244939   4.727   1.797   4.335  2.5086 -0.5049  0.9954
 7842TIP3   OH244940   0.355   1.194  17.188 -0.4603 -0.0294  0.4810
 7842TIP3    H144941   0.448   1.184  17.166 -0.5791  0.8034 -0.4481
 7842TIP3    H244942   0.315   1.112  17.158 -0.0063 -0.4845  1.0794
 7843TIP3   OH244943   6.666   5.534  16.357 -0.4391  0.2008  0.5494
 7843TIP3    H144944   6.683   5.488  16.275 -1.0158 -2.0957  1.6290
 7843TIP3    H244945   6.710   5.481  16.424  1.6501  3.0208  1.6107
 7844TIP3   OH244946   3.323   4.846  17.119  0.4731  0.3456  0.0216
 7844TIP3    H144947   3.358   4.894  17.044  1.5249 -0.6441 -0.1507
 7844TIP3    H244948   3.280   4.770  17.081 -0.7708  0.8847  0.3169
 7845TIP3   OH244949   4.532   6.070  15.995  0.1284 -0.3517  0.2993
 7845TIP3    H144950   4.453   6.102  16.038  0.1869 -0.8113  0.7698
 7845TIP3    H244951   4.503   6.043  15.908  0.1774  1.4415 -0.3146
 7846TIP3   OH244952   6.345   0.230  12.497 -0.0072 -0.6465  0.2221
 7846TIP3    H144953   6.423   0.238  12.442  0.1523 -0.4094  0.4837
 7846TIP3    H244954   6.273   0.221  12.435  0.2050 -0.6508 -0.0242
 7847TIP3   OH244955   1.533   6.372  16.913  0.2583 -0.6048  0.2660
 7847TIP3    H144956   1.469   6.443  16.918  0.4540 -0.2517 -1.5679
 7847TIP3    H244957   1.575   6.372  16.999 -1.0480  0.2490  0.9406
 7848TIP3   OH244958   5.392   0.325   2.175 -0.3974  0.1178 -0.3547
 7848TIP3    H144959   5.336   0.348   2.101 -0.5520 -0.2498 -0.3571
 7848TIP3    H244960   5.358   0.241   2.205  0.7900 -0.6282 -1.0023
 7849TIP3   OH244961   1.404   3.028  12.911  0.1093 -0.1172 -0.4254
 7849TIP3    H144962   1.361   3.040  12.996  0.5548  1.6211 -0.4047
 7849TIP3    H244963   1.462   2.953  12.924 -2.5796 -2.3821 -0.3669
 7850TIP3   OH244964   2.365   3.363   6.362 -0.1696  0.4309  0.0004
 7850TIP3    H144965   2.402   3.275   6.351 -0.5719  0.3630 -0.8627
 7850TIP3    H244966   2.438   3.416   6.394  0.1481 -0.1519  0.2532
 7851TIP3   OH244967   5.322   2.662   0.591 -0.4533 -0.3815  0.1819
 7851TIP3    H144968   5.352   2.575   0.616 -0.7913 -0.2490  1.0825
 7851TIP3    H244969   5.345   2.717   0.666 -1.4865  0.0264  0.2132
 7852TIP3   OH244970   3.374   6.376  13.716 -0.3848  0.7875 -0.2713
 7852TIP3    H144971   3.391   6.343  13.628  0.3669  0.7565 -0.1246
 7852TIP3    H244972   3.284   6.350  13.735 -0.3700  0.3208 -0.8172
 7853TIP3   OH244973   3.340   6.249  14.167 -0.0715  0.0037 -0.6420
 7853TIP3    H144974   3.376   6.175  14.119 -1.0224 -0.7447 -0.2272
 7853TIP3    H244975   3.256   6.267  14.125 -0.1854  0.3665 -0.2654
 7854TIP3   OH244976   3.901   6.688  11.237 -0.5496 -0.3587  0.0569
 7854TIP3    H144977   3.895   6.620  11.170 -1.4518  0.0788 -0.3329
 7854TIP3    H244978   3.818   6.736  11.230  0.0079  0.7031  0.4033
 7855TIP3   OH244979   6.064   0.409  10.440 -0.1558 -0.1569  0.7063
 7855TIP3    H144980   6.049   0.332  10.495  0.1287 -1.6932 -1.2859
 7855TIP3    H244981   6.048   0.483  10.499  2.1139 -1.6523  3.4270
 7856TIP3   OH244982   1.869   2.373  11.849  0.0652 -0.0055 -0.2215
 7856TIP3    H144983   1.848   2.354  11.758  1.0918 -2.0704 -0.0911
 7856TIP3    H244984   1.962   2.351  11.857 -0.0081  0.1406  1.3182
 7857TIP3   OH244985   2.333   5.600   2.553  0.0916 -0.3194  1.1010
 7857TIP3    H144986   2.391   5.544   2.603  1.1147 -2.4030 -2.1340
 7857TIP3    H244987   2.292   5.542   2.489 -1.4316  2.0636 -0.2591
 7858TIP3   OH244988   6.624   6.113  11.709 -0.3286  0.2966  0.1909
 7858TIP3    H144989   6.685   6.186  11.712 -0.2223  0.1637  2.1231
 7858TIP3    H244990   6.671   6.044  11.661 -0.9474  1.8588 -2.9436
 7859TIP3   OH244991   1.215   6.289  14.706  0.5425 -0.2247  0.2166
 7859TIP3    H144992   1.192   6.203  14.743  2.5812 -0.4710  1.0499
 7859TIP3    H244993   1.266   6.331  14.775  0.5474  1.2002 -0.6293
 7860TIP3   OH244994   5.909   0.137   4.921 -0.2148 -0.3518  0.0960
 7860TIP3    H144995   5.982   0.086   4.958  0.6244  1.4756  1.1399
 7860TIP3    H244996   5.931   0.147   4.829  2.3154  2.2410  0.8088
 7861TIP3   OH244997   0.071   3.863   2.304  0.6002 -0.4975  0.1185
 7861TIP3    H144998   0.140   3.913   2.348  2.3258 -0.2504 -2.6673
 7861TIP3    H244999   0.057   3.787   2.361  2.3152  0.0609  1.3645
 7862TIP3   OH245000   4.650   6.735   4.588 -0.1935 -0.0910  0.5268
 7862TIP3    H145001   4.582   6.724   4.522  1.2934  0.0158 -1.0934
 7862TIP3    H245002   4.674   6.827   4.584  0.5528 -0.2774  0.5439
 7863TIP3   OH245003   5.965   1.544  11.837  0.2130  0.4534  0.4161
 7863TIP3    H145004   6.008   1.571  11.756 -1.3173  0.2816 -0.4843
 7863TIP3    H245005   5.999   1.456  11.854  0.9125  0.6816  0.2450
 7864TIP3   OH245006   1.095   2.301  15.153 -0.1961 -0.3230 -0.2255
 7864TIP3    H145007   1.100   2.388  15.114  0.9884 -0.7833 -1.1666
 7864TIP3    H245008   1.163   2.301  15.220 -0.2907 -0.4794 -0.1284
 7865TIP3   OH245009   1.059   4.115  14.048 -0.4181  0.2326 -0.2203
 7865TIP3    H145010   1.107   4.192  14.079  0.6721 -0.7462  0.6005
 7865TIP3    H245011   0.967   4.140  14.054 -0.1019  1.2927  0.5248
 7866TIP3   OH245012   5.384   5.820   5.125 -0.5043  0.4807  0.2102
 7866TIP3    H145013   5.472   5.840   5.158 -0.0191  0.0978 -0.8212
 7866TIP3    H245014   5.380   5.863   5.040 -0.6517 -1.0001 -0.5599
 7867TIP3   OH245015   6.421   5.391  10.752  0.0356 -0.5652 -0.2823
 7867TIP3    H145016   6.482   5.460  10.778 -3.4905  2.1571  1.5663
 7867TIP3    H245017   6.426   5.391  10.656 -0.1292  2.7004 -0.4152
 7868TIP3   OH245018   6.414   0.771  14.285  0.0363 -0.1241 -0.4558
 7868TIP3    H145019   6.380   0.861  14.294  0.0481 -0.0291 -1.3275
 7868TIP3    H245020   6.395   0.747  14.195 -0.1796 -1.0984 -0.1637
 7869TIP3   OH245021   5.015   6.603   0.035  0.2039  0.2874 -0.0795
 7869TIP3    H145022   4.931   6.641   0.010  0.3554  2.0637  1.8639
 7869TIP3    H245023   5.000   6.565   0.121  1.5684  1.3760  0.6798
 7870TIP3   OH245024   4.531   1.540  14.093  0.4545  0.4251 -0.6324
 7870TIP3    H145025   4.475   1.608  14.129 -1.1965 -1.5502  0.7884
 7870TIP3    H245026   4.603   1.532  14.155  1.0182  1.3103 -1.1631
 7871TIP3   OH245027   3.800   3.845   0.394  0.1445  0.1357 -0.4080
 7871TIP3    H145028   3.848   3.909   0.447  1.3844  0.2175 -1.5647
 7871TIP3    H245029   3.774   3.892   0.315 -0.2298 -0.4044 -0.6177
 7872TIP3   OH245030   1.178   3.354   5.727  0.5295  0.3032  0.1859
 7872TIP3    H145031   1.084   3.344   5.743  1.0062 -0.0593  3.3914
 7872TIP3    H245032   1.200   3.282   5.668 -0.5858 -2.1636  2.5727
 7873TIP3   OH245033   2.612   4.366   0.896 -0.0004  0.1995  0.0128
 7873TIP3    H145034   2.595   4.401   0.984  0.5835  0.1070  0.1617
 7873TIP3    H245035   2.525   4.358   0.857 -0.1760  1.5226  0.0873
 7874TIP3   OH245036   6.182   3.979   2.902 -0.3137 -0.1129 -0.4545
 7874TIP3    H145037   6.152   4.057   2.949  0.0444  0.2388 -0.8047
 7874TIP3    H245038   6.120   3.911   2.927 -1.7279  0.7114 -1.5390
 7875TIP3   OH245039   2.431   3.220   2.786 -0.2814  0.6745 -0.2957
 7875TIP3    H145040   2.444   3.130   2.815 -0.9662  0.8432  0.5580
 7875TIP3    H245041   2.411   3.212   2.692 -0.3529 -0.0550 -0.2243
 7876TIP3   OH245042   6.633   6.303   2.658  0.3008 -0.3575 -0.1802
 7876TIP3    H145043   6.619   6.377   2.600  1.7989  0.8328  0.9016
 7876TIP3    H245044   6.726   6.305   2.679 -0.1866 -0.6088  2.3696
 7877TIP3   OH245045   1.815   1.290   4.529  0.5677  0.6692 -0.2597
 7877TIP3    H145046   1.886   1.287   4.465  1.0830 -3.6807  0.2068
 7877TIP3    H245047   1.741   1.248   4.484 -0.3595  1.2580  0.6830
 7878TIP3   OH245048   2.826   4.170   3.708 -0.1307  0.0493 -0.5799
 7878TIP3    H145049   2.783   4.106   3.765  1.8118 -0.8434 -0.0515
 7878TIP3    H245050   2.757   4.197   3.647 -1.7883 -0.3123  1.0317
 7879TIP3   OH245051   4.634   5.913   1.163 -0.1566  0.4149  0.1534
 7879TIP3    H145052   4.572   5.983   1.181  0.4429  1.3434 -1.2992
 7879TIP3    H245053   4.640   5.909   1.068  0.3262 -1.1775  0.2130
 7880TIP3   OH245054   2.393   2.216   2.632 -0.0149 -0.0689  0.1092
 7880TIP3    H145055   2.423   2.296   2.587  0.2038  1.1502  2.2806
 7880TIP3    H245056   2.466   2.156   2.624  0.2894  0.3661 -0.5458
 7881TIP3   OH245057   1.817   4.019  10.999 -0.0654  0.2204 -0.0175
 7881TIP3    H145058   1.864   4.026  10.915 -2.1469  3.5258 -1.0888
 7881TIP3    H245059   1.726   4.003  10.974 -0.2551 -2.1919  1.8579
 7882TIP3   OH245060   4.442   1.975   3.375 -0.1800 -0.1749 -0.2171
 7882TIP3    H145061   4.486   2.050   3.415 -1.1397  0.4760 -0.3512
 7882TIP3    H245062   4.510   1.908   3.369  0.2435  0.0458  1.5916
 7883TIP3   OH245063   5.115   2.842  13.045 -0.0003 -0.6571 -0.1337
 7883TIP3    H145064   5.190   2.790  13.016  1.0694  0.4508  0.5741
 7883TIP3    H245065   5.105   2.909  12.978 -1.7001 -1.9899 -1.3146
 7884TIP3   OH245066   5.820   6.636   2.974  0.2367 -0.4568 -0.4106
 7884TIP3    H145067   5.897   6.640   3.032 -0.2079  0.3403  0.1511
 7884TIP3    H245068   5.763   6.707   3.006 -1.3086 -1.8291  0.0061
 7885TIP3   OH245069   6.151   1.657   1.912  0.3812 -0.2358 -0.5003
 7885TIP3    H145070   6.061   1.628   1.902  0.1275  0.0678  0.7299
 7885TIP3    H245071   6.150   1.749   1.887 -0.2111  0.4699  1.8734
 7886TIP3   OH245072   1.337   3.299  12.272 -0.6924 -0.3246  0.0199
 7886TIP3    H145073   1.313   3.316  12.181 -0.6203 -0.5885 -0.0502
 7886TIP3    H245074   1.302   3.374  12.320 -0.7997 -0.2220 -0.2140
 7887TIP3   OH245075   3.945   2.191   2.124 -0.0793  0.1779  0.2380
 7887TIP3    H145076   3.962   2.240   2.205 -0.5926 -0.9032  1.0230
 7887TIP3    H245077   3.854   2.212   2.102  0.3536  1.2562 -0.6447
 7888TIP3   OH245078   1.910   5.943   5.164 -0.5008  0.0397 -0.4655
 7888TIP3    H145079   1.958   5.881   5.108  0.4878  1.1506 -0.8927
 7888TIP3    H245080   1.883   6.013   5.106  0.7195  1.3204  0.4440
 7889TIP3   OH245081   4.946   6.765  11.330 -0.3675 -0.3009 -0.3481
 7889TIP3    H145082   4.995   6.714  11.265  1.3595  1.2487 -0.3323
 7889TIP3    H245083   4.964   6.721  11.413  0.6287 -0.0375 -0.4117
 7890TIP3   OH245084   1.554   3.734   0.267 -0.4308 -0.4604 -0.0759
 7890TIP3    H145085   1.558   3.665   0.201  0.9879  0.1825 -0.7069
 7890TIP3    H245086   1.529   3.813   0.218  1.8341  0.2935 -0.1557
 7891TIP3   OH245087   6.316   0.530  16.944  0.0179 -0.4473 -0.1783
 7891TIP3    H145088   6.272   0.539  16.859  0.2899 -0.1284 -0.2883
 7891TIP3    H245089   6.408   0.516  16.922  0.6164  2.4343  0.0510
 7892TIP3   OH245090   1.771   1.326   2.781  0.8422 -0.0101 -0.8111
 7892TIP3    H145091   1.753   1.383   2.856 -2.7861 -0.9621 -0.7785
 7892TIP3    H245092   1.796   1.243   2.820 -2.0008 -0.8102 -0.4332
 7893TIP3   OH245093   1.105   5.292  10.421  0.1383 -0.5118 -0.5135
 7893TIP3    H145094   1.197   5.292  10.445 -0.1561 -2.8273  0.8949
 7893TIP3    H245095   1.073   5.205  10.446 -2.4057  0.1761 -1.0530
 7894TIP3   OH245096   3.946   3.085  11.999 -0.3274  0.1735 -0.3563
 7894TIP3    H145097   3.865   3.136  11.998 -0.7192 -0.4092 -1.8251
 7894TIP3    H245098   4.002   3.130  12.061 -1.1455  1.6214 -0.6162
 7895TIP3   OH245099   0.479   2.588  12.618 -0.0625 -0.6369  0.1126
 7895TIP3    H145100   0.443   2.594  12.530 -1.2106 -0.6526  0.5570
 7895TIP3    H245101   0.495   2.495  12.632  0.5103 -0.5903 -0.2237
 7896TIP3   OH245102   2.317   0.707   2.665 -0.0515 -0.4161 -0.1074
 7896TIP3    H145103   2.283   0.678   2.750 -2.0884  0.8188 -0.4315
 7896TIP3    H245104   2.371   0.783   2.686 -1.8549  0.9089  0.0361
 7897TIP3   OH245105   3.317   1.498   2.064  0.4273 -0.0825  0.3919
 7897TIP3    H145106   3.274   1.545   2.136  0.5608 -1.5353  1.4459
 7897TIP3    H245107   3.327   1.565   1.996  0.6444  1.4401  1.8448
 7898TIP3   OH245108   5.004   0.069  16.255  0.5555  0.0374  0.1164
 7898TIP3    H145109   4.922   0.114  16.236  0.5645 -0.0587 -0.1514
 7898TIP3    H245110   5.051   0.070  16.172 -0.0654 -1.7630 -0.2909
 7899TIP3   OH245111   6.321   5.597   1.938 -0.4510  0.0020 -0.3383
 7899TIP3    H145112   6.404   5.559   1.966 -0.8738  0.0944  1.1244
 7899TIP3    H245113   6.344   5.680   1.897  0.1353  0.3361  0.6590
 7900TIP3   OH245114   0.589   2.457  14.718 -0.4317  0.2901 -0.3155
 7900TIP3    H145115   0.618   2.502  14.639  0.6022 -0.5805 -0.4405
 7900TIP3    H245116   0.656   2.391  14.735 -1.6538 -0.8779  0.1562
 7901TIP3   OH245117   6.384   4.458  17.301 -0.1382  0.4818 -0.2848
 7901TIP3    H145118   6.468   4.458  17.256  0.0949 -0.9445  0.1104
 7901TIP3    H245119   6.318   4.450  17.232  0.0783  0.8572 -0.5362
 7902TIP3   OH245120   6.553   1.701  12.221 -0.1984  0.2140 -0.2939
 7902TIP3    H145121   6.513   1.783  12.250 -0.7293 -1.2160  3.5970
 7902TIP3    H245122   6.480   1.646  12.193 -0.1117  0.1736 -0.4456
 7903TIP3   OH245123   4.343   6.757  13.958  0.1634 -0.0472 -0.0223
 7903TIP3    H145124   4.381   6.684  13.909  1.0915  0.2376  0.2647
 7903TIP3    H245125   4.415   6.792  14.009  0.3420  2.4813 -1.8125
 7904TIP3   OH245126   6.384   1.172   4.132  0.4779 -0.7006  0.2373
 7904TIP3    H145127   6.417   1.262   4.137 -2.0542  0.2366  1.5707
 7904TIP3    H245128   6.336   1.169   4.050  1.0268 -1.0506 -0.0812
 7905TIP3   OH245129   3.590   4.079   5.807 -0.4198 -0.3743  0.2392
 7905TIP3    H145130   3.532   4.150   5.833 -0.1963  0.5801 -1.7009
 7905TIP3    H245131   3.536   4.023   5.750  0.6976  1.0698 -2.4218
 7906TIP3   OH245132   6.382   3.729   4.851  0.2435  0.5473 -1.0585
 7906TIP3    H145133   6.431   3.761   4.775  1.0235 -2.8009 -2.1441
 7906TIP3    H245134   6.291   3.726   4.821  0.6377 -1.4393 -2.2386
 7907TIP3   OH245135   2.007   4.057  13.859 -0.0487 -0.2775  0.2068
 7907TIP3    H145136   1.957   4.016  13.789  1.2714 -0.5006 -0.6545
 7907TIP3    H245137   2.036   3.984  13.914 -1.7698 -0.0384  1.5128
 7908TIP3   OH245138   4.337   1.302   0.917 -0.0585 -0.5109 -0.8023
 7908TIP3    H145139   4.318   1.388   0.879  0.4945  0.1636  0.4057
 7908TIP3    H245140   4.413   1.316   0.972  0.2235 -1.8571 -0.8053
 7909TIP3   OH245141   1.783   5.293  15.168 -0.3045  0.5893  0.4909
 7909TIP3    H145142   1.818   5.232  15.233 -0.4283  0.4831  0.4585
 7909TIP3    H245143   1.764   5.239  15.091  0.5976  0.8424  0.0757
 7910TIP3   OH245144   4.814   3.869  13.711  0.6373 -0.9646 -0.5745
 7910TIP3    H145145   4.898   3.907  13.738  0.3435  0.2183 -1.2542
 7910TIP3    H245146   4.750   3.906  13.772  0.4581 -1.0001 -0.7395
 7911TIP3   OH245147   0.732   3.515  14.223 -0.9023  0.1357  0.2228
 7911TIP3    H145148   0.739   3.432  14.175 -0.6772 -0.0438  0.5546
 7911TIP3    H245149   0.779   3.498  14.305  0.2627  1.0123 -0.2566
 7912TIP3   OH245150   4.115   3.146  13.190  0.2375 -0.0694 -0.5085
 7912TIP3    H145151   4.117   3.074  13.126  0.0244 -0.9692  0.4639
 7912TIP3    H245152   4.136   3.224  13.139  0.2718 -0.7905 -1.6373
 7913TIP3   OH245153   3.346   2.443   6.648 -0.2070  0.3020  0.4341
 7913TIP3    H145154   3.306   2.523   6.614  0.9337  0.0680 -1.6743
 7913TIP3    H245155   3.427   2.473   6.690  0.7081  0.2409 -1.1936
 7914TIP3   OH245156   1.527   3.652  15.348  0.2919 -0.6076 -0.2123
 7914TIP3    H145157   1.559   3.742  15.336 -1.7772  0.2817  0.5642
 7914TIP3    H245158   1.463   3.639  15.278 -0.7624 -0.8017  0.7600
 7915TIP3   OH245159   0.147   5.639   1.853 -0.3990  0.2923 -0.5306
 7915TIP3    H145160   0.106   5.699   1.792  0.1260 -0.6382 -1.8359
 7915TIP3    H245161   0.108   5.553   1.834  0.2433 -0.1299 -0.0186
 7916TIP3   OH245162   4.934   5.496  13.906 -0.5191 -0.0924 -0.1494
 7916TIP3    H145163   4.853   5.459  13.871 -0.8898  2.6851 -2.6010
 7916TIP3    H245164   4.910   5.581  13.940  1.3817  1.1509 -1.6411
 7917TIP3   OH245165   5.674   6.715  15.127  0.1522  0.1851  0.4713
 7917TIP3    H145166   5.674   6.811  15.124 -1.3137  0.1777 -1.1716
 7917TIP3    H245167   5.697   6.688  15.039 -0.9785 -0.9573  0.4962
 7918TIP3   OH245168   5.514   0.116   5.102 -0.7640 -0.2946 -0.3310
 7918TIP3    H145169   5.510   0.197   5.050  1.4421 -0.4558 -0.8535
 7918TIP3    H245170   5.437   0.067   5.075 -0.2776  0.1077 -2.7080
 7919TIP3   OH245171   6.069   6.060  13.431 -0.4500  0.1074  0.0986
 7919TIP3    H145172   6.064   5.964  13.435 -0.0315  0.1203  1.2283
 7919TIP3    H245173   5.989   6.085  13.385 -0.5074 -0.7903 -0.3252
 7920TIP3   OH245174   4.437   3.493  12.413  0.1955  0.2630 -0.4304
 7920TIP3    H145175   4.457   3.567  12.356 -3.1607 -0.5327 -3.0341
 7920TIP3    H245176   4.370   3.444  12.365 -0.2064 -2.6010  2.6683
 7921TIP3   OH245177   5.430   3.197  15.130  0.0393  0.1684  0.1844
 7921TIP3    H145178   5.465   3.108  15.133  0.3133  0.3001  2.0743
 7921TIP3    H245179   5.507   3.252  15.122 -0.1797  0.2680 -2.1277
 7922TIP3   OH245180   0.920   6.697   5.201  0.6235 -0.1161  0.0608
 7922TIP3    H145181   0.847   6.753   5.227 -0.5177 -1.0182 -1.0822
 7922TIP3    H245182   0.909   6.685   5.107  2.1098 -0.4944 -0.0859
 7923TIP3   OH245183   0.143   3.608  11.276 -0.2626  0.1702 -0.3921
 7923TIP3    H145184   0.210   3.547  11.247 -0.1308 -1.3551  2.6397
 7923TIP3    H245185   0.060   3.563  11.258 -0.2595  0.0444 -0.0980
 7924TIP3   OH245186   2.949   4.952   4.717 -0.4162  0.0063 -0.0645
 7924TIP3    H145187   2.886   4.884   4.692  0.0370 -0.5842  0.3416
 7924TIP3    H245188   2.908   4.996   4.792 -0.3375 -0.4035  0.2254
 7925TIP3   OH245189   3.001   4.561   3.603  0.1424  0.6498 -0.4607
 7925TIP3    H145190   2.945   4.526   3.534  0.7977 -1.2963 -0.0409
 7925TIP3    H245191   3.000   4.495   3.672  1.4420  1.4514  0.3792
 7926TIP3   OH245192   0.185   4.550  13.810  0.2767 -0.2828  0.8263
 7926TIP3    H145193   0.106   4.570  13.859 -0.5086 -2.3541  0.4767
 7926TIP3    H245194   0.182   4.609  13.735  0.3645  1.3491  2.0391
 7927TIP3   OH245195   5.257   4.308   2.890 -0.0725  0.0112 -0.1018
 7927TIP3    H145196   5.183   4.280   2.835  0.5572  0.2662 -1.1079
 7927TIP3    H245197   5.279   4.231   2.942 -0.9087 -0.1332  0.0533
 7928TIP3   OH245198   5.753   0.013   5.168 -0.0516  0.1445 -0.1900
 7928TIP3    H145199   5.788   0.069   5.099  0.5017 -0.6353 -0.5628
 7928TIP3    H245200   5.659   0.030   5.168  0.0833  0.9359 -0.4094
 7929TIP3   OH245201   3.772   6.221  13.533  0.3441 -0.0360 -0.1370
 7929TIP3    H145202   3.724   6.290  13.489 -3.0999 -2.1780 -0.0679
 7929TIP3    H245203   3.800   6.260  13.616  0.3224  1.8065 -0.9557
 7930TIP3   OH245204   0.569   1.016  13.569 -0.0618 -0.0780 -0.0437
 7930TIP3    H145205   0.514   1.001  13.646  0.1064 -0.5534 -0.0152
 7930TIP3    H245206   0.632   0.944  13.569 -0.1564 -0.1698 -0.7130
 7931TIP3   OH245207   0.638   5.318   4.259 -0.8123  0.1517  0.0344
 7931TIP3    H145208   0.632   5.243   4.319 -4.1944  0.7791  0.6529
 7931TIP3    H245209   0.694   5.287   4.188 -0.1363 -2.0949  1.4396
 7932TIP3   OH245210   1.213   0.768   4.910 -0.4942  0.5418 -0.2338
 7932TIP3    H145211   1.140   0.728   4.864 -1.9303 -1.3649  3.3225
 7932TIP3    H245212   1.290   0.720   4.880 -0.9205  1.2124 -2.5381
 7933TIP3   OH245213   2.916   5.943   3.934 -0.3839  0.1246  0.5052
 7933TIP3    H145214   2.875   6.013   3.883 -0.2201  0.8850  1.4048
 7933TIP3    H245215   2.860   5.933   4.011 -0.6747 -1.0703  0.1664
 7934TIP3   OH245216   2.321   2.092  13.746  0.0369  0.6359 -0.1744
 7934TIP3    H145217   2.263   2.034  13.795  0.6249 -1.1159 -1.4434
 7934TIP3    H245218   2.299   2.076  13.655  2.3477  0.0703 -0.6828
 7935TIP3   OH245219   4.585   1.237  11.943 -0.1541  0.1523  0.2892
 7935TIP3    H145220   4.577   1.276  12.030  0.3724  1.3988 -0.1974
 7935TIP3    H245221   4.512   1.274  11.893 -1.5035 -1.8825  0.6306
 7936TIP3   OH245222   4.963   5.530  16.019  0.0442 -0.2273  0.0323
 7936TIP3    H145223   4.880   5.509  15.976  0.0774  1.2251 -0.8349
 7936TIP3    H245224   5.030   5.496  15.960  0.0821 -0.3805  0.1616
 7937TIP3   OH245225   1.326   3.837   1.400  0.5746  0.1292  0.7511
 7937TIP3    H145226   1.275   3.919   1.406  1.7884  0.8506  1.6176
 7937TIP3    H245227   1.322   3.801   1.489 -0.4760 -1.1195  0.2337
 7938TIP3   OH245228   0.088   1.331   0.885  0.0018 -0.5575  0.1083
 7938TIP3    H145229   0.134   1.383   0.819 -0.3010  1.3153  1.3030
 7938TIP3    H245230   0.024   1.281   0.834 -0.4772  1.1096 -1.0251
 7939TIP3   OH245231   6.072   3.330  13.196  0.8023 -0.3474  0.5939
 7939TIP3    H145232   5.984   3.320  13.232  0.1233  1.0645 -0.5951
 7939TIP3    H245233   6.118   3.384  13.261  0.1151  0.7225  0.2146
 7940TIP3   OH245234   2.516   5.310  15.834 -0.1923  0.0775  0.0465
 7940TIP3    H145235   2.510   5.219  15.807 -1.1580 -0.5431  2.1964
 7940TIP3    H245236   2.492   5.360  15.756  0.0661 -1.4919 -1.0779
 7941TIP3   OH245237   4.969   6.432   0.663 -0.9424  0.0820 -0.0349
 7941TIP3    H145238   5.025   6.356   0.677 -1.6325 -0.3226  0.6167
 7941TIP3    H245239   4.900   6.400   0.604 -0.2738  0.6952 -1.2035
 7942TIP3   OH245240   0.041   4.534   1.060 -0.0522 -0.3125  0.5505
 7942TIP3    H145241  -0.043   4.516   1.017 -1.0713  1.9432  1.3981
 7942TIP3    H245242   0.064   4.453   1.105 -2.6566 -0.5269  1.6535
 7943TIP3   OH245243   1.883   5.939  11.894 -0.0202  0.0083  0.2498
 7943TIP3    H145244   1.972   5.949  11.861  0.5462 -2.1576  0.9960
 7943TIP3    H245245   1.857   6.028  11.919  2.5598  0.4876  1.5759
 7944TIP3   OH245246   2.232   3.096  13.969 -0.0291 -0.4269  0.8537
 7944TIP3    H145247   2.293   3.027  13.994 -0.0468 -1.7597 -2.2593
 7944TIP3    H245248   2.281   3.150  13.907 -1.3961 -0.4669 -0.3180
 7945TIP3   OH245249   5.441   2.580  11.688  0.0777 -0.6101  0.1657
 7945TIP3    H145250   5.453   2.572  11.782  2.3855 -2.4651 -0.2177
 7945TIP3    H245251   5.512   2.638  11.659 -1.4664  1.1474 -0.3229
 7946TIP3   OH245252   4.625   3.031   4.505 -0.2735  0.5370 -0.5583
 7946TIP3    H145253   4.531   3.027   4.490  0.1439 -1.8096 -3.4051
 7946TIP3    H245254   4.645   2.955   4.559  0.0686  0.8418 -0.2384
 7947TIP3   OH245255   0.093   3.935   2.853 -0.0079  0.0804  0.2547
 7947TIP3    H145256   0.061   3.870   2.791 -1.0071 -0.0273  0.8698
 7947TIP3    H245257   0.037   3.926   2.929  0.0499  1.4296  0.4907
 7948TIP3   OH245258   0.106   3.413  12.372  0.0228  0.0692 -0.1985
 7948TIP3    H145259   0.022   3.432  12.330  0.4302 -0.5696 -1.3408
 7948TIP3    H245260   0.134   3.497  12.408 -0.2141  0.7173 -1.4694
 7949TIP3   OH245261   0.847   2.882  12.557  0.1951  0.3414 -0.2005
 7949TIP3    H145262   0.852   2.974  12.533  0.0036  1.0118  2.0805
 7949TIP3    H245263   0.925   2.866  12.609 -0.1285 -0.5785  0.0211
 7950TIP3   OH245264   0.171   3.169   4.838  0.4334 -1.2667  0.0196
 7950TIP3    H145265   0.178   3.264   4.837 -0.1501 -1.2243 -0.0157
 7950TIP3    H245266   0.251   3.140   4.883  0.6824 -0.7719 -0.0963
 7951TIP3   OH245267   2.353   1.027   5.402 -0.3117 -0.0372 -0.4131
 7951TIP3    H145268   2.387   1.039   5.314  1.0236 -0.5314  0.0068
 7951TIP3    H245269   2.417   0.970   5.445 -0.9329  0.1927  0.8739
 7952TIP3   OH245270   4.082   1.769   1.619  0.2433 -0.4722  0.4419
 7952TIP3    H145271   4.157   1.769   1.560 -0.1290  1.2988 -0.1101
 7952TIP3    H245272   4.011   1.806   1.566 -0.0558  1.3491  2.0177
 7953TIP3   OH245273   4.209   0.830  11.811  0.9097 -0.5919  0.1855
 7953TIP3    H145274   4.264   0.783  11.875  2.1743  0.6997  0.1146
 7953TIP3    H245275   4.233   0.922  11.823  0.8588 -0.2731 -1.8582
 7954TIP3   OH245276   4.274   2.272  12.830 -0.0762 -0.1342  0.9306
 7954TIP3    H145277   4.320   2.268  12.914 -0.4877 -1.8017  1.1136
 7954TIP3    H245278   4.316   2.343  12.783  0.7763  0.2349  2.1973
 7955TIP3   OH245279   1.498   3.752   3.815 -0.7553  0.1140 -0.8108
 7955TIP3    H145280   1.494   3.667   3.858  2.2692  1.0664  1.7082
 7955TIP3    H245281   1.567   3.742   3.749 -2.5307 -0.1496 -2.7319
 7956TIP3   OH245282   5.538   6.342   2.151  0.6733 -0.0223 -0.1990
 7956TIP3    H145283   5.611   6.307   2.202  0.9984 -2.7809 -2.2973
 7956TIP3    H245284   5.489   6.397   2.212  4.2383  1.6997  1.3948
 7957TIP3   OH245285   4.512   4.295  14.170 -0.5662 -0.8144  0.1582
 7957TIP3    H145286   4.601   4.259  14.172  0.8847  2.4035  0.1525
 7957TIP3    H245287   4.499   4.320  14.078 -1.0362 -0.3068  0.3573
 7958TIP3   OH245288   2.576   4.885  13.025 -0.4848  0.5420 -0.4645
 7958TIP3    H145289   2.500   4.930  12.988  0.7207  0.8962 -2.6657
 7958TIP3    H245290   2.604   4.941  13.098 -3.1016 -0.3275  1.3630
 7959TIP3   OH245291   1.117   3.253  16.992  0.1032  0.3229  0.1039
 7959TIP3    H145292   1.164   3.182  17.034  0.6290  0.4809 -0.2122
 7959TIP3    H245293   1.167   3.271  16.912 -0.2666  0.7595 -0.0342
 7960TIP3   OH245294   3.483   2.415   4.085  0.2863 -0.4949 -0.5278
 7960TIP3    H145295   3.548   2.348   4.066  1.9491  0.7461  0.5360
 7960TIP3    H245296   3.533   2.492   4.110 -1.5908  0.5257  0.3568
 7961TIP3   OH245297   1.241   0.276   5.715  0.4759 -0.1516  0.3741
 7961TIP3    H145298   1.214   0.332   5.787 -2.3395 -1.7143  0.6948
 7961TIP3    H245299   1.169   0.281   5.652  0.7610 -2.2613 -0.2149
 7962TIP3   OH245300   4.268   1.809   0.372 -0.1614 -0.1480 -0.2612
 7962TIP3    H145301   4.342   1.856   0.333  0.4483 -1.6714 -0.9858
 7962TIP3    H245302   4.204   1.878   0.393  0.5118  0.9553 -1.7137
 7963TIP3   OH245303   2.698   3.079  12.971 -0.5973 -0.2946 -0.7063
 7963TIP3    H145304   2.612   3.087  12.930 -1.4590  3.5648  1.4606
 7963TIP3    H245305   2.686   3.011  13.038 -0.6073 -2.8424 -3.1025
 7964TIP3   OH245306   6.034   3.477  15.167  0.3110  0.3149 -0.3807
 7964TIP3    H145307   6.015   3.396  15.120  1.2961 -0.2377  0.1238
 7964TIP3    H245308   6.015   3.546  15.104 -0.0640 -0.3250 -0.9937
 7965TIP3   OH245309   3.735   6.180  15.226 -0.1653 -0.2171 -0.1251
 7965TIP3    H145310   3.684   6.104  15.255 -1.2844  0.3382 -0.5865
 7965TIP3    H245311   3.813   6.178  15.281 -0.6288 -1.1540  0.5349
 7966TIP3   OH245312   5.720   6.039  16.497  0.5165  0.5007  0.0404
 7966TIP3    H145313   5.662   5.972  16.535  0.4445  0.1599 -0.6572
 7966TIP3    H245314   5.756   6.085  16.573  1.0594 -0.7358  0.5583
 7967TIP3   OH245315   2.996   0.973  14.212 -0.0794 -0.3706 -0.0273
 7967TIP3    H145316   2.997   1.039  14.281 -1.3297  0.0433 -0.3750
 7967TIP3    H245317   2.903   0.957  14.196  0.1066  0.8038 -2.7953
 7968TIP3   OH245318   6.425   1.188   0.964 -0.0119 -0.0186  0.4527
 7968TIP3    H145319   6.513   1.182   1.000 -0.8200 -1.9090  2.3380
 7968TIP3    H245320   6.415   1.106   0.915 -0.9653 -0.1887  0.9146
 7969TIP3   OH245321   1.502   5.971  12.480 -0.3757 -0.4513 -0.0756
 7969TIP3    H145322   1.507   5.875  12.471 -0.1640 -0.4335 -0.1599
 7969TIP3    H245323   1.450   5.985  12.559 -0.8873 -0.6313 -0.3758
 7970TIP3   OH245324   1.720   1.352  13.574 -0.3272 -0.1567  0.4426
 7970TIP3    H145325   1.769   1.283  13.619  0.5299 -1.0624 -1.7472
 7970TIP3    H245326   1.661   1.304  13.515  0.0214  0.9545 -0.8639
 7971TIP3   OH245327   6.433   1.498   0.494 -0.0952 -0.2597 -0.4535
 7971TIP3    H145328   6.358   1.496   0.435 -0.9792 -0.2932  0.6366
 7971TIP3    H245329   6.425   1.417   0.545  2.7163 -2.1679 -2.7000
 7972TIP3   OH245330   4.456   1.733  16.051 -0.1239 -0.2421  0.2963
 7972TIP3    H145331   4.479   1.792  15.979 -0.7894  0.6883  0.8164
 7972TIP3    H245332   4.498   1.650  16.029  2.1534  0.8321  0.2729
 7973TIP3   OH245333   6.400   1.785  11.688 -0.6670 -0.0359 -0.4076
 7973TIP3    H145334   6.368   1.719  11.626 -2.1797  0.5373 -0.2888
 7973TIP3    H245335   6.354   1.765  11.770  0.9719 -0.5073  0.4304
 7974TIP3   OH245336   6.533   0.422  12.742 -0.1007  0.4313 -0.1203
 7974TIP3    H145337   6.581   0.415  12.659  0.0839  4.0407 -0.4991
 7974TIP3    H245338   6.541   0.335  12.781  4.0029 -0.1513 -1.6623
 7975TIP3   OH245339   1.125   4.677   3.323 -0.3260  0.3576 -0.0235
 7975TIP3    H145340   1.161   4.750   3.272 -0.0416 -0.1282 -0.5218
 7975TIP3    H245341   1.038   4.707   3.349 -0.3025  0.7866 -0.4223
 7976TIP3   OH245342   6.632   5.565  10.832 -0.4168  0.2653  0.9127
 7976TIP3    H145343   6.690   5.499  10.870 -0.8133 -1.1588 -0.7959
 7976TIP3    H245344   6.690   5.636  10.804  0.1509  0.1577  1.8074
 7977TIP3   OH245345   5.969   2.229   1.013 -0.3376 -0.2325 -0.4205
 7977TIP3    H145346   5.971   2.310   0.962 -1.7587  0.5544  0.7135
 7977TIP3    H245347   6.061   2.212   1.036 -0.0134  0.9816 -0.7640
 7978TIP3   OH245348   4.690   3.885   2.932 -0.1125  0.0180  0.0058
 7978TIP3    H145349   4.688   3.877   2.837 -1.1668  1.5152 -0.1250
 7978TIP3    H245350   4.603   3.916   2.956  0.3722  0.3896  1.3843
 7979TIP3   OH245351   6.760   1.157  15.682 -0.0161 -0.0830  0.2409
 7979TIP3    H145352   6.706   1.184  15.756 -2.9644 -0.4989 -1.6253
 7979TIP3    H245353   6.769   1.236  15.629  0.0723 -0.3380 -0.1247
 7980TIP3   OH245354   4.132   2.199  15.796  0.1580  0.3802 -0.5385
 7980TIP3    H145355   4.061   2.236  15.849  0.3298 -0.3649  0.2380
 7980TIP3    H245356   4.104   2.212  15.705 -1.2922 -0.4768 -0.2467
 7981TIP3   OH245357   1.977   5.431   2.599  0.3927 -0.3038 -0.4507
 7981TIP3    H145358   1.894   5.399   2.636 -0.4735  1.0800 -1.1312
 7981TIP3    H245359   2.035   5.438   2.674 -0.2135 -0.9371  0.0994
 7982TIP3   OH245360   1.020   5.826   3.402 -0.1012 -1.0406  0.1074
 7982TIP3    H145361   1.071   5.850   3.479  2.1884 -2.8302 -0.7236
 7982TIP3    H245362   0.970   5.750   3.430 -0.8842 -0.4356  0.3824
 7983TIP3   OH245363   5.492   2.374   5.667 -0.2664  0.1684  0.5481
 7983TIP3    H145364   5.554   2.438   5.700 -1.6763  2.0589 -0.2800
 7983TIP3    H245365   5.407   2.419   5.667 -1.2391 -1.5090 -0.5830
 7984TIP3   OH245366   1.301   3.369  14.672  0.1682 -0.4071 -0.5267
 7984TIP3    H145367   1.314   3.327  14.756  1.7784 -0.8727 -0.9839
 7984TIP3    H245368   1.342   3.455  14.682  0.2074 -0.3961 -0.7881
 7985TIP3   OH245369   2.575   0.749   2.972 -0.5374 -0.5559  0.3363
 7985TIP3    H145370   2.527   0.731   3.053 -1.7315  0.1881 -0.1600
 7985TIP3    H245371   2.569   0.668   2.922  0.6279 -1.1821  1.1687
 7986TIP3   OH245372   1.887   0.082  11.964 -0.3372  0.2486 -0.1544
 7986TIP3    H145373   1.812   0.095  11.906 -0.3144  1.0543 -0.0197
 7986TIP3    H245374   1.882   0.154  12.026 -1.8090 -1.9491  2.5055
 7987TIP3   OH245375   1.932   3.119   0.464  0.1233  0.3632 -0.0143
 7987TIP3    H145376   1.928   3.139   0.557  0.8642  0.0953  0.0869
 7987TIP3    H245377   1.841   3.122   0.434 -0.2648 -0.7045  0.9690
 7988TIP3   OH245378   3.194   1.440   4.883  0.2839  0.1427  0.2631
 7988TIP3    H145379   3.204   1.471   4.974 -0.7939  0.3570  0.3159
 7988TIP3    H245380   3.109   1.474   4.855  1.3530  1.6062 -1.4478
 7989TIP3   OH245381   0.172   3.687  12.399 -0.6448  0.6289  0.4287
 7989TIP3    H145382   0.107   3.756  12.392 -0.6063  0.8003  1.5614
 7989TIP3    H245383   0.204   3.693  12.489  3.4874  2.8836 -0.9135
 7990TIP3   OH245384   3.517   1.731  17.057  0.5149 -0.4691 -0.5837
 7990TIP3    H145385   3.591   1.755  17.113  0.4135 -1.4733 -0.0087
 7990TIP3    H245386   3.458   1.683  17.114 -0.2471 -0.3204 -1.2244
 7991TIP3   OH245387   2.385   2.980  16.417  0.2495 -0.0181 -0.3293
 7991TIP3    H145388   2.376   3.071  16.445  0.2152 -0.0453 -0.2512
 7991TIP3    H245389   2.308   2.935  16.453 -0.2207  0.1108 -1.1607
 7992TIP3   OH245390   3.521   1.557  15.530 -0.2013  0.2532  0.4663
 7992TIP3    H145391   3.541   1.627  15.591  0.0875  0.1170  0.5313
 7992TIP3    H245392   3.506   1.601  15.446  2.2326  0.2444 -0.0389
 7993TIP3   OH245393   3.083   1.432  16.458 -0.3840  0.2834  0.1727
 7993TIP3    H145394   3.032   1.382  16.394  1.0188 -0.6490 -0.2531
 7993TIP3    H245395   3.145   1.369  16.494  1.3276  1.6652 -0.2573
 7994TIP3   OH245396   3.069   6.530  14.137  0.0148 -0.2470 -0.2479
 7994TIP3    H145397   3.100   6.545  14.226 -0.2167 -0.5948 -0.1068
 7994TIP3    H245398   3.070   6.435  14.126 -1.4134 -0.3173 -0.0677
 7995TIP3   OH245399   1.344   1.603  13.585  0.5585  0.2833 -0.6865
 7995TIP3    H145400   1.350   1.538  13.654 -0.2314  1.1408  0.2322
 7995TIP3    H245401   1.255   1.638  13.593  0.7044  0.9274 -1.6608
 7996TIP3   OH245402   5.175   3.982  14.999  0.2100  0.4790 -0.0475
 7996TIP3    H145403   5.259   3.955  15.036 -0.0948  0.5695  0.7457
 7996TIP3    H245404   5.155   4.065  15.042 -0.7864 -0.0692  0.6003
 7997TIP3   OH245405   0.771   5.453   0.646  0.5714  0.7109  0.0552
 7997TIP3    H145406   0.824   5.385   0.605 -0.4930 -0.0447 -0.1094
 7997TIP3    H245407   0.696   5.406   0.682  0.1670  1.7150  0.5514
 7998TIP3   OH245408   0.363   5.184   2.143  0.0925 -0.3624  0.0131
 7998TIP3    H145409   0.448   5.193   2.186  0.4568  1.8664 -1.0054
 7998TIP3    H245410   0.357   5.091   2.120  1.9463 -0.6948  0.7088
 7999TIP3   OH245411   2.496   4.664  11.707 -1.5095  0.4708 -0.1862
 7999TIP3    H145412   2.427   4.652  11.641 -1.0853 -0.2375 -0.5137
 7999TIP3    H245413   2.473   4.746  11.751 -1.8875  0.8726 -1.1083
 8000TIP3   OH245414   0.923   3.123  15.997  0.0231 -0.2962 -0.3568
 8000TIP3    H145415   0.971   3.050  16.034  1.7055 -0.1810 -2.1518
 8000TIP3    H245416   0.982   3.161  15.932 -0.9252  2.4240  0.1970
 8001TIP3   OH245417   2.678   0.762  16.752  0.5553 -0.0007 -0.3255
 8001TIP3    H145418   2.760   0.714  16.765 -0.3469 -1.0862  1.8898
 8001TIP3    H245419   2.619   0.728  16.819 -0.7701  2.8793  0.1343
 8002TIP3   OH245420   4.180   4.646   1.995  0.2243 -0.4551 -0.4776
 8002TIP3    H145421   4.118   4.683   1.934  0.2955 -0.6129 -0.6474
 8002TIP3    H245422   4.204   4.561   1.957 -1.5471 -1.6808  0.9259
 8003TIP3   OH245423   6.156   5.280  14.791 -0.4293  0.1684 -0.0294
 8003TIP3    H145424   6.190   5.323  14.870 -1.9582  1.7581 -0.1701
 8003TIP3    H245425   6.061   5.276  14.805 -0.5721 -0.8446 -1.1756
 8004TIP3   OH245426   1.405   3.891  14.918 -0.1463 -0.0590  0.4414
 8004TIP3    H145427   1.439   3.939  14.993 -2.0305 -0.6965  1.7679
 8004TIP3    H245428   1.437   3.802  14.929 -3.2869 -1.1055  2.6293
 8005TIP3   OH245429   3.062   5.811   2.102  0.3137  0.3111 -0.1371
 8005TIP3    H145430   3.002   5.851   2.039  2.2024  0.1386 -2.1803
 8005TIP3    H245431   3.113   5.885   2.137 -0.5412  0.3722  1.0230
 8006TIP3   OH245432   5.151   2.152  16.131 -0.1037  0.0668 -0.5197
 8006TIP3    H145433   5.139   2.222  16.195  1.7810 -0.8996  0.9914
 8006TIP3    H245434   5.088   2.084  16.157 -0.2357  0.1973 -0.4963
 8007TIP3   OH245435   0.123   4.456   0.565 -0.4925 -0.2623  0.4195
 8007TIP3    H145436   0.087   4.486   0.482  1.2088 -0.3251 -0.3849
 8007TIP3    H245437   0.079   4.510   0.631 -1.4534  0.1771 -0.5548
 8008TIP3   OH245438   3.386   2.371   5.697 -0.2562  0.5147  0.0210
 8008TIP3    H145439   3.300   2.336   5.721  0.8952 -1.9244  0.8961
 8008TIP3    H245440   3.432   2.382   5.780  0.9998 -0.2821 -0.5382
 8009TIP3   OH245441   6.552   0.534  10.528 -0.2405  0.6201  0.0997
 8009TIP3    H145442   6.515   0.450  10.501  1.3284 -0.2810  0.5765
 8009TIP3    H245443   6.479   0.595  10.525 -1.2503 -0.5895 -1.0215
 8010TIP3   OH245444   2.928   3.845  17.106  0.0340 -0.1145 -0.3734
 8010TIP3    H145445   2.977   3.889  17.176 -1.0928 -0.4948  0.6971
 8010TIP3    H245446   2.850   3.899  17.094  0.4816  0.2660 -1.7797
 8011TIP3   OH245447   5.001   6.718  13.988  0.3650 -0.1186 -0.2338
 8011TIP3    H145448   5.005   6.685  14.078 -0.6323  0.5528  0.0741
 8011TIP3    H245449   5.092   6.732  13.964  0.6022  1.4084  1.3433
 8012TIP3   OH245450   1.443   4.065   3.577 -0.4698 -0.5271 -0.3919
 8012TIP3    H145451   1.459   4.157   3.557  0.6805 -0.4695  0.6954
 8012TIP3    H245452   1.380   4.068   3.650 -0.8220 -0.6171 -0.6915
 8013TIP3   OH245453   0.732   3.628  12.472 -0.2268  0.0321  0.4297
 8013TIP3    H145454   0.696   3.697  12.416  1.3238  0.1154 -0.5168
 8013TIP3    H245455   0.797   3.585  12.417  0.3278 -0.8143  1.7199
 8014TIP3   OH245456   1.237   2.648   2.995 -0.1747  0.1860 -0.1321
 8014TIP3    H145457   1.251   2.595   2.916  0.1008 -0.5397  0.3868
 8014TIP3    H245458   1.325   2.678   3.019 -0.4924  2.4151 -1.4137
 8015TIP3   OH245459   5.933   3.133  13.823  0.7288  0.2860 -0.1160
 8015TIP3    H145460   6.014   3.152  13.776  1.0241 -0.0014  0.2738
 8015TIP3    H245461   5.922   3.038  13.815  1.0857  0.1558  0.8802
 8016TIP3   OH245462   6.425   5.584  16.494 -0.8543 -0.3094  0.1858
 8016TIP3    H145463   6.505   5.606  16.447 -1.8932 -0.0993 -1.5620
 8016TIP3    H245464   6.363   5.651  16.469 -1.6168 -0.4933  1.4909
 8017TIP3   OH245465   1.056   0.024  14.318  0.0056  0.4310  0.8261
 8017TIP3    H145466   1.085  -0.065  14.338  0.9575  0.8728  1.4788
 8017TIP3    H245467   1.075   0.035  14.225  0.0661  0.0221  0.7880
 8018TIP3   OH245468   1.228   1.115   3.952  0.3603 -0.1415  0.6393
 8018TIP3    H145469   1.235   1.087   3.860 -1.9116 -1.9903  0.9264
 8018TIP3    H245470   1.190   1.040   3.997 -1.7511  1.8217  2.4306
 8019TIP3   OH245471   1.207   4.432   5.167  0.0205 -0.2488  0.1489
 8019TIP3    H145472   1.170   4.345   5.184 -0.0422 -0.2302  0.1059
 8019TIP3    H245473   1.225   4.433   5.073 -2.8712  0.8851 -0.5206
 8020TIP3   OH245474   5.374   2.102  14.909  0.2794 -0.4277 -0.1424
 8020TIP3    H145475   5.400   2.185  14.869 -1.1775  0.7050  1.1150
 8020TIP3    H245476   5.434   2.038  14.873  1.2990  1.1311 -1.3535
 8021TIP3   OH245477   4.580   2.829   1.508 -0.1598  0.2492  0.0761
 8021TIP3    H145478   4.504   2.772   1.499 -0.6028  0.2702  2.9135
 8021TIP3    H245479   4.544   2.918   1.503  0.0630  0.2963 -0.9828
 8022TIP3   OH245480   4.581   2.288  12.418  0.2010 -0.0830  0.3844
 8022TIP3    H145481   4.591   2.226  12.345  0.2116  0.1450  0.1923
 8022TIP3    H245482   4.515   2.247  12.474 -0.0795 -0.0853  0.0594
 8023TIP3   OH245483   0.208   0.804  13.375  0.6029 -0.5892  0.3690
 8023TIP3    H145484   0.122   0.762  13.385  1.2782 -1.9011  1.0350
 8023TIP3    H245485   0.196   0.892  13.408 -0.7381 -0.4071 -0.5128
 8024TIP3   OH245486   5.914   4.542  15.714  0.2168 -0.2095  0.4747
 8024TIP3    H145487   5.973   4.580  15.779 -0.2728  0.3540  0.5980
 8024TIP3    H245488   5.950   4.455  15.697  1.3684  0.2950  0.1861
 8025TIP3   OH245489   2.956   6.770   6.507 -0.1947 -0.3588  0.4816
 8025TIP3    H145490   2.953   6.808   6.595  0.1686 -0.7997  0.6913
 8025TIP3    H245491   2.916   6.836   6.451 -0.6832 -0.1854  1.0186
 8026TIP3   OH245492   0.721   0.518  13.137  0.0255 -0.4130 -0.1234
 8026TIP3    H145493   0.696   0.555  13.222  0.2373  0.6419 -0.5039
 8026TIP3    H245494   0.800   0.467  13.155  0.4718  0.3748  0.2092
 8027TIP3   OH245495   4.899   6.385  13.754 -0.4145  0.7049 -0.0656
 8027TIP3    H145496   4.846   6.426  13.823 -1.2796  1.3357 -1.0670
 8027TIP3    H245497   4.921   6.457  13.695 -0.0944  0.1012 -0.6941
 8028TIP3   OH245498   6.164   6.770  16.677 -0.3916 -0.3132 -0.1663
 8028TIP3    H145499   6.253   6.796  16.698 -1.1309  1.5704  0.9370
 8028TIP3    H245500   6.166   6.674  16.677  1.2101 -0.3404  1.8237
 8029TIP3   OH245501   2.332   0.240   1.299 -0.7007 -0.3890 -0.1706
 8029TIP3    H145502   2.320   0.326   1.339 -0.1660 -0.1789 -0.4480
 8029TIP3    H245503   2.398   0.197   1.352 -0.0644 -0.1478 -0.7534
 8030TIP3   OH245504   0.647   5.687  17.288 -0.4231  0.2932 -0.2222
 8030TIP3    H145505   0.556   5.682  17.319 -0.5735 -1.1843 -0.8226
 8030TIP3    H245506   0.668   5.780  17.290 -1.5036  0.5399  1.2096
 8031TIP3   OH245507   5.503   1.971  10.691 -0.6935  0.2132 -0.2668
 8031TIP3    H145508   5.592   1.980  10.657  0.1871 -1.1883  1.4675
 8031TIP3    H245509   5.477   2.061  10.713  0.1764  0.6813 -1.0565
 8032TIP3   OH245510   2.996   2.329   4.431  0.6763  0.3572  0.1628
 8032TIP3    H145511   2.928   2.265   4.453  0.3861  0.5434 -0.1631
 8032TIP3    H245512   3.074   2.277   4.414  1.0458  0.2432  2.0605
 8033TIP3   OH245513   6.137   4.439   1.652  0.3916 -0.3291 -0.0051
 8033TIP3    H145514   6.054   4.393   1.670  2.4258 -3.1728  3.3669
 8033TIP3    H245515   6.190   4.374   1.605  1.0561  1.2226 -1.5314
 8034TIP3   OH245516   2.193   5.391   2.423 -0.1767 -0.0848  0.3483
 8034TIP3    H145517   2.228   5.310   2.460 -1.8952 -1.0674 -0.0646
 8034TIP3    H245518   2.107   5.401   2.464 -0.5231  0.8399 -0.5593
 8035TIP3   OH245519   5.162   3.149   6.456  0.3298  0.0289  0.5085
 8035TIP3    H145520   5.137   3.058   6.442  0.5699 -0.1579  1.2609
 8035TIP3    H245521   5.255   3.153   6.433  0.1848  0.2099 -0.0582
 8036TIP3   OH245522   2.078   3.259  14.744  0.2362 -0.5733 -0.4206
 8036TIP3    H145523   2.162   3.214  14.742  0.3203 -0.4818  0.4402
 8036TIP3    H245524   2.100   3.352  14.744  0.2013 -0.5451  1.0434
 8037TIP3   OH245525   5.777   4.735  17.240  0.3377 -0.0590 -0.0981
 8037TIP3    H145526   5.758   4.690  17.322  1.3237 -1.3097 -0.5360
 8037TIP3    H245527   5.789   4.827  17.266  0.0230 -0.3208  1.0525
 8038TIP3   OH245528   1.367   5.544  13.541 -0.2394  0.1083 -0.3116
 8038TIP3    H145529   1.362   5.531  13.636 -0.2498 -0.8358 -0.4312
 8038TIP3    H245530   1.282   5.579  13.517  0.1339  1.3945  0.1721
 8039TIP3   OH245531   2.339   3.905  16.764  0.2365 -0.0704 -0.1485
 8039TIP3    H145532   2.253   3.942  16.784  1.0193  1.5919  0.3600
 8039TIP3    H245533   2.355   3.842  16.834 -1.4674 -2.0712 -1.4630
 8040TIP3   OH245534   1.566   2.730  16.750 -0.0688 -0.3497 -0.0263
 8040TIP3    H145535   1.591   2.672  16.678  0.5751 -0.5359  0.3366
 8040TIP3    H245536   1.603   2.689  16.828  2.0329  1.4434  0.0388
 8041TIP3   OH245537   1.611   1.560  15.719  0.8067 -0.1555  0.0067
 8041TIP3    H145538   1.659   1.556  15.636  1.9985 -0.0284  0.6803
 8041TIP3    H245539   1.584   1.652  15.726  1.7086  0.0889  0.3159
 8042TIP3   OH245540   0.657   3.972   4.598 -0.3123 -0.2066  0.0801
 8042TIP3    H145541   0.674   3.920   4.520 -0.8755  0.3331 -0.4176
 8042TIP3    H245542   0.744   3.993   4.632  0.0069  0.8274 -1.2792
 8043TIP3   OH245543   0.985   1.722   5.065  0.5567 -0.1071  1.0190
 8043TIP3    H145544   0.989   1.636   5.023  1.9182  1.2791 -1.9892
 8043TIP3    H245545   0.895   1.751   5.053  0.4613 -0.5246  0.7196
 8044TIP3   OH245546   2.431   5.833   4.648  0.2688  0.2738  0.3773
 8044TIP3    H145547   2.520   5.802   4.667 -0.1888 -1.7902 -0.5747
 8044TIP3    H245548   2.437   5.869   4.560 -0.1828 -1.7080 -0.5280
 8045TIP3   OH245549   2.888   1.587   3.193  0.0030 -0.3129 -0.0779
 8045TIP3    H145550   2.922   1.498   3.180 -0.7840 -0.7298  0.6368
 8045TIP3    H245551   2.849   1.611   3.109  1.8683  0.1173 -0.8771
 8046TIP3   OH245552   3.560   0.892  14.155  0.8339 -0.1259  0.2680
 8046TIP3    H145553   3.586   0.984  14.152 -0.0646  0.1273 -0.1023
 8046TIP3    H245554   3.468   0.894  14.183  0.9521 -0.9433  0.7713
 8047TIP3   OH245555   1.011   4.490  16.122  0.6860 -0.0740 -0.0382
 8047TIP3    H145556   1.071   4.417  16.135 -1.2733 -1.8241 -0.1152
 8047TIP3    H245557   0.999   4.527  16.209  0.0863 -1.2599  0.4114
 8048TIP3   OH245558   4.881   3.949   3.595  0.4424 -0.0381  0.1682
 8048TIP3    H145559   4.903   3.894   3.670 -1.0428 -0.7906  0.0794
 8048TIP3    H245560   4.912   3.900   3.519  0.8116  0.1382  0.2022
 8049TIP3   OH245561   5.544   4.168   0.235 -0.0137  0.4995  0.1206
 8049TIP3    H145562   5.574   4.257   0.217  1.3657  0.2044  0.7809
 8049TIP3    H245563   5.553   4.122   0.151 -0.6788  0.9629 -0.2088
 8050TIP3   OH245564   4.361   2.451   5.644 -0.4987  0.6503 -0.4103
 8050TIP3    H145565   4.303   2.486   5.712 -0.1478 -0.1030  0.2894
 8050TIP3    H245566   4.334   2.497   5.564 -1.0711  1.3809  0.1855
 8051TIP3   OH245567   0.109   3.301  16.857 -0.3483  0.1829 -0.2888
 8051TIP3    H145568   0.138   3.211  16.874  2.5237  0.7790 -1.5142
 8051TIP3    H245569   0.168   3.356  16.910  0.4792  1.4502 -2.3888
 8052TIP3   OH245570   4.975   6.756  15.527  0.6040 -0.7154  0.3458
 8052TIP3    H145571   4.954   6.728  15.438 -1.2711  0.9952  0.1770
 8052TIP3    H245572   5.015   6.679  15.567 -0.4287 -2.2178 -1.3219
 8053TIP3   OH245573   0.233   0.451  11.129 -0.2816  0.1092  0.2330
 8053TIP3    H145574   0.277   0.380  11.177  4.2105  1.8523 -0.7449
 8053TIP3    H245575   0.198   0.409  11.050 -0.8883 -1.5191  1.3160
 8054TIP3   OH245576   5.809   2.356  14.565  0.4616 -0.0113  0.0688
 8054TIP3    H145577   5.826   2.267  14.536 -0.0268  0.3627 -1.5039
 8054TIP3    H245578   5.894   2.400  14.559  0.6305 -0.2833  0.4947
 8055TIP3   OH245579   1.793   5.542   4.563  0.0048 -0.4326 -0.1388
 8055TIP3    H145580   1.817   5.551   4.655  0.4792 -0.3145 -0.2728
 8055TIP3    H245581   1.846   5.468   4.532 -0.7001 -0.9466 -0.1287
 8056TIP3   OH245582   2.882   0.401   2.395 -0.5379  0.1442 -0.2611
 8056TIP3    H145583   2.970   0.413   2.360 -0.7753  2.3199 -0.2814
 8056TIP3    H245584   2.830   0.371   2.320 -0.0863  0.1799 -0.5893
 8057TIP3   OH245585   4.319   4.912   2.706  0.4141  0.2678  0.1006
 8057TIP3    H145586   4.383   4.917   2.635  0.8377  0.4592  0.4989
 8057TIP3    H245587   4.255   4.980   2.684 -0.2391 -0.6258 -0.8616
 8058TIP3   OH245588   5.200   0.687   4.702 -0.2771  0.2929 -0.4514
 8058TIP3    H145589   5.108   0.672   4.725 -0.0848 -0.0131  0.1497
 8058TIP3    H245590   5.234   0.600   4.680  0.1540  0.2227  0.4395
 8059TIP3   OH245591   3.170   4.727   0.686  0.1345  0.0658 -0.0986
 8059TIP3    H145592   3.117   4.656   0.651  0.8617 -0.1764 -0.7432
 8059TIP3    H245593   3.212   4.765   0.609 -0.5484  1.4651  0.1757
 8060TIP3   OH245594   4.452   5.904  16.411 -0.2774  0.0277  0.0016
 8060TIP3    H145595   4.511   5.927  16.340  0.2226 -0.5503  0.2167
 8060TIP3    H245596   4.453   5.808  16.413 -0.0582  0.0348  0.9599
 8061TIP3   OH245597   4.030   4.169  13.240 -0.2624 -0.2104  0.0262
 8061TIP3    H145598   3.937   4.147  13.243 -0.1754 -0.6454 -0.2689
 8061TIP3    H245599   4.055   4.153  13.149 -0.2190  1.2658 -0.2491
 8062TIP3   OH245600   6.662   1.802  13.961 -0.1404  0.4261 -0.0557
 8062TIP3    H145601   6.663   1.811  14.056 -0.3576  0.9554 -0.1034
 8062TIP3    H245602   6.725   1.868  13.930 -1.0003  1.1268 -0.3476
 8063TIP3   OH245603   3.407   5.482   5.423 -0.9545  0.1622  0.1559
 8063TIP3    H145604   3.483   5.436   5.389 -0.7184 -0.0252  0.9252
 8063TIP3    H245605   3.438   5.572   5.436 -1.1690  0.3409 -0.5210
 8064TIP3   OH245606   1.091   4.882   2.239  0.2618 -0.0045 -0.1716
 8064TIP3    H145607   1.054   4.798   2.267  2.0714 -1.2733 -1.3555
 8064TIP3    H245608   1.138   4.913   2.317 -1.1116  0.3756  0.5399
 8065TIP3   OH245609   1.204   0.518  10.738  0.0869 -0.2243  0.0635
 8065TIP3    H145610   1.254   0.468  10.674 -0.5789 -0.4328 -0.3040
 8065TIP3    H245611   1.114   0.513  10.707 -0.2523 -0.3489  1.0343
 8066TIP3   OH245612   5.691   0.765  17.201  0.2316 -0.1870  0.3585
 8066TIP3    H145613   5.699   0.860  17.192  1.1569 -0.3315 -0.5268
 8066TIP3    H245614   5.686   0.751  17.296  1.9732  0.6339  0.6239
 8067TIP3   OH245615   6.773   1.477   5.158 -0.2192 -0.0187 -0.0715
 8067TIP3    H145616   6.853   1.437   5.192 -0.4931  1.1736  2.1182
 8067TIP3    H245617   6.720   1.404   5.127  0.9348 -0.9762  0.1669
 8068TIP3   OH245618   4.928   4.566  16.583 -0.2256  0.7111 -0.5329
 8068TIP3    H145619   4.900   4.648  16.624 -1.1830  0.2684 -0.2809
 8068TIP3    H245620   4.984   4.594  16.510 -0.0205  1.5603 -0.0663
 8069TIP3   OH245621   6.569   3.903   1.679  0.2035  0.0474  0.1256
 8069TIP3    H145622   6.579   3.955   1.599 -2.5670  2.0306  0.9288
 8069TIP3    H245623   6.511   3.831   1.653 -1.0912  0.9615  0.3943
 8070TIP3   OH245624   6.428   3.526  12.979 -0.7684  0.2318 -0.1200
 8070TIP3    H145625   6.502   3.581  12.955  0.8357 -1.5667  0.4006
 8070TIP3    H245626   6.388   3.500  12.896  0.6260 -0.6154 -0.5521
 8071TIP3   OH245627   2.048   1.307   0.473 -0.1680  0.5089  0.0235
 8071TIP3    H145628   2.071   1.214   0.473  0.4721  0.6551  0.9369
 8071TIP3    H245629   2.110   1.347   0.534 -1.4388  1.2889  0.8414
 8072TIP3   OH245630   5.978   6.546   3.944  0.1260  0.0683  0.1259
 8072TIP3    H145631   5.997   6.582   4.031  1.3018 -2.3909  0.9676
 8072TIP3    H245632   5.898   6.495   3.956  1.8021 -2.6272  0.5786
 8073TIP3   OH245633   0.493   1.351  12.115 -0.1801 -0.1491  0.3916
 8073TIP3    H145634   0.494   1.397  12.199  0.0436 -0.5875  0.6270
 8073TIP3    H245635   0.408   1.307  12.112  0.2335 -0.9921  0.8532
 8074TIP3   OH245636   2.239   4.736   3.377  0.5469 -0.3115 -0.2603
 8074TIP3    H145637   2.305   4.802   3.359  1.9983 -1.3000  1.1761
 8074TIP3    H245638   2.180   4.739   3.302  0.8258  2.2602 -0.4524
 8075TIP3   OH245639   4.992   5.345   3.013 -0.5606  0.3031 -0.4387
 8075TIP3    H145640   4.904   5.310   2.994 -0.0078 -1.9150  0.7169
 8075TIP3    H245641   5.001   5.420   2.954 -3.6876  1.3903  0.2781
 8076TIP3   OH245642   0.241   4.529   0.861 -0.0525  0.0169 -0.6397
 8076TIP3    H145643   0.162   4.582   0.873 -1.1280 -1.4739 -0.7902
 8076TIP3    H245644   0.292   4.576   0.795 -0.1010  1.7513  0.4789
 8077TIP3   OH245645   1.214   5.047  16.661 -0.0125  0.2229  0.1758
 8077TIP3    H145646   1.297   5.004  16.643 -0.8193 -0.4112 -2.4924
 8077TIP3    H245647   1.235   5.141  16.659  0.7562  0.0580  0.2734
 8078TIP3   OH245648   6.093   0.921  11.191  0.2285  0.3858 -0.0925
 8078TIP3    H145649   6.009   0.891  11.155 -0.1271  2.4345 -1.1037
 8078TIP3    H245650   6.085   0.906  11.285 -2.3058  2.7277  0.1783
 8079TIP3   OH245651   4.952   4.567   2.228  0.4741  0.0210  0.1173
 8079TIP3    H145652   4.896   4.595   2.301 -1.9614 -2.4938 -0.6107
 8079TIP3    H245653   5.038   4.551   2.269 -0.7913 -1.2849  2.5173
 8080TIP3   OH245654   2.171   5.005  15.645 -0.3149  0.0086  0.3535
 8080TIP3    H145655   2.193   4.915  15.620  0.8236 -0.0393  1.4141
 8080TIP3    H245656   2.076   5.004  15.656 -0.6068 -0.4750 -1.8019
 8081TIP3   OH245657   1.882   2.730  16.044 -0.0875  0.0275 -0.0272
 8081TIP3    H145658   1.972   2.760  16.061  0.1100 -0.5680  0.0040
 8081TIP3    H245659   1.886   2.687  15.959 -0.5419  0.7663 -0.4414
 8082TIP3   OH245660   0.599   4.111   6.572 -0.0347  0.1045  0.4952
 8082TIP3    H145661   0.645   4.031   6.600  0.0624  0.4856  1.4439
 8082TIP3    H245662   0.649   4.141   6.496  0.2565 -0.4346  0.4663
 8083TIP3   OH245663   4.945   5.900  13.074 -0.4701 -0.6917 -0.3291
 8083TIP3    H145664   4.983   5.833  13.130  1.1906  0.7905  0.4273
 8083TIP3    H245665   5.016   5.925  13.014 -0.4366  1.4858  0.4920
 8084TIP3   OH245666   5.587   2.862  14.316 -0.0618 -0.1126  0.0638
 8084TIP3    H145667   5.597   2.815  14.399 -1.0718 -1.1254 -0.3566
 8084TIP3    H245668   5.624   2.948  14.332  0.6963 -0.6378  1.2564
 8085TIP3   OH245669   2.277   4.768  12.272  0.3738 -0.5359 -0.0433
 8085TIP3    H145670   2.362   4.766  12.316  0.3615  0.9406  0.1250
 8085TIP3    H245671   2.214   4.751  12.342  0.4820 -0.7485  0.0035
 8086TIP3   OH245672   4.385   4.252   1.488 -0.5657 -0.8882  0.3315
 8086TIP3    H145673   4.387   4.174   1.432  0.5467 -0.3483 -0.4310
 8086TIP3    H245674   4.466   4.246   1.539 -0.6299 -0.3939  0.4892
 8087TIP3   OH245675   2.915   2.110   6.126  0.3368  0.1679 -0.0556
 8087TIP3    H145676   2.908   2.088   6.033  0.4145  1.3106 -0.3420
 8087TIP3    H245677   2.896   2.203   6.130  1.1781  0.3137  0.9624
 8088TIP3   OH245678   3.629   4.759   3.932 -0.3432  0.8921  0.0829
 8088TIP3    H145679   3.651   4.818   4.005 -1.0349 -0.8263  1.7755
 8088TIP3    H245680   3.712   4.744   3.888  0.3990  0.8199  1.4419
 8089TIP3   OH245681   2.443   3.015  13.499  0.1042  0.0476 -0.4727
 8089TIP3    H145682   2.390   2.935  13.498  1.2211 -0.7230 -0.3427
 8089TIP3    H245683   2.529   2.986  13.470  0.4043  1.3112 -0.8713
 8090TIP3   OH245684   3.676   6.576  11.581  0.1638  0.6531 -0.0444
 8090TIP3    H145685   3.644   6.610  11.498  0.3845 -0.5591 -0.6526
 8090TIP3    H245686   3.771   6.585  11.575  0.1126  1.6631  0.5808
 8091TIP3   OH245687   5.316   1.554   5.042  0.0654  0.0587 -0.0674
 8091TIP3    H145688   5.311   1.631   4.985  0.6233 -0.1209 -0.3720
 8091TIP3    H245689   5.378   1.578   5.111 -1.9809  0.9476  1.5635
 8092TIP3   OH245690   3.587   1.962  16.593 -0.3246  0.1365  0.2964
 8092TIP3    H145691   3.623   1.923  16.514 -0.4976  1.9564 -0.7350
 8092TIP3    H245692   3.505   1.916  16.607  0.3071 -1.0769  0.1799
 8093TIP3   OH245693   3.041   2.821  16.239  0.1996  0.1213  0.7440
 8093TIP3    H145694   3.020   2.796  16.149  2.0414  0.4807  0.1754
 8093TIP3    H245695   2.959   2.810  16.287 -0.3402 -2.0414 -0.5452
 8094TIP3   OH245696   4.402   1.734   2.924  0.8679  0.1073  0.1053
 8094TIP3    H145697   4.326   1.790   2.912  0.6215 -0.1929  0.2357
 8094TIP3    H245698   4.442   1.765   3.005  0.6867  0.0465  0.2193
 8095TIP3   OH245699   3.669   1.796  17.270  0.2371 -0.0203  0.2835
 8095TIP3    H145700   3.746   1.842  17.302  2.3382 -1.5798 -2.1336
 8095TIP3    H245701   3.660   1.721  17.329  0.0993  0.5444  0.9959
 8096TIP3   OH245702   0.451   5.979  14.037  0.1418  0.2666  0.3459
 8096TIP3    H145703   0.476   5.975  13.945 -0.6432  1.3566  0.0642
 8096TIP3    H245704   0.358   5.957  14.037 -0.1358  1.3975  0.7322
 8097TIP3   OH245705   6.080   3.987  14.300 -0.5392 -0.0249  0.3968
 8097TIP3    H145706   6.170   3.991  14.332 -0.2959  1.2338 -0.3899
 8097TIP3    H245707   6.075   4.055  14.233 -1.4075 -1.6927 -1.3130
 8098TIP3   OH245708   5.200   2.461  12.469 -0.7973  0.2022 -0.0150
 8098TIP3    H145709   5.260   2.435  12.399 -0.7052  0.7999 -0.1584
 8098TIP3    H245710   5.130   2.508  12.425 -0.4517  1.0745  0.3563
 8099TIP3   OH245711   1.483   1.203   2.337  0.1051  0.1342 -0.2848
 8099TIP3    H145712   1.435   1.122   2.348  0.7817 -0.3040 -0.5041
 8099TIP3    H245713   1.421   1.272   2.362 -0.4692 -0.4450 -0.1059
 8100TIP3   OH245714   0.384   5.333   1.834 -0.0865  0.9754 -0.5421
 8100TIP3    H145715   0.464   5.282   1.837 -0.6059  0.0943 -1.2463
 8100TIP3    H245716   0.393   5.388   1.756 -0.6642 -0.0067 -1.3284
 8101TIP3   OH245717   1.739   1.361   1.947  0.0581  0.2279  0.3351
 8101TIP3    H145718   1.655   1.332   1.982 -0.0116 -1.7682 -1.3079
 8101TIP3    H245719   1.800   1.353   2.021 -0.4236 -2.1969  0.5426
 8102TIP3   OH245720   6.287   6.333   2.158 -0.5771 -0.2780  0.3738
 8102TIP3    H145721   6.257   6.266   2.220 -0.0694  0.2508  1.2260
 8102TIP3    H245722   6.303   6.410   2.213 -1.3421  0.6175 -0.6081
 8103TIP3   OH245723   0.801   1.481   1.141  0.1500  0.0129 -0.1822
 8103TIP3    H145724   0.714   1.499   1.108 -0.7889 -1.4780  1.3399
 8103TIP3    H245725   0.842   1.567   1.149 -1.5179  0.8323 -0.0475
 8104TIP3   OH245726   3.024   4.085   0.735 -0.1411 -0.1561  0.6594
 8104TIP3    H145727   2.961   4.146   0.773 -1.8492 -1.4079 -0.0346
 8104TIP3    H245728   3.087   4.141   0.690 -1.1025  1.1327  0.8485
 8105TIP3   OH245729   0.162   5.289  13.847  0.1861 -0.2313 -0.1889
 8105TIP3    H145730   0.097   5.284  13.917  0.5533 -0.3555  0.1491
 8105TIP3    H245731   0.112   5.311  13.769 -0.0829  1.0682  0.3288
 8106TIP3   OH245732   0.327   3.110  10.845  0.4252 -0.8014  0.5543
 8106TIP3    H145733   0.270   3.099  10.921  1.9902 -1.2150  1.7506
 8106TIP3    H245734   0.329   3.023  10.804 -0.0362 -0.7067  0.3293
 8107TIP3   OH245735   0.538   1.646  14.572  0.1946  0.3681 -0.4052
 8107TIP3    H145736   0.445   1.661  14.585  0.2326  0.9828 -0.8093
 8107TIP3    H245737   0.542   1.572  14.512 -0.0135 -0.3074  0.3973
 8108TIP3   OH245738   0.046   4.889   6.078  0.8726 -0.6625 -0.1528
 8108TIP3    H145739  -0.025   4.952   6.062  0.2699 -0.8724  1.5098
 8108TIP3    H245740   0.107   4.903   6.006 -0.6896 -0.2337 -1.4627
 8109TIP3   OH245741   5.954   3.499   2.433 -0.2489  0.0387 -0.1383
 8109TIP3    H145742   5.995   3.474   2.515 -0.4655 -0.0335 -0.0523
 8109TIP3    H245743   5.992   3.584   2.412  0.5610 -0.3938 -0.4758
 8110TIP3   OH245744   4.560   0.202  12.443  0.2765 -0.1433  0.1543
 8110TIP3    H145745   4.493   0.225  12.507  0.4168  3.5745 -0.8183
 8110TIP3    H245746   4.643   0.210  12.490  0.3571  2.2325 -0.2873
 8111TIP3   OH245747   4.023   5.704  14.619  0.1437  0.1093 -0.2414
 8111TIP3    H145748   4.061   5.757  14.549  2.4989 -2.3950 -1.0493
 8111TIP3    H245749   4.031   5.758  14.697 -1.5454  2.5504 -1.6146
 8112TIP3   OH245750   0.022   2.276  13.794  0.0542 -0.0433 -0.0686
 8112TIP3    H145751   0.093   2.288  13.732  2.7063 -1.1989  2.5251
 8112TIP3    H245752  -0.007   2.186  13.780  0.0367 -0.0172 -0.2054
 8113TIP3   OH245753   1.150   0.010  14.065  0.0533  1.0069 -0.2125
 8113TIP3    H145754   1.145  -0.080  14.032 -2.0735  0.5196  1.2227
 8113TIP3    H245755   1.136   0.065  13.988  2.5782  0.2187 -1.3243
 8114TIP3   OH245756   0.991   0.047  11.185 -0.5480  0.6807  0.9120
 8114TIP3    H145757   1.040   0.066  11.265  0.9951 -0.0146  0.1842
 8114TIP3    H245758   1.009  -0.046  11.168 -1.1871  0.7180 -0.0106
 8115TIP3   OH245759   5.469   3.722   0.819  0.0429  0.0135 -0.2373
 8115TIP3    H145760   5.522   3.673   0.756 -0.4114 -0.6209 -0.1231
 8115TIP3    H245761   5.525   3.731   0.896  0.5693  0.7179 -0.6839
 8116TIP3   OH245762   3.083   3.995   4.554  0.8363  0.6850 -0.8853
 8116TIP3    H145763   3.026   3.999   4.477 -1.0189 -1.2651  0.2799
 8116TIP3    H245764   3.119   4.084   4.561  0.8607  1.0129 -3.7714
 8117TIP3   OH245765   2.468   2.505   3.662  0.0175  0.0518  0.4583
 8117TIP3    H145766   2.554   2.547   3.651  0.6780 -1.5767 -1.1434
 8117TIP3    H245767   2.405   2.570   3.629  0.6531  1.1066  1.2584
 8118TIP3   OH245768   3.886   0.813  13.768  1.2223  0.0576  0.3280
 8118TIP3    H145769   3.853   0.723  13.766 -4.2771  1.5819  2.7517
 8118TIP3    H245770   3.869   0.847  13.680  1.7544 -0.7826 -0.1086
 8119TIP3   OH245771   4.702   3.569   1.547  0.0732  0.1227  0.4389
 8119TIP3    H145772   4.633   3.541   1.607  0.0393 -1.0773 -0.1226
 8119TIP3    H245773   4.682   3.524   1.465  0.7552  0.8393 -0.1424
 8120TIP3   OH245774   0.010   5.867   0.029 -0.8441 -0.3255 -0.1616
 8120TIP3    H145775   0.067   5.898   0.099 -1.9523  0.1846  0.5340
 8120TIP3    H245776  -0.046   5.942   0.008 -2.3804 -1.2860  0.3253
 8121TIP3   OH245777   2.124   6.767  12.082 -0.1163  0.5091  0.1433
 8121TIP3    H145778   2.155   6.858  12.075 -0.4212  0.5028 -1.5565
 8121TIP3    H245779   2.044   6.765  12.031 -0.0128 -0.7737  0.0081
 8122TIP3   OH245780   2.510   3.874   1.079  0.3274 -0.3470 -0.1275
 8122TIP3    H145781   2.451   3.804   1.051  0.7288 -0.9025  0.4087
 8122TIP3    H245782   2.572   3.883   1.006  0.2531 -0.5276 -0.2141
 8123TIP3   OH245783   0.586   2.770   2.898  0.2436  0.9265  0.1691
 8123TIP3    H145784   0.677   2.742   2.901 -0.0536 -0.0203  1.0455
 8123TIP3    H245785   0.589   2.862   2.873  1.3039  0.2873 -2.2541
 8124TIP3   OH245786   6.091   6.090   3.151 -0.4697  0.0278  0.1636
 8124TIP3    H145787   6.186   6.087   3.137 -0.3792 -1.3265  0.8500
 8124TIP3    H245788   6.073   6.015   3.207 -1.9736  0.2108 -0.0275
 8125TIP3   OH245789   0.761   1.757  14.391  0.0541 -0.4101 -0.4307
 8125TIP3    H145790   0.854   1.753  14.413 -0.1104  1.2903  0.7800
 8125TIP3    H245791   0.719   1.781  14.473 -1.3225  0.0072 -1.2329
 8126TIP3   OH245792   0.712   6.635   0.406 -0.2042  0.3535  0.3571
 8126TIP3    H145793   0.634   6.668   0.451 -0.1477  1.4236 -0.3154
 8126TIP3    H245794   0.679   6.564   0.351 -1.0302  1.8855 -1.2172
 8127TIP3   OH245795   0.427   3.295   5.523  0.1879 -0.2945  0.4052
 8127TIP3    H145796   0.400   3.292   5.432  0.5236 -0.4447  0.3100
 8127TIP3    H245797   0.486   3.220   5.533  1.9093  0.9802  0.1791
 8128TIP3   OH245798   3.228   4.370  16.878 -0.4478 -0.6303  0.1417
 8128TIP3    H145799   3.280   4.345  16.802 -0.8529 -0.0683 -0.3241
 8128TIP3    H245800   3.199   4.286  16.916 -0.3548 -0.9040 -0.3901
 8129TIP3   OH245801   6.361   5.854   1.783  0.2999  0.0389 -0.0733
 8129TIP3    H145802   6.304   5.922   1.748  1.6668  1.3342  0.1194
 8129TIP3    H245803   6.449   5.890   1.776  0.7509  0.2282  4.1708
 8130TIP3   OH245804   1.771   1.421  13.878 -0.0785  0.4160  0.1497
 8130TIP3    H145805   1.803   1.382  13.796  0.4338  1.6797 -0.2792
 8130TIP3    H245806   1.841   1.481  13.905 -1.0061  1.3435  0.5575
 8131TIP3   OH245807   4.201   4.796   3.720  0.0820  0.0556 -0.9987
 8131TIP3    H145808   4.173   4.744   3.645  0.1702  0.3212 -1.2186
 8131TIP3    H245809   4.173   4.746   3.797 -0.7233  0.1657 -1.2104
 8132TIP3   OH245810   1.851   5.967  16.869 -0.3994  0.1022 -0.7760
 8132TIP3    H145811   1.936   5.939  16.835  0.2282 -1.6009  1.8955
 8132TIP3    H245812   1.789   5.901  16.838 -0.0789 -0.6400  0.1058
 8133TIP3   OH245813   4.681   4.781   3.931  0.4314  0.2485 -0.6184
 8133TIP3    H145814   4.614   4.846   3.913  0.6273  0.5183 -0.3852
 8133TIP3    H245815   4.710   4.751   3.845 -1.8677 -1.8582 -0.7640
 8134TIP3   OH245816   6.344   5.265  12.049  0.4863 -0.0340 -0.7228
 8134TIP3    H145817   6.304   5.325  11.986  1.7241  0.7101 -0.8372
 8134TIP3    H245818   6.320   5.300  12.135  1.7448  1.0459 -0.7837
 8135TIP3   OH245819   5.318   2.640  14.441  0.3919 -0.3584 -0.5380
 8135TIP3    H145820   5.289   2.585  14.514 -1.4647  0.0120 -0.9499
 8135TIP3    H245821   5.374   2.582  14.389  0.9343 -0.9209  0.6226
 8136TIP3   OH245822   5.729   3.189   0.622 -0.9323  0.0034 -0.5129
 8136TIP3    H145823   5.688   3.276   0.626 -1.2823 -0.1987  0.7613
 8136TIP3    H245824   5.774   3.188   0.538  1.1989  2.3857  0.4896
 8137TIP3   OH245825   0.785   2.608   3.303 -0.7861  0.5303 -0.0722
 8137TIP3    H145826   0.754   2.674   3.366 -2.3016 -1.4795  1.4444
 8137TIP3    H245827   0.706   2.556   3.283  0.5809 -1.6294 -0.1517
 8138TIP3   OH245828   5.562   5.016  14.091  0.3057 -0.3372 -0.0176
 8138TIP3    H145829   5.547   5.063  14.173  2.2893 -1.1846  0.9123
 8138TIP3    H245830   5.621   5.073  14.041 -1.1602  0.3318 -1.0672
 8139TIP3   OH245831   5.037   5.420   0.774 -0.5722  0.1860  0.1290
 8139TIP3    H145832   5.058   5.473   0.851 -0.0247 -1.1305  0.9309
 8139TIP3    H245833   4.956   5.375   0.797 -0.8409  0.3960 -0.3941
 8140TIP3   OH245834   5.796   0.813   5.742 -0.3087 -0.3135  0.0942
 8140TIP3    H145835   5.842   0.859   5.671 -1.0365  0.5059  0.1438
 8140TIP3    H245836   5.837   0.845   5.822 -0.5819  0.0011  0.1116
 8141TIP3   OH245837   3.476   3.427   3.281 -0.3383 -0.6310  0.3066
 8141TIP3    H145838   3.491   3.452   3.372 -1.8604 -0.3633  0.5224
 8141TIP3    H245839   3.421   3.498   3.246  0.4873 -0.5721 -0.9206
 8142TIP3   OH245840   0.121   1.786  10.769 -0.0684  0.3228  0.0132
 8142TIP3    H145841   0.092   1.722  10.835  0.9591  0.1849  0.3472
 8142TIP3    H245842   0.110   1.871  10.812  0.6488  0.2301  0.3882
 8143TIP3   OH245843   4.827   5.043   5.544 -0.0211  0.1869 -0.5386
 8143TIP3    H145844   4.795   5.054   5.455 -0.6332 -1.0212 -0.4930
 8143TIP3    H245845   4.772   4.974   5.581 -0.2736  1.1546  1.0227
 8144TIP3   OH245846   0.040   1.501   3.166  0.3095 -0.2694  0.0843
 8144TIP3    H145847   0.126   1.538   3.185  0.5656 -1.0883  0.5924
 8144TIP3    H245848   0.028   1.433   3.232 -0.6354 -0.3157 -0.1181
 8145TIP3   OH245849   4.594   0.770  15.975  0.1746 -0.1653 -0.0198
 8145TIP3    H145850   4.673   0.817  15.947  0.8508  1.0451  3.3787
 8145TIP3    H245851   4.627   0.687  16.011  0.3266  1.1953  3.3135
 8146TIP3   OH245852   1.785   2.997   1.483  0.3194  0.4356  0.0011
 8146TIP3    H145853   1.865   3.016   1.532 -0.2996 -2.2268  2.3017
 8146TIP3    H245854   1.810   2.928   1.422 -0.6279 -2.5066  2.6883
 8147TIP3   OH245855   4.072   2.661  15.786 -0.1596  0.0490  0.2928
 8147TIP3    H145856   3.978   2.645  15.790 -0.2260  0.0698 -0.8929
 8147TIP3    H245857   4.100   2.622  15.703  1.0112 -0.6006  0.9631
 8148TIP3   OH245858   1.454   6.480  12.231 -0.9881 -0.4572  0.0928
 8148TIP3    H145859   1.382   6.484  12.169  0.1476  0.3914 -1.2432
 8148TIP3    H245860   1.494   6.394  12.216 -1.7856 -0.9971  0.9514
 8149TIP3   OH245861   3.201   1.589   4.268  0.2895  0.0227  0.3120
 8149TIP3    H145862   3.297   1.590   4.269  0.3384 -1.8583  1.0259
 8149TIP3    H245863   3.177   1.644   4.192  2.0238 -2.2989 -2.0972
 8150TIP3   OH245864   3.094   4.365   1.515  0.0647  0.4157  0.7796
 8150TIP3    H145865   3.095   4.278   1.474 -3.0697  0.4964  0.2459
 8150TIP3    H245866   3.065   4.348   1.605 -1.8562  0.9159  0.3105
 8151TIP3   OH245867   6.316   0.871   4.512  0.6312  0.5291  0.3863
 8151TIP3    H145868   6.268   0.864   4.594 -0.6425 -1.6313 -0.4754
 8151TIP3    H245869   6.406   0.893   4.538 -0.3445  2.8948  2.1282
 8152TIP3   OH245870   0.268   5.812  13.632 -0.4077  0.0630  0.0848
 8152TIP3    H145871   0.305   5.895  13.603  1.0500 -0.0925  1.3701
 8152TIP3    H245872   0.179   5.834  13.661 -0.5607  0.8825 -0.9571
 8153TIP3   OH245873   4.732   5.367   4.935  0.0830 -0.0741  0.2216
 8153TIP3    H145874   4.685   5.396   4.857 -0.7181 -1.9186 -0.0158
 8153TIP3    H245875   4.759   5.277   4.915  0.0216 -0.5170  2.0065
 8154TIP3   OH245876   5.527   5.619  12.685  0.0159  0.1836  0.7519
 8154TIP3    H145877   5.541   5.633  12.591  2.5126  1.2933  1.2117
 8154TIP3    H245878   5.562   5.698  12.727 -1.1666 -0.2275  2.6256
 8155TIP3   OH245879   3.903   5.698   2.028 -0.5838 -0.1148 -0.3977
 8155TIP3    H145880   3.855   5.716   1.947 -2.2412  2.2471  0.9804
 8155TIP3    H245881   3.844   5.641   2.078 -0.8174  0.6404  0.2150
 8156TIP3   OH245882   1.103   2.351  13.308 -0.3800 -0.1914  0.0383
 8156TIP3    H145883   1.121   2.389  13.221  1.1390 -2.0257 -0.5205
 8156TIP3    H245884   1.092   2.427  13.365  0.6663  1.0904 -1.3621
 8157TIP3   OH245885   4.903   3.153  11.846  0.1678 -0.1222  0.2891
 8157TIP3    H145886   4.934   3.145  11.756 -1.5193 -1.7379 -0.2236
 8157TIP3    H245887   4.928   3.241  11.873  5.6851 -1.3550  0.2684
 8158TIP3   OH245888   2.296   2.466   5.960  0.1716 -0.1126 -0.1409
 8158TIP3    H145889   2.208   2.493   5.933 -0.5284 -1.2497  0.9324
 8158TIP3    H245890   2.296   2.473   6.055  1.1121 -0.5102 -0.0941
 8159TIP3   OH245891   4.967   5.982  16.013 -0.1993  0.0853  0.4338
 8159TIP3    H145892   5.003   5.966  16.100 -0.7531  2.9697  1.3153
 8159TIP3    H245893   4.893   5.921  16.007  0.0455 -0.4034  1.8585
 8160TIP3   OH245894   0.699   4.532  11.572  0.9305  0.1040  0.2587
 8160TIP3    H145895   0.741   4.613  11.543  1.3275  0.8370  2.6225
 8160TIP3    H245896   0.769   4.467  11.575  1.0271  0.2063  0.2145
 8161TIP3   OH245897   1.054   5.743   2.982 -0.1021 -0.4897 -0.5399
 8161TIP3    H145898   0.971   5.759   3.026  0.2239 -0.9798  0.2819
 8161TIP3    H245899   1.038   5.668   2.925 -0.4826  0.0459 -1.1514
 8162TIP3   OH245900   2.116   1.499  16.727 -0.1544  0.0002  1.0949
 8162TIP3    H145901   2.061   1.434  16.769  0.3627 -0.7109  0.6876
 8162TIP3    H245902   2.187   1.449  16.686 -0.5040  0.6715 -0.4158
 8163TIP3   OH245903   0.203   6.748   1.048 -0.5623  0.5739 -0.0260
 8163TIP3    H145904   0.151   6.801   0.988 -0.1650 -1.7160 -2.6186
 8163TIP3    H245905   0.285   6.731   1.001 -1.8014 -4.7213 -0.9860
 8164TIP3   OH245906   1.747   6.282  11.101 -0.5624 -0.5785  0.1478
 8164TIP3    H145907   1.722   6.236  11.020  2.2849 -0.7896 -0.7309
 8164TIP3    H245908   1.721   6.373  11.085 -0.1880 -0.6441 -0.9598
 8165TIP3   OH245909   5.699   2.248   5.401 -0.4826 -0.3634 -0.0722
 8165TIP3    H145910   5.645   2.326   5.410 -1.2418 -0.8220 -0.5222
 8165TIP3    H245911   5.730   2.229   5.490  0.8683  1.2277 -0.1459
 8166TIP3   OH245912   0.192   1.481  14.659 -0.3428 -0.2930  0.3076
 8166TIP3    H145913   0.242   1.558  14.631  1.2291 -0.2895  2.8776
 8166TIP3    H245914   0.185   1.490  14.754 -3.4055 -1.4512  0.3016
 8167TIP3   OH245915   5.198   5.921   4.257  0.0469 -0.2292  0.6483
 8167TIP3    H145916   5.125   5.982   4.248  0.6783  0.3353 -0.8976
 8167TIP3    H245917   5.192   5.889   4.347 -1.6825  0.3291  0.7520
 8168TIP3   OH245918   2.474   1.885  12.380 -0.5219  0.6790  0.4063
 8168TIP3    H145919   2.446   1.961  12.431 -1.1233  0.4034  0.4976
 8168TIP3    H245920   2.508   1.823  12.445 -2.8511 -0.3775  0.7314
 8169TIP3   OH245921   4.432   6.018  15.754  0.4915 -0.3725 -0.1675
 8169TIP3    H145922   4.344   5.981  15.754  0.9753 -1.5795 -0.5534
 8169TIP3    H245923   4.479   5.967  15.687  1.3300  0.6193 -0.3577
 8170TIP3   OH245924   1.861   3.216  12.880 -0.0071  0.4291  0.5323
 8170TIP3    H145925   1.834   3.257  12.962  0.4508 -0.7490  1.3014
 8170TIP3    H245926   1.905   3.136  12.907  0.1636  0.0235 -0.8758
 8171TIP3   OH245927   4.099   2.986   5.815 -0.0086 -0.1117  0.6282
 8171TIP3    H145928   4.135   2.927   5.882 -0.1404 -0.6327  0.2466
 8171TIP3    H245929   4.169   3.049   5.799 -0.0695  0.1687  1.4367
 8172TIP3   OH245930   2.924   0.929   0.500 -0.1447  0.1128 -0.1578
 8172TIP3    H145931   3.014   0.926   0.532 -0.0473 -2.1132 -0.5016
 8172TIP3    H245932   2.926   0.994   0.430  1.2530 -0.0826 -0.3271
 8173TIP3   OH245933   2.799   5.660  14.296  0.2616  0.0871  0.2873
 8173TIP3    H145934   2.731   5.602  14.330 -1.0315  1.3014 -0.1091
 8173TIP3    H245935   2.791   5.654  14.201  0.6257  0.3150  0.2409
 8174TIP3   OH245936   1.997   3.397  12.457 -0.3579  0.4482 -0.0096
 8174TIP3    H145937   1.940   3.358  12.523 -1.5295 -1.9170 -2.2324
 8174TIP3    H245938   1.958   3.482  12.439 -0.0182  1.1404  2.2377
 8175TIP3   OH245939   4.544   1.962   2.739 -0.5345  0.4691  0.1499
 8175TIP3    H145940   4.638   1.943   2.730 -0.7447 -0.0745 -1.1858
 8175TIP3    H245941   4.541   2.052   2.771  0.4584  1.1293 -1.4677
 8176TIP3   OH245942   6.063   4.891  11.760  0.0581  0.7272 -0.1074
 8176TIP3    H145943   6.022   4.825  11.816 -0.1881  0.0427 -1.0614
 8176TIP3    H245944   6.030   4.975  11.792 -2.2338  0.2114 -0.9203
 8177TIP3   OH245945   3.238   1.457  14.153 -0.2167 -0.3020  0.1933
 8177TIP3    H145946   3.150   1.461  14.190  0.2364  0.3467  1.2544
 8177TIP3    H245947   3.225   1.423  14.064 -1.4083 -1.3253  0.7186
 8178TIP3   OH245948   3.880   6.545  13.304  0.1382 -0.6138  0.4912
 8178TIP3    H145949   3.787   6.530  13.323 -0.0936  0.2860  0.1348
 8178TIP3    H245950   3.926   6.499  13.374 -0.5958 -0.4092  1.1353
 8179TIP3   OH245951   4.195   3.631   2.057  0.2017 -0.4223  0.4297
 8179TIP3    H145952   4.225   3.721   2.041  2.1551 -0.9513  0.9279
 8179TIP3    H245953   4.168   3.631   2.149 -0.2997 -0.2327  0.2879
 8180TIP3   OH245954   0.898   0.969  10.952 -0.0423  0.2098  0.2738
 8180TIP3    H145955   0.973   0.946  11.008  0.3387 -0.9598 -0.6891
 8180TIP3    H245956   0.922   1.055  10.916  0.3787  0.3051  0.7614
 8181TIP3   OH245957   3.743   2.124  11.094 -0.1196 -0.0943 -0.3072
 8181TIP3    H145958   3.792   2.150  11.016  1.8319 -1.9451  0.1836
 8181TIP3    H245959   3.656   2.101  11.062  0.9048 -1.6711 -2.1390
 8182TIP3   OH245960   3.105   0.731   5.288  0.1156 -0.1857 -0.1718
 8182TIP3    H145961   3.097   0.653   5.234  0.7978  0.2573 -0.9353
 8182TIP3    H245962   3.171   0.708   5.353  0.0622 -0.3602 -0.1786
 8183TIP3   OH245963   4.539   1.961  14.865 -0.1327 -0.1500 -0.6893
 8183TIP3    H145964   4.610   1.978  14.803  0.2727 -0.3426 -0.2877
 8183TIP3    H245965   4.581   1.963  14.951 -0.3623 -1.5544 -0.5175
 8184TIP3   OH245966   3.290   3.206  12.864  0.0831 -0.0623  0.3365
 8184TIP3    H145967   3.370   3.210  12.811 -2.0544 -1.9991 -3.4554
 8184TIP3    H245968   3.230   3.269  12.823 -1.2924 -0.7248  1.2485
 8185TIP3   OH245969   5.680   3.177  13.830  0.1827 -0.5451 -0.2010
 8185TIP3    H145970   5.775   3.165  13.820  0.3138  0.9857 -1.1737
 8185TIP3    H245971   5.650   3.098  13.875  1.9112 -1.0781  0.0857
 8186TIP3   OH245972   5.068   6.153  14.107  0.0861  0.5126 -0.3452
 8186TIP3    H145973   5.033   6.238  14.131  0.5539  0.6529 -0.1496
 8186TIP3    H245974   5.019   6.128  14.029  1.0794  1.7135 -1.3984
 8187TIP3   OH245975   0.036   4.208  12.708 -0.6493 -0.7510 -0.3378
 8187TIP3    H145976  -0.015   4.202  12.789 -2.1552 -1.2030 -1.2856
 8187TIP3    H245977   0.075   4.121  12.698  1.7984  0.0243  1.2360
 8188TIP3   OH245978   1.581   2.490  14.786 -0.2878 -0.3099  0.4679
 8188TIP3    H145979   1.538   2.551  14.846  0.3641  1.0939 -0.4358
 8188TIP3    H245980   1.573   2.531  14.700  0.6427 -1.2418 -0.0943
 8189TIP3   OH245981   4.023   6.466  16.591  0.1986  0.5059 -0.0261
 8189TIP3    H145982   3.936   6.505  16.602 -0.2966 -0.8627  1.1878
 8189TIP3    H245983   4.010   6.373  16.609  1.6761  0.0353 -1.1622
 8190TIP3   OH245984   6.766   6.328  12.991 -0.4144 -0.0646  0.3791
 8190TIP3    H145985   6.706   6.402  12.979  0.4364  0.4704 -0.8590
 8190TIP3    H245986   6.736   6.262  12.929  0.2103  0.1722 -0.1838
 8191TIP3   OH245987   5.863   4.173   0.337 -0.3891 -0.2663  0.4821
 8191TIP3    H145988   5.768   4.156   0.333 -0.6016  0.9628 -0.2869
 8191TIP3    H245989   5.869   4.263   0.369  0.5763 -0.6547  1.4631
 8192TIP3   OH245990   1.217   4.149   3.726 -0.1657 -0.3255 -0.2640
 8192TIP3    H145991   1.226   4.244   3.718  0.3633 -0.1464  1.9386
 8192TIP3    H245992   1.131   4.130   3.688 -1.3736  1.3918  1.4261
 8193TIP3   OH245993   2.485   3.362  14.034 -0.2400  0.1654  0.0843
 8193TIP3    H145994   2.412   3.417  14.063 -0.1233  0.4963 -0.2476
 8193TIP3    H245995   2.560   3.422  14.030 -0.2284  0.1041 -0.7956
 8194TIP3   OH245996   5.705   1.816   1.637 -0.1439 -0.0088  0.8944
 8194TIP3    H145997   5.616   1.781   1.651  0.0649 -1.0378 -0.1522
 8194TIP3    H245998   5.720   1.874   1.711 -0.0807 -3.0488  3.4730
 8195TIP3   OH245999   2.783   5.254  12.954 -0.5957  0.0519  0.6442
 8195TIP3    H146000   2.720   5.308  12.906 -1.5013  0.2181  1.9540
 8195TIP3    H246001   2.857   5.245  12.894 -1.6587  0.2510 -0.7646
 8196TIP3   OH246002   2.744   6.722  11.889  0.2795  0.6192 -0.0977
 8196TIP3    H146003   2.683   6.694  11.958 -0.5349 -1.0886 -1.4362
 8196TIP3    H246004   2.807   6.650  11.884 -0.1708  0.3093 -1.6936
 8197TIP3   OH246005   5.653   2.319   0.154  0.2085  0.4546 -0.1686
 8197TIP3    H146006   5.686   2.258   0.220 -1.1137 -0.5001 -0.3537
 8197TIP3    H246007   5.732   2.354   0.112  1.0250  0.0966  1.0291
 8198TIP3   OH246008   5.386   0.224  15.783 -0.4514 -0.3652  0.1317
 8198TIP3    H146009   5.473   0.200  15.815 -0.1750  3.6838  3.0447
 8198TIP3    H246010   5.398   0.236  15.688  2.2809  0.3579  0.4934
 8199TIP3   OH246011   6.029   1.812   1.488  0.3170 -0.4695 -0.2247
 8199TIP3    H146012   6.112   1.777   1.521  1.9012  2.1644 -1.1015
 8199TIP3    H246013   6.028   1.788   1.396  1.1479  1.1010 -0.6962
 8200TIP3   OH246014   4.009   2.394  14.278 -0.0877  0.0316  0.0957
 8200TIP3    H146015   3.973   2.479  14.252 -0.6260  0.3984  1.8729
 8200TIP3    H246016   3.944   2.331  14.248  1.1411  0.0047 -2.8119
 8201TIP3   OH246017   4.910   2.300  15.544  0.7501 -0.7117 -0.2137
 8201TIP3    H146018   4.974   2.371  15.557  2.2060 -2.1018  0.6388
 8201TIP3    H246019   4.911   2.253  15.627  0.0400 -1.9068 -0.8651
 8202TIP3   OH246020   3.163   0.329   0.925  0.1831  0.4307  0.7155
 8202TIP3    H146021   3.220   0.391   0.879 -0.2423  0.6313  0.4534
 8202TIP3    H246022   3.096   0.306   0.861 -0.7507  1.1574  1.4003
 8203TIP3   OH246023   2.296   5.055  15.084 -1.0663  0.2096 -0.1904
 8203TIP3    H146024   2.233   5.107  15.034  0.6554  1.6315 -0.9998
 8203TIP3    H246025   2.343   5.118  15.138  0.3804 -0.6229 -0.4137
 8204TIP3   OH246026   4.860   1.905   2.218  0.2807 -0.2649  0.3871
 8204TIP3    H146027   4.809   1.936   2.292  0.8301 -1.0401  1.1156
 8204TIP3    H246028   4.908   1.982   2.188 -0.8686  0.3364  0.0450
 8205TIP3   OH246029   5.042   2.390  10.725  0.6052  0.0337  1.1105
 8205TIP3    H146030   5.034   2.475  10.767  0.3102  0.4754  0.1913
 8205TIP3    H246031   5.105   2.404  10.654  0.8267 -0.6019  1.1754
 8206TIP3   OH246032   3.331   5.505   5.715  0.1060  0.2769 -0.7155
 8206TIP3    H146033   3.328   5.447   5.639  1.1535 -0.9482  0.1225
 8206TIP3    H246034   3.279   5.459   5.782  1.8324 -0.2888  0.3039
 8207TIP3   OH246035   2.613   2.635  13.283  0.0480  0.5383 -0.4368
 8207TIP3    H146036   2.572   2.552  13.259  0.6902  0.0386  0.1562
 8207TIP3    H246037   2.540   2.694  13.300 -0.4246 -0.0835 -0.2786
 8208TIP3   OH246038   4.713   2.181   0.694 -0.4945 -0.1304 -0.3527
 8208TIP3    H146039   4.769   2.169   0.617  0.9516  2.0336  0.2556
 8208TIP3    H246040   4.772   2.210   0.763 -1.8440 -1.4320  1.4565
 8209TIP3   OH246041   3.197   4.085   3.416  0.2270  0.5121 -0.4924
 8209TIP3    H146042   3.278   4.131   3.394  0.2596  0.0257 -1.4417
 8209TIP3    H246043   3.218   4.034   3.494  0.7483  0.6353 -0.5489
 8210TIP3   OH246044   0.778   1.487   3.158 -0.0822 -0.3708  0.0029
 8210TIP3    H146045   0.734   1.419   3.107  0.8693 -1.1870  0.2450
 8210TIP3    H246046   0.854   1.444   3.195 -0.1579  0.4930  1.2292
 8211TIP3   OH246047   5.995   3.436  16.064  0.3247  0.0034  0.4587
 8211TIP3    H146048   6.079   3.462  16.101  0.7786 -1.2173  0.3138
 8211TIP3    H246049   5.963   3.368  16.122 -0.6352  0.5413  0.5807
 8212TIP3   OH246050   2.684   2.692   1.291  0.6014 -0.7141  0.7910
 8212TIP3    H146051   2.645   2.606   1.281  0.2456 -0.4703  0.0334
 8212TIP3    H246052   2.730   2.708   1.209 -0.1992  0.2384  0.5059
 8213TIP3   OH246053   0.380   0.636  13.499  0.0547 -0.1245 -0.0026
 8213TIP3    H146054   0.350   0.557  13.454 -0.0849 -1.1220  1.7290
 8213TIP3    H246055   0.310   0.700  13.484 -1.0615 -1.1431  0.6137
 8214TIP3   OH246056   2.794   6.082   0.409 -0.1592 -0.2549 -0.3809
 8214TIP3    H146057   2.814   6.034   0.490 -0.2609 -1.0130 -0.7928
 8214TIP3    H246058   2.873   6.131   0.390  0.1142 -0.6204 -0.1956
 8215TIP3   OH246059   4.248   6.625  13.563 -0.4839  0.1853  0.1799
 8215TIP3    H146060   4.252   6.570  13.485  2.5763 -2.0028  1.6867
 8215TIP3    H246061   4.172   6.592  13.611 -1.5437  0.6072 -1.1378
 8216TIP3   OH246062   4.278   5.442   1.919  0.1651  0.1926 -0.5017
 8216TIP3    H146063   4.236   5.527   1.929  0.3553  0.1861  0.5259
 8216TIP3    H246064   4.278   5.425   1.825 -2.2083  0.1530 -0.5726
 8217TIP3   OH246065   4.019   3.565  12.485 -0.7281  0.2198  0.3453
 8217TIP3    H146066   4.019   3.618  12.564 -2.0787  0.7894 -0.0016
 8217TIP3    H246067   3.955   3.496  12.502  0.0112 -0.4951  0.2702
 8218TIP3   OH246068   4.565   2.698  12.816  0.0225  0.2513  0.2942
 8218TIP3    H146069   4.576   2.623  12.875  3.5312  0.0496 -0.3647
 8218TIP3    H246070   4.652   2.710  12.778 -1.5620  1.7358 -3.2356
 8219TIP3   OH246071   4.823   6.043  11.345 -0.6545 -0.3477 -0.3117
 8219TIP3    H146072   4.886   6.108  11.312 -1.7879  1.7356  1.3747
 8219TIP3    H246073   4.798   5.993  11.268  1.0974  0.4956 -1.5013
 8220TIP3   OH246074   3.304   6.150   0.031  0.3694  0.7471  0.0941
 8220TIP3    H146075   3.217   6.167  -0.005  0.9570  0.1457 -1.7419
 8220TIP3    H246076   3.364   6.174  -0.039  1.6680  0.5524  1.0975
 8221TIP3   OH246077   5.488   5.836   1.722  0.0707 -0.6188 -0.2667
 8221TIP3    H146078   5.421   5.821   1.788  0.6578 -0.2151  0.4261
 8221TIP3    H246079   5.571   5.820   1.767  0.7181  2.9946  0.1124
 8222TIP3   OH246080   1.102   2.336   0.457  0.3345 -0.0306  0.6693
 8222TIP3    H146081   1.155   2.322   0.536  1.0146  1.3614  0.5030
 8222TIP3    H246082   1.165   2.326   0.385 -0.2274 -1.0362  0.2986
 8223TIP3   OH246083   6.633   5.835   2.251  0.2037  0.3905  0.5979
 8223TIP3    H146084   6.694   5.763   2.259 -3.1227 -2.6785  1.1153
 8223TIP3    H246085   6.616   5.862   2.341 -0.6006 -0.1391  0.6163
 8224TIP3   OH246086   3.100   4.403   3.319  0.3467  0.1776 -0.2740
 8224TIP3    H146087   3.008   4.398   3.344  0.0565 -2.0525 -1.5041
 8224TIP3    H246088   3.135   4.478   3.368 -1.8633  0.4572  0.9815
 8225TIP3   OH246089   1.876   6.196   1.746 -0.3181 -0.7717 -0.3818
 8225TIP3    H146090   1.936   6.270   1.751  1.0258 -1.7470 -1.4563
 8225TIP3    H246091   1.871   6.176   1.653 -0.5934 -2.0849 -0.0986
 8226TIP3   OH246092   0.015   4.384  16.490 -0.5947  0.0875 -0.1194
 8226TIP3    H146093  -0.049   4.334  16.541 -0.4340 -2.3548 -2.0938
 8226TIP3    H246094   0.100   4.356  16.523 -0.5141  0.3186 -0.1282
 8227TIP3   OH246095   0.871   0.997  16.235 -0.2852  0.1128  0.3486
 8227TIP3    H146096   0.852   1.079  16.281  0.1731  0.2344  0.3269
 8227TIP3    H246097   0.967   0.992  16.234 -0.3067 -1.2109  1.7330
 8228TIP3   OH246098   5.856   1.360   2.984  0.6352 -0.2255 -0.1557
 8228TIP3    H146099   5.949   1.340   2.977  0.3478 -1.3145 -1.1419
 8228TIP3    H246100   5.812   1.276   2.971 -0.5311  0.4782 -0.9878
 8229TIP3   OH246101   1.426   0.368  13.141  0.2586 -0.0720  0.2732
 8229TIP3    H146102   1.439   0.350  13.048  2.5510  0.6575  0.3823
 8229TIP3    H246103   1.347   0.320  13.164 -0.5676 -0.0040 -2.1114
 8230TIP3   OH246104   6.634   2.640   4.888 -0.3037  0.1531  0.1340
 8230TIP3    H146105   6.641   2.726   4.929 -1.9049  0.8644 -0.9576
 8230TIP3    H246106   6.565   2.595   4.936 -1.8815  0.8248 -1.3865
 8231TIP3   OH246107   3.599   1.521   1.179  0.4356  0.3428 -0.6254
 8231TIP3    H146108   3.592   1.615   1.198 -0.0811  0.4149 -1.1496
 8231TIP3    H246109   3.656   1.517   1.102  1.1725  0.1603 -0.0868
 8232TIP3   OH246110   5.872   0.559  15.903 -0.5746  0.5795  0.0966
 8232TIP3    H146111   5.946   0.550  15.844 -0.3780 -0.7651  0.5282
 8232TIP3    H246112   5.875   0.651  15.931  0.3362  0.7873 -0.6422
 8233TIP3   OH246113   1.151   5.584   1.964  0.1216  0.0401  0.2981
 8233TIP3    H146114   1.114   5.556   1.880 -0.5755 -0.1508  0.6621
 8233TIP3    H246115   1.219   5.520   1.984  0.5874  0.3235 -0.3170
 8234TIP3   OH246116   0.227   3.284   0.172 -0.0693 -0.0764  0.1705
 8234TIP3    H146117   0.233   3.376   0.144 -0.1398 -0.0157  0.3551
 8234TIP3    H246118   0.189   3.239   0.096 -0.6156  0.1561  0.3030
 8235TIP3   OH246119   4.979   5.754   1.946  0.0556  0.4153 -0.2718
 8235TIP3    H146120   4.991   5.837   1.992  2.3850  0.0371 -0.0710
 8235TIP3    H246121   4.961   5.780   1.855  1.5971  1.1639 -0.3900
 8236TIP3   OH246122   1.273   4.937   0.756  0.5215  0.5103  0.4790
 8236TIP3    H146123   1.290   4.877   0.828 -0.9296 -0.3507  0.1377
 8236TIP3    H246124   1.287   5.024   0.793  0.2773  0.0649  1.6584
 8237TIP3   OH246125   1.191   2.363  17.022 -0.0896  0.1388 -0.6406
 8237TIP3    H146126   1.123   2.295  17.023 -1.0560  1.0558 -1.1597
 8237TIP3    H246127   1.207   2.379  16.929 -0.5558  1.2453 -0.5574
 8238TIP3   OH246128   6.289   6.659   5.669 -0.2545  1.1681  0.2091
 8238TIP3    H146129   6.333   6.608   5.737 -0.8660  0.9406  0.4467
 8238TIP3    H246130   6.210   6.691   5.712 -0.4523  1.3482 -0.2866
 8239TIP3   OH246131   0.302   0.839   6.737  0.4988 -0.2322 -0.3242
 8239TIP3    H146132   0.352   0.865   6.659 -0.6103  0.3658 -0.8560
 8239TIP3    H246133   0.366   0.794   6.792  1.1629 -1.2715 -1.8651
 8240TIP3   OH246134   1.639   6.150  15.405  0.0701  0.3271  0.2513
 8240TIP3    H146135   1.636   6.135  15.310  1.8354  1.2089  0.0171
 8240TIP3    H246136   1.576   6.087  15.441 -0.9871  0.2898 -1.5258
 8241TIP3   OH246137   6.645   1.963   6.828  0.1132 -0.2528 -0.7894
 8241TIP3    H146138   6.615   1.872   6.825  1.9172 -0.8663 -2.8292
 8241TIP3    H246139   6.739   1.958   6.810  0.5106  1.9512  0.2949
 8242TIP3   OH246140   5.216   6.733  12.117 -0.3716 -0.7731 -0.0014
 8242TIP3    H146141   5.221   6.673  12.192 -2.3401  0.1240  0.9323
 8242TIP3    H246142   5.292   6.790  12.128  0.7773 -2.1916 -0.1506
 8243TIP3   OH246143   6.060   4.670   3.673  0.1120 -0.3003 -0.9110
 8243TIP3    H146144   6.129   4.649   3.737  1.3825  2.5075 -1.1877
 8243TIP3    H246145   5.994   4.717   3.723  1.5143  2.6789 -1.6433
 8244TIP3   OH246146   0.550   5.800  11.376  0.4383  0.0020 -0.2345
 8244TIP3    H146147   0.480   5.863  11.360 -1.2697 -1.3209  1.4065
 8244TIP3    H246148   0.630   5.852  11.375 -0.5959  1.6850 -1.6563
 8245TIP3   OH246149   0.047   5.228  17.106 -0.2665 -0.5008  0.2805
 8245TIP3    H146150   0.092   5.226  17.022 -2.1207 -0.6819 -0.7779
 8245TIP3    H246151   0.110   5.267  17.167  1.3959 -1.0860 -0.9971
 8246TIP3   OH246152   5.596   1.871  16.812 -0.1686  0.8775 -0.4733
 8246TIP3    H146153   5.531   1.837  16.750 -1.0390 -0.7323  1.2237
 8246TIP3    H246154   5.663   1.802  16.816  0.4135  1.4419 -0.3983
 8247TIP3   OH246155   2.200   1.980   3.978 -0.5323 -0.3978 -0.1944
 8247TIP3    H146156   2.269   1.920   4.006 -0.3081 -0.2018 -0.3262
 8247TIP3    H246157   2.152   1.932   3.911 -0.2148 -0.3458 -0.4607
 8248TIP3   OH246158   5.707   2.083  12.955  0.3003  0.1494  0.5862
 8248TIP3    H146159   5.631   2.137  12.976  0.0562 -0.1864  0.5912
 8248TIP3    H246160   5.682   1.995  12.984  0.9689  0.1661  1.2618
 8249TIP3   OH246161   5.172   5.648   3.595 -0.2545  0.1965 -0.3196
 8249TIP3    H146162   5.112   5.603   3.535  0.7393 -1.2634 -0.2559
 8249TIP3    H246163   5.244   5.676   3.539  0.1916 -0.2616  0.0299
 8250TIP3   OH246164   2.938   5.332   2.835 -0.2752  0.1019  0.3514
 8250TIP3    H146165   2.933   5.371   2.923 -3.7378 -2.6530  1.6042
 8250TIP3    H246166   3.025   5.292   2.832  0.4305  1.3796  1.9726
 8251TIP3   OH246167   2.156   1.614   0.413 -0.3295  0.3210  0.5005
 8251TIP3    H146168   2.183   1.589   0.502  1.5851  2.4308  0.6138
 8251TIP3    H246169   2.061   1.625   0.419 -0.5750 -1.8182  1.6296
 8252TIP3   OH246170   6.213   1.055   3.898 -0.3640  0.2588  0.4922
 8252TIP3    H146171   6.137   1.007   3.866  0.2771  0.0121 -0.7238
 8252TIP3    H246172   6.200   1.145   3.866  1.0526 -0.3273 -1.9900
 8253TIP3   OH246173   0.939   0.617  16.648 -0.3322 -0.3623 -0.3891
 8253TIP3    H146174   0.964   0.530  16.678  1.2028 -0.1076 -0.8417
 8253TIP3    H246175   0.947   0.672  16.726  1.5141 -0.1199 -0.6908
 8254TIP3   OH246176   5.829   4.735  12.790  1.0125 -0.3619 -0.8768
 8254TIP3    H146177   5.890   4.805  12.769  0.1034  0.7385  0.0553
 8254TIP3    H246178   5.878   4.677  12.849  1.1804  0.4879 -0.1685
 8255TIP3   OH246179   5.925   4.343  11.499 -0.3596  0.5211 -0.3592
 8255TIP3    H146180   6.010   4.305  11.520 -0.9430 -0.3314  0.5631
 8255TIP3    H246181   5.945   4.425  11.455  0.9363  0.0291 -0.7144
 8256TIP3   OH246182   1.817   3.815  11.678  0.7924 -0.6562  0.2665
 8256TIP3    H146183   1.818   3.890  11.738  0.9935 -0.6286  0.2309
 8256TIP3    H246184   1.804   3.855  11.592 -1.3458 -0.8296  0.4634
 8257TIP3   OH246185   1.253   2.051  13.720 -0.5353  0.5053  0.2680
 8257TIP3    H146186   1.225   2.123  13.663 -1.2805  0.0237  0.0038
 8257TIP3    H246187   1.219   2.073  13.806 -0.9668  0.3660  0.1369
 8258TIP3   OH246188   5.969   3.386  14.765  0.0137  0.0229  0.5519
 8258TIP3    H146189   6.032   3.316  14.779 -0.6865 -0.5654  0.8237
 8258TIP3    H246190   5.891   3.358  14.812 -0.3894  0.8278  0.3798
 8259TIP3   OH246191   0.774   0.749   6.014 -0.2386  0.3279  0.2987
 8259TIP3    H146192   0.819   0.784   5.938  1.4342  0.2083  1.1948
 8259TIP3    H246193   0.762   0.656   5.995  1.7166 -0.0705  0.8523
 8260TIP3   OH246194   5.589   0.771  16.563  0.2203 -0.1248  0.1586
 8260TIP3    H146195   5.510   0.787  16.615 -0.1960 -0.1940 -0.4464
 8260TIP3    H246196   5.625   0.691  16.599  0.6094  0.4770  1.1520
 8261TIP3   OH246197   4.834   3.840  16.544  0.0249 -0.1171 -0.6222
 8261TIP3    H146198   4.919   3.882  16.528  0.8246 -0.7975  1.4971
 8261TIP3    H246199   4.854   3.769  16.606 -1.8654 -1.2668 -1.2711
 8262TIP3   OH246200   2.235   3.801  11.444  0.0647  0.7821  0.2594
 8262TIP3    H146201   2.318   3.848  11.446  0.1510  0.5956  1.0843
 8262TIP3    H246202   2.214   3.795  11.351  1.2432  0.3446  0.0030
 8263TIP3   OH246203   4.341   3.518   0.996 -0.2581 -0.5560  0.1801
 8263TIP3    H146204   4.295   3.588   1.043 -1.4581 -0.4662 -1.0422
 8263TIP3    H246205   4.363   3.454   1.063 -2.2158 -0.6124  0.8344
 8264TIP3   OH246206   0.727   2.138   0.362  0.3570  0.2553 -0.0042
 8264TIP3    H146207   0.638   2.105   0.353  0.4593 -0.5864  1.7097
 8264TIP3    H246208   0.720   2.209   0.426  1.0720 -0.5434  0.9804
 8265TIP3   OH246209   4.600   5.142  14.644 -0.3763  0.9908  0.2568
 8265TIP3    H146210   4.644   5.123  14.561 -1.8204 -1.9187  0.0510
 8265TIP3    H246211   4.507   5.140  14.624 -0.7496  2.5184  1.5674
 8266TIP3   OH246212   4.077   4.549   3.839  0.3980 -0.4010  0.1257
 8266TIP3    H146213   4.162   4.514   3.812  0.8543 -0.0070  1.0046
 8266TIP3    H246214   4.073   4.532   3.933 -0.8696 -1.1695 -0.0528
 8267TIP3   OH246215   4.505   1.462  15.705 -0.0185 -0.1084 -1.0477
 8267TIP3    H146216   4.536   1.438  15.792  1.8444  0.4083 -1.5299
 8267TIP3    H246217   4.424   1.412  15.694 -0.3068 -0.1445  0.9754
 8268TIP3   OH246218   1.079   3.523   0.167  0.2487 -0.0115 -0.8312
 8268TIP3    H146219   1.003   3.511   0.110 -0.5823  2.0090 -0.2627
 8268TIP3    H246220   1.044   3.514   0.256  0.9551 -0.3968 -0.5880
 8269TIP3   OH246221   0.383   6.620   5.544  0.1765 -0.1580 -0.5368
 8269TIP3    H146222   0.363   6.663   5.628  0.6466 -3.6786  1.5669
 8269TIP3    H246223   0.298   6.594   5.510  0.1109 -0.5669 -0.0682
 8270TIP3   OH246224   6.113   6.280  14.120 -1.0517  0.2307 -0.1543
 8270TIP3    H146225   6.192   6.251  14.073 -1.0098  0.4766 -0.2381
 8270TIP3    H246226   6.107   6.374  14.100 -1.6328  0.1146 -0.5330
 8271TIP3   OH246227   1.861   6.534  12.934 -1.0600  0.5588  0.1100
 8271TIP3    H146228   1.852   6.441  12.914  1.1128  0.2389  0.3727
 8271TIP3    H246229   1.879   6.574  12.848 -0.7088  0.5189  0.1607
 8272TIP3   OH246230   6.125   1.271  15.403  0.3448 -0.1558 -0.2110
 8272TIP3    H146231   6.081   1.309  15.328 -0.3478  0.0751  0.3048
 8272TIP3    H246232   6.091   1.318  15.479  0.0422 -1.2639  0.3704
 8273TIP3   OH246233   3.907   2.080   3.122 -0.2746  0.2979  0.1270
 8273TIP3    H146234   3.955   2.093   3.040 -0.6516  0.8648 -0.0114
 8273TIP3    H246235   3.853   2.159   3.131 -0.0062  0.3936  1.0831
 8274TIP3   OH246236   5.269   2.910   4.311 -0.0092 -0.5464 -0.0228
 8274TIP3    H146237   5.255   2.953   4.226 -1.5451  1.1270  1.0099
 8274TIP3    H246238   5.238   2.973   4.375 -1.2462 -2.7537  1.6787
 8275TIP3   OH246239   0.220   4.916   1.364  0.2410 -0.0476  0.2529
 8275TIP3    H146240   0.243   4.881   1.450 -2.7047  0.0338  1.1859
 8275TIP3    H246241   0.180   4.843   1.318  0.0418  0.4235 -0.3350
 8276TIP3   OH246242   4.257   5.500  14.754  0.0493  0.6951 -0.1518
 8276TIP3    H146243   4.309   5.558  14.809 -0.0180  0.0793  0.5913
 8276TIP3    H246244   4.279   5.525  14.664 -0.2467  2.0980  0.1388
 8277TIP3   OH246245   2.985   0.425   0.376 -0.0394 -0.6836  0.9074
 8277TIP3    H146246   2.946   0.506   0.343  0.2695 -0.5758  0.8002
 8277TIP3    H246247   2.920   0.357   0.357 -0.3267 -0.4513  1.0575
 8278TIP3   OH246248   4.201   5.575   2.632  0.6606  0.3991 -0.4808
 8278TIP3    H146249   4.287   5.617   2.630 -0.6187  3.3002 -1.2194
 8278TIP3    H246250   4.174   5.578   2.724  0.7227  0.9305 -0.4781
 8279TIP3   OH246251   1.591   3.938  14.342  0.8212  0.0571 -0.4998
 8279TIP3    H146252   1.637   3.871  14.292 -1.6057 -2.1645  0.0048
 8279TIP3    H246253   1.566   3.895  14.424  1.3693  2.4178  0.9923
 8280TIP3   OH246254   3.487   0.179   0.683 -0.0021 -0.0040  0.2084
 8280TIP3    H146255   3.396   0.163   0.708 -0.3004 -0.3979 -1.0310
 8280TIP3    H246256   3.537   0.114   0.732 -0.5438 -0.6275 -0.0349
 8281TIP3   OH246257   6.681   4.514  13.039  0.4444  0.4985 -0.2798
 8281TIP3    H146258   6.764   4.561  13.052  0.8047  0.0737 -0.9612
 8281TIP3    H246259   6.625   4.577  12.994 -0.0274  1.1946  1.2246
 8282TIP3   OH246260   2.577   1.367   0.534  0.3577 -0.2585 -0.4981
 8282TIP3    H146261   2.663   1.396   0.502 -0.4143  1.4583 -1.1491
 8282TIP3    H246262   2.515   1.428   0.495 -1.3000 -2.0863 -0.8891
 8283TIP3   OH246263   3.753   0.021   5.837 -0.2358 -0.3192  0.6509
 8283TIP3    H146264   3.787   0.103   5.800 -0.0026 -0.3744  0.7433
 8283TIP3    H246265   3.827  -0.040   5.831 -0.4176 -0.5308  0.5576
 8284TIP3   OH246266   0.294   0.581  15.758  0.2737  0.2086  0.0150
 8284TIP3    H146267   0.211   0.628  15.758 -0.8110 -1.4772 -2.2886
 8284TIP3    H246268   0.274   0.497  15.800  1.3178  0.4813  1.1063
 8285TIP3   OH246269   3.609   2.066  13.454  0.0977 -0.5736 -0.6037
 8285TIP3    H146270   3.562   2.099  13.378  1.6404  0.8591 -0.9892
 8285TIP3    H246271   3.686   2.022  13.417  0.4139 -0.6237  0.1033
 8286TIP3   OH246272   5.466   4.448   0.167  0.2339 -0.3786  0.0381
 8286TIP3    H146273   5.432   4.360   0.150 -0.2751  0.0432 -1.2840
 8286TIP3    H246274   5.406   4.506   0.120  1.1272  0.6009  0.0740
 8287TIP3   OH246275   0.387   5.068  16.663 -0.3388 -0.8099  0.1619
 8287TIP3    H146276   0.298   5.099  16.645 -0.0614  0.3957  0.7404
 8287TIP3    H246277   0.444   5.136  16.626  0.2801 -0.1040  2.2368
 8288TIP3   OH246278   6.207   0.749  12.689  0.3535  0.0460 -0.3605
 8288TIP3    H146279   6.160   0.831  12.673 -2.2665 -1.3450 -0.2975
 8288TIP3    H246280   6.278   0.750  12.625  1.7528  3.2474  1.0002
 8289TIP3   OH246281   2.647   3.221  15.030  0.6508 -0.3167 -0.6139
 8289TIP3    H146282   2.622   3.135  14.996 -0.4617 -0.3210  0.1782
 8289TIP3    H246283   2.695   3.262  14.958  0.0238 -1.0748 -1.4793
 8290TIP3   OH246284   3.395   1.707  13.368  0.4377 -0.4441  0.0240
 8290TIP3    H146285   3.346   1.766  13.311 -0.8578  0.1833  1.6944
 8290TIP3    H246286   3.405   1.627  13.316  0.1403  0.4085 -1.4090
 8291TIP3   OH246287   3.703   5.406  14.847 -0.0627  0.4021  0.1791
 8291TIP3    H146288   3.754   5.458  14.909 -0.1843 -1.7275  2.2169
 8291TIP3    H246289   3.648   5.350  14.902 -1.1755 -0.6840 -1.8969
 8292TIP3   OH246290   3.507   6.148  15.945  0.1855 -0.1267  0.3294
 8292TIP3    H146291   3.543   6.081  16.004 -0.5907 -0.4711  0.4153
 8292TIP3    H246292   3.516   6.109  15.857  1.4475  0.4329  0.1917
 8293TIP3   OH246293   1.780   2.588   0.950 -0.0796  0.5151 -0.3822
 8293TIP3    H146294   1.840   2.662   0.962 -0.3740  0.6325  0.4661
 8293TIP3    H246295   1.698   2.617   0.989 -0.2188 -0.2234 -0.1064
 8294TIP3   OH246296   1.979   0.320   1.101 -0.1029 -0.2294 -0.4972
 8294TIP3    H146297   1.973   0.389   1.034 -1.2388  1.7509  1.4850
 8294TIP3    H246298   1.979   0.368   1.184  1.2650 -2.5787  0.9601
 8295TIP3   OH246299   0.929   4.212   4.257 -0.2281  0.5490 -0.4293
 8295TIP3    H146300   0.877   4.271   4.204  0.2199  0.6686 -0.7427
 8295TIP3    H246301   0.880   4.129   4.258 -0.3733  0.6317 -0.7917
 8296TIP3   OH246302   2.258   1.231  12.031 -0.0961  0.4751  0.5791
 8296TIP3    H146303   2.339   1.270  11.996  1.0910 -2.6403 -0.4890
 8296TIP3    H246304   2.190   1.255  11.968  0.2193  2.0537  0.7969
 8297TIP3   OH246305   2.425   0.992  15.969  0.0992  0.4481  0.1398
 8297TIP3    H146306   2.519   0.993  15.987  0.2252  0.9037 -0.5048
 8297TIP3    H246307   2.406   1.080  15.935 -0.1868 -0.2265 -1.5350
 8298TIP3   OH246308   4.677   0.631   3.272  0.2535  0.7460 -0.3417
 8298TIP3    H146309   4.672   0.673   3.186  0.1645  1.6880  0.1142
 8298TIP3    H246310   4.680   0.703   3.334 -1.1109  0.0759  0.5418
 8299TIP3   OH246311   1.965   6.265  16.517 -0.3136  0.0304  0.1943
 8299TIP3    H146312   1.972   6.360  16.520 -0.6242  0.0412  0.5209
 8299TIP3    H246313   1.962   6.238  16.608 -0.3611 -0.2831  0.1009
 8300TIP3   OH246314   2.431   0.143  10.846  1.1517  0.2964 -0.5362
 8300TIP3    H146315   2.510   0.176  10.889 -0.1960 -1.0079  3.4206
 8300TIP3    H246316   2.366   0.212  10.859  0.5838 -0.3235 -0.0208
 8301TIP3   OH246317   4.986   2.010  17.269  0.3837  0.2399  0.1014
 8301TIP3    H146318   5.024   2.029  17.184 -0.2743  1.2188  0.0121
 8301TIP3    H246319   4.984   1.914  17.274 -0.3617  0.1681 -1.3380
 8302TIP3   OH246320   0.569   1.529   6.469  0.0579  0.2741 -0.0333
 8302TIP3    H146321   0.637   1.581   6.512  1.5330  0.8622 -2.8013
 8302TIP3    H246322   0.515   1.593   6.423 -1.0307 -0.3616  0.3255
 8303TIP3   OH246323   6.152   4.603  15.809  0.1524  0.2166 -0.6745
 8303TIP3    H146324   6.200   4.683  15.790  2.5546 -0.6636  1.1716
 8303TIP3    H246325   6.152   4.596  15.905  2.2608 -3.1342 -0.7431
 8304TIP3   OH246326   4.193   5.071   5.766  0.2587  0.0985 -0.2191
 8304TIP3    H146327   4.242   5.117   5.834 -0.1951 -0.6148  0.6170
 8304TIP3    H246328   4.184   5.134   5.696  3.2157 -0.0284 -0.8499
 8305TIP3   OH246329   5.912   6.342  12.502  0.9571  0.0051  0.5418
 8305TIP3    H146330   5.901   6.436  12.513 -0.7695 -0.3355  2.2541
 8305TIP3    H246331   5.830   6.313  12.462  2.1596 -0.5891 -1.6433
 8306TIP3   OH246332   4.431   0.039   5.246  0.1390  0.0487 -0.3676
 8306TIP3    H146333   4.521   0.067   5.256 -0.1089  1.1740 -1.1491
 8306TIP3    H246334   4.422   0.018   5.153 -0.4773  0.2240 -0.3548
 8307TIP3   OH246335   2.643   4.477   3.828  0.4211  0.9371 -0.1501
 8307TIP3    H146336   2.642   4.414   3.900 -0.2037  1.1830  0.0603
 8307TIP3    H246337   2.692   4.551   3.862 -2.9066  2.6363  1.4282
 8308TIP3   OH246338   1.026   3.539  12.321  0.7192  0.4145 -0.0553
 8308TIP3    H146339   1.013   3.613  12.261  0.2118  0.5139  0.1685
 8308TIP3    H246340   1.009   3.462  12.268 -2.1192  0.5564  0.4795
 8309TIP3   OH246341   6.126   5.094   4.501 -0.2829  0.1146  0.0692
 8309TIP3    H146342   6.100   5.052   4.583 -0.3061 -0.7638 -0.3752
 8309TIP3    H246343   6.221   5.090   4.501 -0.2337  1.0086  0.5005
 8310TIP3   OH246344   5.473   5.120   5.784  1.0821  0.4507  0.4812
 8310TIP3    H146345   5.549   5.176   5.799  0.4351  1.6122 -0.4074
 8310TIP3    H246346   5.479   5.094   5.692 -0.6024  2.2019 -0.1973
 8311TIP3   OH246347   3.388   0.462   5.931  0.6167 -0.1042 -0.2901
 8311TIP3    H146348   3.418   0.411   6.006 -1.6247 -2.4571 -0.8568
 8311TIP3    H246349   3.465   0.469   5.875  2.0235  0.6863  1.6200
 8312TIP3   OH246350   1.143   0.947   2.778  0.0522  0.3252  0.2965
 8312TIP3    H146351   1.178   1.034   2.759 -1.6282  0.7307 -1.2152
 8312TIP3    H246352   1.211   0.887   2.747  1.1854  1.0572  1.2588
 8313TIP3   OH246353   3.253   0.822  14.063  0.2987 -0.0045 -0.2774
 8313TIP3    H146354   3.236   0.912  14.035 -0.9767 -0.4290 -0.9639
 8313TIP3    H246355   3.296   0.782  13.987  0.3476 -0.1363 -0.1805
 8314TIP3   OH246356   5.211   5.497  11.545 -0.3950 -0.1115  0.2346
 8314TIP3    H146357   5.140   5.536  11.596 -0.3652 -0.8126  0.8402
 8314TIP3    H246358   5.275   5.567  11.535  0.2297 -0.3050  2.3750
 8315TIP3   OH246359   5.139   2.332  14.435 -0.1395  0.2148 -0.3062
 8315TIP3    H146360   5.113   2.284  14.356  0.0172  0.0862 -0.2819
 8315TIP3    H246361   5.230   2.357  14.419  0.7251 -1.9517  0.8282
 8316TIP3   OH246362   5.762   0.887   5.134 -0.0948  0.0320  0.4157
 8316TIP3    H146363   5.771   0.967   5.186  1.9523  0.1166  0.0430
 8316TIP3    H246364   5.851   0.870   5.102 -0.4910 -2.3756  0.4327
 8317TIP3   OH246365   4.775   2.664  16.249  0.0029  0.0856  0.1687
 8317TIP3    H146366   4.767   2.725  16.176 -0.4089  0.9959  0.9638
 8317TIP3    H246367   4.851   2.696  16.299 -1.7820  1.5862  2.0688
 8318TIP3   OH246368   4.357   6.240  14.689  0.5839  0.4439  0.6045
 8318TIP3    H146369   4.432   6.259  14.633  1.7131  0.0538  1.9186
 8318TIP3    H246370   4.304   6.179  14.637  0.7264  1.3549 -0.6674
 8319TIP3   OH246371   3.902   2.677  12.212 -0.3525 -0.1596 -0.1042
 8319TIP3    H146372   3.837   2.745  12.229 -1.2802 -1.0215 -0.0953
 8319TIP3    H246373   3.853   2.606  12.171 -0.1631 -2.2516  2.9108
 8320TIP3   OH246374   4.707   4.119  12.224  0.4668 -0.1578  0.5156
 8320TIP3    H146375   4.757   4.102  12.144 -1.1553 -1.6203 -0.2561
 8320TIP3    H246376   4.635   4.175  12.196 -1.0372 -1.9768  0.5234
 8321TIP3   OH246377   0.632   2.257  13.780  0.4197 -0.6913  0.3704
 8321TIP3    H146378   0.705   2.251  13.719  0.5366 -3.6959  0.6562
 8321TIP3    H246379   0.647   2.339  13.827  2.6553 -0.3932 -0.7141
 8322TIP3   OH246380   4.518   2.054  16.297 -0.1016 -0.6523  0.2007
 8322TIP3    H146381   4.605   2.016  16.293  0.7743  1.0949  1.4088
 8322TIP3    H246382   4.514   2.114  16.222  0.9339  1.5249  1.7971
 8323TIP3   OH246383   1.595   1.309  14.606  0.4527 -1.0893  0.3402
 8323TIP3    H146384   1.598   1.318  14.511  0.1507 -1.2450  0.3168
 8323TIP3    H246385   1.516   1.257  14.623  0.4892 -1.0349  0.6776
 8324TIP3   OH246386   1.740   6.330   0.377 -0.1842  0.1039 -0.3007
 8324TIP3    H146387   1.739   6.417   0.336  0.8456  0.1676 -0.2364
 8324TIP3    H246388   1.790   6.343   0.458  1.7102 -0.9180 -1.2350
 8325TIP3   OH246389   3.532   1.752   0.279  0.7239  0.0086 -0.2001
 8325TIP3    H146390   3.507   1.663   0.306  0.2742  0.5393  1.2326
 8325TIP3    H246391   3.627   1.751   0.280  0.7530 -0.7528 -1.2821
 8326TIP3   OH246392   1.200   2.586  15.847  0.2011  0.1455  0.3496
 8326TIP3    H146393   1.240   2.670  15.867  0.1270  0.9542 -2.3875
 8326TIP3    H246394   1.115   2.609  15.810  0.5268 -1.0402 -1.2434
 8327TIP3   OH246395   4.085   1.778  14.378  0.0557 -0.0284 -0.2805
 8327TIP3    H146396   4.130   1.766  14.461 -0.6751 -0.3148  0.0803
 8327TIP3    H246397   4.058   1.870  14.378  0.6665  0.1558 -0.5171
 8328TIP3   OH246398   4.645   2.371  15.655  0.3389  0.0385 -0.3628
 8328TIP3    H146399   4.732   2.348  15.622  1.3250 -0.4700  2.3547
 8328TIP3    H246400   4.661   2.409  15.741 -1.9777  2.3271 -0.8121
 8329TIP3   OH246401   2.043   3.496   4.209  0.0751 -0.1964  0.3142
 8329TIP3    H146402   2.001   3.567   4.161 -0.3779 -0.3184  0.5170
 8329TIP3    H246403   2.085   3.538   4.284 -1.2090 -0.2626  1.1038
 8330TIP3   OH246404   1.275   2.512   5.942  0.2325 -0.2338  0.5447
 8330TIP3    H146405   1.285   2.417   5.950  1.9522 -0.0592  0.8390
 8330TIP3    H246406   1.257   2.541   6.032  1.0850 -0.1621  0.7037
 8331TIP3   OH246407   1.236   6.698   6.494 -0.2862 -0.1548 -0.1351
 8331TIP3    H146408   1.293   6.666   6.564  0.5474  1.1729 -0.1597
 8331TIP3    H246409   1.291   6.694   6.415 -1.1693 -1.5036 -0.7027
 8332TIP3   OH246410   1.220   4.278   6.665 -0.7213 -0.5897 -0.1005
 8332TIP3    H146411   1.195   4.309   6.577 -0.5013  0.6552  0.2521
 8332TIP3    H246412   1.194   4.350   6.723  0.5998 -0.7109  0.6647
 8333TIP3   OH246413   6.684   1.692   5.538 -0.5978  0.1027 -0.0438
 8333TIP3    H146414   6.769   1.680   5.497  0.5929 -0.3550  2.3756
 8333TIP3    H246415   6.674   1.617   5.597 -1.9246  0.9846  0.9202
 8334TIP3   OH246416   5.782   6.194   5.471 -0.0864  0.5916  0.2781
 8334TIP3    H146417   5.857   6.249   5.450  0.0258  1.4064  2.5116
 8334TIP3    H246418   5.820   6.113   5.507 -0.2554  0.8574  1.0728
 8335TIP3   OH246419   3.178   4.749   4.626 -0.0910 -0.2842  0.2571
 8335TIP3    H146420   3.246   4.779   4.566 -0.9986 -1.1895 -1.2733
 8335TIP3    H246421   3.196   4.797   4.707  1.1878  0.9560 -0.6973
 8336TIP3   OH246422   6.113   5.441   0.571 -0.3118  0.2656 -0.2634
 8336TIP3    H146423   6.116   5.372   0.505 -2.0500 -0.1335  0.0232
 8336TIP3    H246424   6.038   5.418   0.626  0.3680  1.2335  1.1337
 8337TIP3   OH246425   3.358   0.434   3.511 -0.0041  0.3212 -0.0078
 8337TIP3    H146426   3.310   0.491   3.450  1.2456  2.3360  0.7931
 8337TIP3    H246427   3.290   0.399   3.569 -0.9185  0.2731 -1.0787
 8338TIP3   OH246428   3.218   4.417  12.176  0.3928 -0.2108 -0.1384
 8338TIP3    H146429   3.126   4.402  12.198  0.1156  0.0880 -1.0289
 8338TIP3    H246430   3.253   4.465  12.251 -0.3423  0.2291 -0.0597
 8339TIP3   OH246431   1.167   2.642   1.007 -0.5981 -0.0990  0.4641
 8339TIP3    H146432   1.083   2.671   0.971 -0.9882 -0.4542  1.0621
 8339TIP3    H246433   1.202   2.718   1.052 -1.1972 -0.2797  1.2705
 8340TIP3   OH246434   6.361   5.815  12.233 -0.2257 -0.3006 -0.3522
 8340TIP3    H146435   6.396   5.744  12.179 -0.2125 -0.9027  0.4300
 8340TIP3    H246436   6.274   5.832  12.196 -0.0984 -0.4993 -0.7459
 8341TIP3   OH246437   4.043   3.019   0.025 -0.3450  0.1832  0.7923
 8341TIP3    H146438   4.119   3.071   0.001  0.9922 -1.5743  0.9981
 8341TIP3    H246439   4.071   2.928   0.012 -1.5426 -0.6258  3.3164
 8342TIP3   OH246440   5.336   2.104   3.419  0.7205  0.1602 -0.2526
 8342TIP3    H146441   5.372   2.155   3.492 -0.3106  0.9810 -0.2863
 8342TIP3    H246442   5.368   2.150   3.341 -0.1921  0.7817 -0.2831
 8343TIP3   OH246443   1.723   5.776   5.665  0.3597 -0.1350  0.3860
 8343TIP3    H146444   1.648   5.727   5.698  0.7457  0.2146  1.8102
 8343TIP3    H246445   1.693   5.867   5.665  0.4653 -0.0992  0.0415
 8344TIP3   OH246446   4.131   6.644   2.914 -0.2009  0.5698 -0.1298
 8344TIP3    H146447   4.197   6.580   2.941  1.6521  1.8319 -1.3559
 8344TIP3    H246448   4.048   6.598   2.920  0.5901 -0.7085  2.7764
 8345TIP3   OH246449   4.267   1.014  13.248 -0.2677 -0.5833  0.0121
 8345TIP3    H146450   4.257   0.924  13.217 -0.4992 -0.1988 -1.0878
 8345TIP3    H246451   4.178   1.049  13.247 -0.0466 -0.0254 -0.6027
 8346TIP3   OH246452   6.641   1.341   6.149 -0.3376  0.1297 -0.2864
 8346TIP3    H146453   6.706   1.390   6.200  0.5838 -0.9711 -0.3692
 8346TIP3    H246454   6.689   1.266   6.114 -1.7531 -0.9664  0.0197
 8347TIP3   OH246455   2.955   2.914   5.989  0.2261  0.0209  0.0625
 8347TIP3    H146456   3.037   2.908   5.939  0.4460 -2.0985  0.6031
 8347TIP3    H246457   2.905   2.838   5.962 -0.4992 -0.0755  1.5981
 8348TIP3   OH246458   5.786   5.645  13.361  0.0487  0.4652 -1.0785
 8348TIP3    H146459   5.815   5.558  13.335  0.7966 -0.2287  1.6454
 8348TIP3    H246460   5.777   5.694  13.280  0.2522 -1.9528 -2.6375
 8349TIP3   OH246461   0.640   0.114  17.117 -1.0693  0.1383  0.2072
 8349TIP3    H146462   0.561   0.151  17.079  0.2908  1.9975 -0.9637
 8349TIP3    H246463   0.631   0.130  17.211 -1.5989  1.3700 -0.0296
 8350TIP3   OH246464   3.799   3.490  14.413 -0.4697 -0.1709 -0.3150
 8350TIP3    H146465   3.891   3.505  14.435 -0.4863 -0.7531  0.1810
 8350TIP3    H246466   3.801   3.453  14.325 -0.3692  1.7300 -1.1680
 8351TIP3   OH246467   4.763   4.523  14.556  0.0482 -0.4559  0.1431
 8351TIP3    H146468   4.797   4.608  14.527 -0.3013 -0.7554 -1.2158
 8351TIP3    H246469   4.716   4.543  14.637 -0.3922  0.7407 -0.3731
 8352TIP3   OH246470   4.117   2.657   0.409 -0.1923  0.6363 -0.0083
 8352TIP3    H146471   4.108   2.747   0.440 -0.2571  0.4738  0.4432
 8352TIP3    H246472   4.133   2.666   0.315  0.5680  1.1509  0.1644
 8353TIP3   OH246473   5.810   0.493   2.492 -0.7322  0.0325 -0.2418
 8353TIP3    H146474   5.906   0.488   2.490 -0.6423 -0.4918  2.1834
 8353TIP3    H246475   5.788   0.561   2.429  1.3328  1.0393  0.0445
 8354TIP3   OH246476   1.789   4.800   6.181  0.6031 -0.1466 -0.3053
 8354TIP3    H146477   1.735   4.797   6.260  0.6492  0.3073 -0.2531
 8354TIP3    H246478   1.726   4.788   6.109  0.6642 -1.3935 -0.1794
 8355TIP3   OH246479   1.147   4.272  15.552 -0.6500 -0.3194  1.0094
 8355TIP3    H146480   1.172   4.298  15.641  0.4912  0.6302  0.4350
 8355TIP3    H246481   1.162   4.178  15.550  0.1059 -0.2212  1.5846
 8356TIP3   OH246482   5.181   0.342  13.220  1.1799  0.1591 -0.1344
 8356TIP3    H146483   5.261   0.292  13.238  1.1087 -0.0653 -0.4332
 8356TIP3    H246484   5.193   0.424  13.268  0.6320 -0.7405  1.6297
 8357TIP3   OH246485   3.048   6.165   3.673 -0.2211  0.1151 -0.3301
 8357TIP3    H146486   3.018   6.077   3.697  2.0714 -1.2501 -2.0806
 8357TIP3    H246487   2.998   6.223   3.729 -0.6879 -2.3801  2.0450
 8358TIP3   OH246488   4.387   0.351  15.942  0.6244 -0.0203  0.4364
 8358TIP3    H146489   4.371   0.288  16.012  2.4733 -0.0424  0.8748
 8358TIP3    H246490   4.378   0.301  15.861 -0.9303 -0.1268  0.6482
 8359TIP3   OH246491   5.799   5.439   2.288 -0.4560  0.1537 -0.0853
 8359TIP3    H146492   5.876   5.494   2.271 -0.4268  0.3374  0.6111
 8359TIP3    H246493   5.787   5.391   2.206  0.0139  0.5890 -0.4290
 8360TIP3   OH246494   4.655   3.740   3.707  0.0805  0.5495 -0.1082
 8360TIP3    H146495   4.698   3.756   3.791  0.3859  3.4890 -0.7192
 8360TIP3    H246496   4.562   3.757   3.724 -0.0148  0.0895 -0.1461
 8361TIP3   OH246497   4.324   2.963   1.523 -0.4541  0.3230  0.6377
 8361TIP3    H146498   4.354   3.054   1.522 -2.1850  0.9348  0.4084
 8361TIP3    H246499   4.296   2.946   1.433  3.4053 -1.8045 -0.4041
 8362TIP3   OH246500   2.248   0.102   1.672  0.7976 -0.1075  0.0688
 8362TIP3    H146501   2.307   0.122   1.744  1.3423 -0.9162 -0.1446
 8362TIP3    H246502   2.304   0.101   1.594  0.2324  0.6580 -0.3652
 8363TIP3   OH246503   2.061   0.164  14.850  0.0891 -0.2817 -0.2077
 8363TIP3    H146504   2.036   0.252  14.877  2.1338  0.2137  0.1997
 8363TIP3    H246505   2.027   0.156  14.761 -0.3324  0.8139 -0.1558
 8364TIP3   OH246506   0.555   3.180   2.438 -0.2044  0.3326 -0.2957
 8364TIP3    H146507   0.554   3.227   2.355 -0.5213  0.9208  0.0366
 8364TIP3    H246508   0.546   3.248   2.504  2.7529  0.2204  0.4004
 8365TIP3   OH246509   4.911   1.155  10.978  0.4537  0.7313 -0.0084
 8365TIP3    H146510   4.816   1.166  10.982  0.5598  1.5388  0.4237
 8365TIP3    H246511   4.925   1.093  10.906 -0.3818  0.7622 -0.2042
 8366TIP3   OH246512   1.926   5.927  12.499  0.4532 -0.4714  0.5946
 8366TIP3    H146513   2.007   5.933  12.549  0.6250 -0.4864  0.3208
 8366TIP3    H246514   1.906   6.018  12.476  0.4775 -0.4821  0.5293
 8367TIP3   OH246515   5.374   4.224  14.495  0.3001  0.3789 -0.3706
 8367TIP3    H146516   5.359   4.286  14.424 -0.3211 -2.6303 -3.0953
 8367TIP3    H246517   5.468   4.230  14.512  0.2563  2.0322 -0.5311
 8368TIP3   OH246518   3.136   1.443  12.456 -0.3388 -0.1871 -0.0600
 8368TIP3    H146519   3.169   1.421  12.543 -1.6155  0.2790  0.5592
 8368TIP3    H246520   3.183   1.383  12.397  0.7455 -0.3113  0.9002
 8369TIP3   OH246521   2.536   2.032  15.261 -0.2456  0.4480 -0.3223
 8369TIP3    H146522   2.563   2.018  15.352 -1.6930 -0.5855 -0.0149
 8369TIP3    H246523   2.582   1.965  15.212  0.0704  0.6200 -0.2626
 8370TIP3   OH246524   4.698   1.991  14.660 -0.3010 -0.4248  0.3466
 8370TIP3    H146525   4.740   1.959  14.580 -0.8426  0.9536 -0.5362
 8370TIP3    H246526   4.767   2.037  14.707  0.2839 -2.1198  1.2361
 8371TIP3   OH246527   4.873   1.985   5.245 -0.0909 -0.0126  0.1010
 8371TIP3    H146528   4.879   2.059   5.305  0.6599  0.5236 -0.6081
 8371TIP3    H246529   4.846   2.024   5.162  0.1677 -0.5478 -0.2376
 8372TIP3   OH246530   6.452   2.795   4.192  0.1400 -0.3242  0.5102
 8372TIP3    H146531   6.368   2.834   4.168 -0.2413 -2.3522 -1.8977
 8372TIP3    H246532   6.512   2.824   4.124  0.5213 -1.5689  0.2812
 8373TIP3   OH246533   5.892   5.311   0.653 -0.2733  0.0549 -0.1068
 8373TIP3    H146534   5.832   5.341   0.721 -0.3577  1.7341 -0.8610
 8373TIP3    H246535   5.838   5.306   0.574  0.5243  1.6019 -0.7944
 8374TIP3   OH246536   5.315   1.067  16.272  0.6323 -0.6175  0.1834
 8374TIP3    H146537   5.227   1.106  16.269  0.7800 -0.3263 -1.0380
 8374TIP3    H246538   5.344   1.079  16.362 -1.6990 -3.2789  1.4620
 8375TIP3   OH246539   3.852   5.805  15.958 -0.2516 -0.0593 -0.5492
 8375TIP3    H146540   3.808   5.786  15.875  0.2253  1.5016 -1.1820
 8375TIP3    H246541   3.807   5.881  15.994 -0.5137 -0.7649  0.7061
 8376TIP3   OH246542   3.900   0.888  13.486  0.4309  0.0752 -0.0024
 8376TIP3    H146543   3.905   0.911  13.393  0.3335 -1.7276 -0.4762
 8376TIP3    H246544   3.942   0.803  13.492 -1.1422 -0.6589  1.3084
 8377TIP3   OH246545   2.643   5.535   1.040 -0.4079  0.2233  0.0443
 8377TIP3    H146546   2.585   5.610   1.026  0.0469  0.2633 -2.0589
 8377TIP3    H246547   2.586   5.466   1.074 -1.5799  0.4836 -1.2904
 8378TIP3   OH246548   4.490   5.753  10.621 -0.5950 -0.2371  0.2505
 8378TIP3    H146549   4.414   5.810  10.623 -0.9343 -0.6999  1.0797
 8378TIP3    H246550   4.466   5.679  10.676  0.0414 -0.9238 -0.3758
 8379TIP3   OH246551   1.613   0.210  14.307  0.2673  0.2959 -0.1955
 8379TIP3    H146552   1.670   0.225  14.383 -0.4035 -1.2406  0.6368
 8379TIP3    H246553   1.673   0.182  14.238  0.7368  0.4678  0.1322
 8380TIP3   OH246554   6.094   5.025  13.913  0.1152 -0.4238 -0.0767
 8380TIP3    H146555   6.036   5.016  13.837  1.3050  1.6738 -1.3428
 8380TIP3    H246556   6.045   5.080  13.974  0.2023  0.1652 -0.5310
 8381TIP3   OH246557   0.627   3.758   3.350  0.0701 -0.3691 -0.3481
 8381TIP3    H146558   0.652   3.733   3.261 -0.5252  0.4610 -0.7623
 8381TIP3    H246559   0.599   3.676   3.391  0.8637 -0.8483 -0.7480
 8382TIP3   OH246560   1.744   6.547  11.032  0.1300  0.4347  0.0310
 8382TIP3    H146561   1.725   6.641  11.035  0.1144  0.4298  0.1078
 8382TIP3    H246562   1.813   6.537  10.967  0.4887  0.5610  0.3879
 8383TIP3   OH246563   3.633   3.321  14.884 -0.4636  0.0857 -0.2742
 8383TIP3    H146564   3.546   3.359  14.895  0.1063  1.3882 -0.0741
 8383TIP3    H246565   3.655   3.338  14.792  1.0033  3.0334  0.5074
 8384TIP3   OH246566   6.420   5.473  11.029  0.0502 -0.7025  0.7638
 8384TIP3    H146567   6.471   5.419  11.090  3.8992  1.4151 -0.2341
 8384TIP3    H246568   6.418   5.422  10.948  0.2548 -0.9710  0.9244
 8385TIP3   OH246569   0.969   1.754   5.524 -0.0049  0.3571  0.9666
 8385TIP3    H146570   0.969   1.834   5.576  3.0435  1.0680  0.1191
 8385TIP3    H246571   0.989   1.783   5.435 -1.9460 -1.1091 -0.0127
 8386TIP3   OH246572   6.588   3.967   6.377  0.0311  0.1759 -0.4259
 8386TIP3    H146573   6.527   4.035   6.406  0.7158  0.7300 -0.2474
 8386TIP3    H246574   6.605   3.916   6.456 -0.2476 -0.0214 -0.4913
 8387TIP3   OH246575   2.065   5.570  15.232 -0.0204 -0.1459  0.4371
 8387TIP3    H146576   2.099   5.657  15.251 -0.2564 -0.4268  2.3112
 8387TIP3    H246577   2.013   5.547  15.310 -0.8984 -1.4926 -0.5029
 8388TIP3   OH246578   3.081   2.242  15.020  0.1570  0.0725  0.2278
 8388TIP3    H146579   3.153   2.187  15.051  0.7728  1.0329  0.5485
 8388TIP3    H246580   3.122   2.326  15.001 -1.1027  1.0297  1.5940
 8389TIP3   OH246581   1.292   3.817  11.346 -0.1087  0.5582 -0.1299
 8389TIP3    H146582   1.290   3.757  11.271 -1.7606 -0.4938  0.6954
 8389TIP3    H246583   1.385   3.839  11.356  0.6241 -2.0610 -0.3418
 8390TIP3   OH246584   1.901   3.278  12.072 -0.8514 -0.4586 -0.0852
 8390TIP3    H146585   1.977   3.219  12.070 -1.7135 -1.7311  1.8529
 8390TIP3    H246586   1.936   3.361  12.104 -0.3570 -1.2312  1.4616
 8391TIP3   OH246587   4.202   1.246   4.503 -0.1820 -0.2365  0.0529
 8391TIP3    H146588   4.134   1.192   4.543 -1.0538  0.3254 -0.6235
 8391TIP3    H246589   4.156   1.296   4.435  1.1071 -0.6265 -1.1601
 8392TIP3   OH246590   0.541   0.675   0.812 -0.6811 -0.4400  0.0899
 8392TIP3    H146591   0.549   0.712   0.900 -1.3139  0.1525 -0.0885
 8392TIP3    H246592   0.631   0.663   0.782 -0.4517  1.0431  0.1307
 8393TIP3   OH246593   5.340   2.873  12.629  0.0711 -0.3179 -0.3366
 8393TIP3    H146594   5.348   2.926  12.708 -1.4110 -0.4932 -0.0459
 8393TIP3    H246595   5.315   2.935  12.561 -0.2967 -0.4241 -0.2996
 8394TIP3   OH246596   0.150   1.296  16.957  0.3094  0.2926  0.4058
 8394TIP3    H146597   0.166   1.380  16.913  0.6719  0.8522  1.5500
 8394TIP3    H246598   0.203   1.301  17.036 -0.9550 -0.3263  1.3210
 8395TIP3   OH246599   2.006   2.756   2.120  0.0924 -0.2483  0.4816
 8395TIP3    H146600   2.099   2.741   2.137  0.0366 -2.0098 -0.5311
 8395TIP3    H246601   1.984   2.695   2.050 -0.8995  2.9515 -2.2633
 8396TIP3   OH246602   4.462   0.907  15.543 -0.7084  0.3441  0.2947
 8396TIP3    H146603   4.444   0.857  15.623 -0.1909 -0.3303 -0.0009
 8396TIP3    H246604   4.557   0.920  15.543 -0.5631 -0.5607 -0.7214
 8397TIP3   OH246605   4.307   0.671  12.345 -0.2741 -0.5314  0.1417
 8397TIP3    H146606   4.390   0.703  12.380 -0.6853  1.8129 -0.8370
 8397TIP3    H246607   4.302   0.706  12.256 -1.3119 -2.5399 -0.6826
 8398TIP3   OH246608   6.574   1.701  12.581  0.7062 -0.3409 -1.0540
 8398TIP3    H146609   6.639   1.631  12.581  0.6515 -0.3987 -0.6692
 8398TIP3    H246610   6.494   1.659  12.614  0.5720 -0.1845 -1.1763
 8399TIP3   OH246611   1.240   4.462  11.448 -0.8863 -0.3520  0.0194
 8399TIP3    H146612   1.293   4.385  11.469 -1.0013 -0.3489  0.3213
 8399TIP3    H246613   1.227   4.507  11.532 -1.6579 -0.5375  0.0114
 8400TIP3   OH246614   1.589   3.296  15.560 -0.2500 -0.7893  0.2989
 8400TIP3    H146615   1.658   3.356  15.534  0.8275 -1.5412  1.2973
 8400TIP3    H246616   1.543   3.275  15.479  0.3420  0.1494 -0.2957
 8401TIP3   OH246617   4.672   5.770   0.307 -0.3467  0.2581 -0.0847
 8401TIP3    H146618   4.580   5.747   0.291 -0.7060  0.5376  1.4559
 8401TIP3    H246619   4.701   5.810   0.225 -1.5373 -0.0178 -0.6643
 8402TIP3   OH246620   0.231   5.951   4.658 -0.5418  0.6259  0.5952
 8402TIP3    H146621   0.221   6.046   4.665 -1.9228  0.4420  1.3578
 8402TIP3    H246622   0.324   5.936   4.676  0.0297  1.9360 -0.9669
 8403TIP3   OH246623   6.604   4.356   5.416 -0.0160  0.0460  0.5413
 8403TIP3    H146624   6.585   4.325   5.327 -1.3531  1.2102  0.3759
 8403TIP3    H246625   6.676   4.419   5.405  0.2381 -0.2726  0.3720
 8404TIP3   OH246626   3.384   5.564  12.017 -0.3957  0.0063 -0.3403
 8404TIP3    H146627   3.404   5.514  12.096  0.7672 -0.5036 -0.9299
 8404TIP3    H246628   3.307   5.616  12.040 -1.6463 -2.0359  0.2898
 8405TIP3   OH246629   0.129   3.393  15.043 -0.0905 -0.5558 -0.7946
 8405TIP3    H146630   0.185   3.470  15.036 -0.4595 -0.3067 -0.9985
 8405TIP3    H246631   0.188   3.319  15.025 -0.1501 -0.2009 -2.5667
 8406TIP3   OH246632   0.098   3.790   5.306  0.4096 -0.3055 -0.4107
 8406TIP3    H146633   0.184   3.825   5.330  0.2041 -1.0584  1.6706
 8406TIP3    H246634   0.051   3.784   5.389 -1.7370  0.2190 -1.5111
 8407TIP3   OH246635   0.779   4.668   0.576 -0.3166 -0.1317  0.1457
 8407TIP3    H146636   0.869   4.694   0.597 -0.7860  0.5974  1.3818
 8407TIP3    H246637   0.727   4.747   0.593 -1.4462 -1.0875  1.3769
 8408TIP3   OH246638   0.538   3.559   0.261  0.3232 -0.2538  0.1121
 8408TIP3    H146639   0.607   3.593   0.318  1.1245 -1.2718 -0.2256
 8408TIP3    H246640   0.511   3.477   0.303 -1.4299  0.6255  0.8033
 8409TIP3   OH246641   2.318   1.204  15.477  0.2252  0.5297 -0.3477
 8409TIP3    H146642   2.358   1.129  15.522  0.7282  0.1193 -1.4331
 8409TIP3    H246643   2.249   1.165  15.422 -1.5195  1.1924  1.2615
 8410TIP3   OH246644   1.837   3.128   4.156  0.4270  0.3168 -0.1213
 8410TIP3    H146645   1.906   3.070   4.186  0.0576  0.7732  1.8157
 8410TIP3    H246646   1.881   3.192   4.100  1.3302 -0.1878  0.0008
 8411TIP3   OH246647   2.595   0.544   2.751  0.2194  0.4061 -0.5967
 8411TIP3    H146648   2.619   0.583   2.667  2.1449 -0.7562 -0.6698
 8411TIP3    H246649   2.515   0.495   2.733 -0.3604  1.5745 -1.3009
 8412TIP3   OH246650   1.320   6.017   6.002 -0.0353  0.0072  0.1179
 8412TIP3    H146651   1.257   6.031   5.931 -0.7494  4.6496  1.3534
 8412TIP3    H246652   1.271   6.036   6.082  2.6297  3.8085  1.1519
 8413TIP3   OH246653   6.756   0.555   2.819 -0.0358 -0.5356 -0.0185
 8413TIP3    H146654   6.690   0.509   2.869 -0.0050 -1.4113 -0.7526
 8413TIP3    H246655   6.815   0.487   2.787  1.5320  0.2589  1.0278
 8414TIP3   OH246656   2.606   0.665   6.397  0.1700 -0.1088 -0.1803
 8414TIP3    H146657   2.644   0.748   6.425 -2.9192  2.1301 -1.9796
 8414TIP3    H246658   2.513   0.673   6.417 -0.5528 -2.3401 -2.1473
 8415TIP3   OH246659   4.627   0.835   1.659 -0.1002 -0.4510 -0.1772
 8415TIP3    H146660   4.712   0.820   1.617  0.5461 -0.6810  1.1557
 8415TIP3    H246661   4.572   0.763   1.627  0.1920 -0.3055 -1.0476
 8416TIP3   OH246662   0.565   5.257   0.415 -0.3855 -0.1717  0.5007
 8416TIP3    H146663   0.528   5.170   0.425  0.6529 -0.9166 -1.6319
 8416TIP3    H246664   0.492   5.311   0.385 -0.6376 -0.6977  0.1545
 8417TIP3   OH246665   3.118   2.075   2.845  0.7202  0.7255  0.1610
 8417TIP3    H146666   3.072   2.104   2.924  0.2452  0.2989  0.0456
 8417TIP3    H246667   3.203   2.044   2.877 -0.9311 -3.3675  1.1599
 8418TIP3   OH246668   6.134   1.662  15.816 -0.0115 -0.6258 -0.2656
 8418TIP3    H146669   6.138   1.608  15.737  1.1909 -0.9271 -0.0152
 8418TIP3    H246670   6.142   1.600  15.888 -0.0278 -0.2489  0.0645
 8419TIP3   OH246671   3.966   2.065  14.419  0.0469  0.5411  0.2060
 8419TIP3    H146672   3.914   2.014  14.481 -1.0186  1.2181 -0.1145
 8419TIP3    H246673   4.035   2.104  14.472  0.6341 -0.8668  0.5324
 8420TIP3   OH246674   0.276   5.759   4.309  0.2369 -0.4668  0.5966
 8420TIP3    H146675   0.333   5.727   4.379  1.6561  2.7628  1.0946
 8420TIP3    H246676   0.333   5.767   4.233  0.4088  2.1098  0.9045
 8421TIP3   OH246677   6.203   3.544   1.779  0.0104 -0.0731 -0.2872
 8421TIP3    H146678   6.220   3.572   1.869 -1.6490  0.3076 -0.0654
 8421TIP3    H246679   6.270   3.478   1.762  1.4951  1.1544  0.5752
 8422TIP3   OH246680   5.498   0.218  14.125 -0.0624  0.0539 -0.0715
 8422TIP3    H146681   5.579   0.257  14.158  0.7584 -2.7511  1.5254
 8422TIP3    H246682   5.525   0.165  14.050 -0.5239 -0.4070  0.0855
 8423TIP3   OH246683   4.463   5.810   0.951  0.3128  0.1455 -0.1332
 8423TIP3    H146684   4.471   5.775   0.862  1.4481  1.5011 -0.6130
 8423TIP3    H246685   4.423   5.896   0.938  0.2601  0.2498  0.7097
 8424TIP3   OH246686   3.024   1.647   2.688  0.1419  0.7761  0.0430
 8424TIP3    H146687   3.110   1.678   2.659 -0.2317  0.7525 -1.1793
 8424TIP3    H246688   2.967   1.723   2.681  0.0986  0.8343  1.0165
 8425TIP3   OH246689   1.848   4.291  14.219 -0.3876 -0.9102  0.1762
 8425TIP3    H146690   1.843   4.233  14.294 -1.6144  1.1742  1.8112
 8425TIP3    H246691   1.941   4.313  14.212 -0.4007 -0.1819  1.8892
 8426TIP3   OH246692   5.004   1.330   5.470  0.7580 -0.0875  0.0015
 8426TIP3    H146693   4.978   1.269   5.401 -0.3404 -0.4896  0.7294
 8426TIP3    H246694   5.067   1.281   5.523  1.1242 -0.0009 -0.3511
 8427TIP3   OH246695   6.266   6.693   3.160 -0.2771  0.2709 -0.3809
 8427TIP3    H146696   6.175   6.672   3.142 -0.1853  0.4344 -1.0386
 8427TIP3    H246697   6.283   6.774   3.113  0.6625 -0.6075 -1.6266
 8428TIP3   OH246698   4.048   0.684   4.194  0.1594 -0.2351 -0.2652
 8428TIP3    H146699   4.141   0.671   4.210  0.1053  0.2203  0.4937
 8428TIP3    H246700   4.016   0.598   4.168  0.3308 -1.0409  1.9275
 8429TIP3   OH246701   3.172   3.855   1.228 -0.5265  0.2302  0.6170
 8429TIP3    H146702   3.145   3.865   1.137  1.5299  0.8443  0.0366
 8429TIP3    H246703   3.169   3.761   1.244 -0.4697  0.0831 -0.2195
 8430TIP3   OH246704   6.648   4.425  11.646  0.0429  0.2689 -0.3304
 8430TIP3    H146705   6.710   4.476  11.595 -0.7953  0.4852 -1.1617
 8430TIP3    H246706   6.596   4.490  11.693 -0.8795  0.2038 -1.2194
 8431TIP3   OH246707   3.783   4.412   6.153  0.4465 -0.2202 -0.0092
 8431TIP3    H146708   3.706   4.470   6.158  0.4702 -0.1801 -0.1078
 8431TIP3    H246709   3.770   4.362   6.072  0.8325  0.2258 -0.3553
 8432TIP3   OH246710   5.162   5.131   5.533 -0.1891  0.1513  0.1662
 8432TIP3    H146711   5.253   5.155   5.512 -0.1272  0.6199  0.9026
 8432TIP3    H246712   5.169   5.080   5.614 -0.4727 -0.9793 -0.5124
 8433TIP3   OH246713   0.652   4.040   4.038  0.0100  0.1831  0.6924
 8433TIP3    H146714   0.587   4.099   4.076  0.3347  0.1330  1.3405
 8433TIP3    H246715   0.601   3.976   3.989 -0.3178  1.5655 -0.8634
 8434TIP3   OH246716   2.182   1.555   2.495  0.0287  0.0650  0.4326
 8434TIP3    H146717   2.089   1.578   2.488 -0.0468 -0.4927 -0.4528
 8434TIP3    H246718   2.181   1.465   2.529  0.2352 -0.0133  0.2303
 8435TIP3   OH246719   4.116   0.299  14.670  0.3026 -0.3360 -0.0365
 8435TIP3    H146720   4.036   0.271  14.625  0.1103  0.0304  0.0716
 8435TIP3    H246721   4.087   0.371  14.726  0.6344 -0.4790  0.3136
 8436TIP3   OH246722   5.327   2.221   5.350  0.2230 -0.5396 -0.3005
 8436TIP3    H146723   5.233   2.218   5.331 -0.4280  0.4858  2.3586
 8436TIP3    H246724   5.355   2.129   5.344 -1.4517 -1.1861  0.9622
 8437TIP3   OH246725   5.468   4.251  12.823 -0.0620 -0.6425  0.1576
 8437TIP3    H146726   5.512   4.189  12.881 -0.1351 -0.9771 -0.1425
 8437TIP3    H246727   5.406   4.297  12.880 -0.3048 -1.1374  0.2966
 8438TIP3   OH246728   3.407   1.594  14.878 -0.5984  0.2378 -0.0111
 8438TIP3    H146729   3.395   1.501  14.899  2.2259  0.1446  1.7270
 8438TIP3    H246730   3.461   1.594  14.799 -0.0868  0.3822  0.3367
 8439TIP3   OH246731   6.675   0.178  11.769  0.3378 -0.0585 -0.2118
 8439TIP3    H146732   6.650   0.169  11.861  0.1907  1.7009 -0.0430
 8439TIP3    H246733   6.716   0.265  11.764 -1.5935  0.8191 -2.2129
 8440TIP3   OH246734   0.872   5.844   1.656 -0.0590  0.0344 -0.1645
 8440TIP3    H146735   0.879   5.937   1.676  0.4444  0.0174 -0.2555
 8440TIP3    H246736   0.959   5.819   1.626  0.2596 -0.8151  1.3549
 8441TIP3   OH246737   2.793   5.719  16.528 -0.2749  0.5442 -0.7137
 8441TIP3    H146738   2.840   5.757  16.454 -0.6728 -0.8445 -1.7173
 8441TIP3    H246739   2.773   5.793  16.584  2.1667  1.3411 -0.7577
 8442TIP3   OH246740   3.427   4.659   0.252  0.4998  0.7377  0.1597
 8442TIP3    H146741   3.474   4.623   0.327 -2.6080  0.0587  1.9701
 8442TIP3    H246742   3.392   4.582   0.207 -1.4409  1.2543  0.7142
 8443TIP3   OH246743   5.504   5.670   2.905  0.2345  0.6009  0.3363
 8443TIP3    H146744   5.414   5.648   2.881  0.3141 -1.0453  1.3666
 8443TIP3    H246745   5.558   5.614   2.850  0.5758  0.4274  0.8445
 8444TIP3   OH246746   4.928   1.210   3.179 -0.4427 -0.3046 -0.2792
 8444TIP3    H146747   4.945   1.126   3.136  1.5692 -0.4163  0.5997
 8444TIP3    H246748   5.010   1.230   3.224 -1.5116  1.2174  1.0944
 8445TIP3   OH246749   5.500   4.304   4.632  0.2048 -0.0461 -0.7078
 8445TIP3    H146750   5.506   4.281   4.725  0.4307 -0.6449 -0.8638
 8445TIP3    H246751   5.574   4.362   4.616  0.3027 -0.1322 -0.5647
 8446TIP3   OH246752   4.262   2.859  15.782 -0.2075 -0.3453  0.4722
 8446TIP3    H146753   4.215   2.910  15.848 -0.8842  0.8321 -0.8899
 8446TIP3    H246754   4.204   2.785  15.763 -0.3547 -0.2674  0.6223
 8447TIP3   OH246755   2.017   3.623  16.418 -0.1543  0.0893 -0.2151
 8447TIP3    H146756   2.036   3.611  16.511  1.1341  0.6050 -0.3886
 8447TIP3    H246757   2.008   3.535  16.383 -3.3429 -0.1317  0.8723
 8448TIP3   OH246758   4.443   6.359  17.013  0.0111  0.1395  0.2142
 8448TIP3    H146759   4.456   6.282  16.958 -0.7854 -0.7801  1.2805
 8448TIP3    H246760   4.436   6.432  16.950 -0.6152 -0.8377 -0.8981
 8449TIP3   OH246761   4.926   2.075  14.833 -0.5748 -0.3471  0.0678
 8449TIP3    H146762   4.995   2.012  14.853  0.9843  1.3229  0.1473
 8449TIP3    H246763   4.915   2.125  14.914 -0.5517  0.6028 -0.5057
 8450TIP3   OH246764   1.125   3.462   5.029 -0.5345 -0.4346  0.2619
 8450TIP3    H146765   1.089   3.398   5.091  0.5276 -0.9243  0.4028
 8450TIP3    H246766   1.178   3.520   5.083  0.8056 -1.1660 -0.2257
 8451TIP3   OH246767   5.441   2.478   0.217 -0.0436 -0.3969 -0.3934
 8451TIP3    H146768   5.512   2.418   0.191 -0.9329 -0.4427 -3.0823
 8451TIP3    H246769   5.365   2.447   0.167 -2.1337 -0.5378  2.5997
 8452TIP3   OH246770   3.318   1.811   5.614 -0.4007 -0.2466 -0.2150
 8452TIP3    H146771   3.401   1.773   5.585 -0.1821  0.5558 -0.7000
 8452TIP3    H246772   3.278   1.744   5.667  0.5451 -0.6701 -0.0110
 8453TIP3   OH246773   2.527   0.534   2.394  0.4478  0.0953 -0.1108
 8453TIP3    H146774   2.607   0.561   2.351  0.4818 -0.2873 -0.2952
 8453TIP3    H246775   2.524   0.439   2.382  2.5794 -0.7784  4.1516
 8454TIP3   OH246776   3.709   3.607  16.319 -0.4772  0.0407 -0.7141
 8454TIP3    H146777   3.751   3.540  16.265 -0.0284 -1.4299  1.3345
 8454TIP3    H246778   3.621   3.573  16.335 -1.0496  1.0808 -1.4937
 8455TIP3   OH246779   4.395   4.085  13.766 -0.2824 -0.1518 -0.5854
 8455TIP3    H146780   4.365   4.119  13.681 -2.1607 -1.6749 -0.6118
 8455TIP3    H246781   4.404   4.162  13.821  2.3087  1.0503 -2.4694
 8456TIP3   OH246782   1.116   3.638   6.053 -0.3730  0.2149  0.0475
 8456TIP3    H146783   1.125   3.711   6.114  1.6624 -0.1344  0.2393
 8456TIP3    H246784   1.203   3.629   6.013 -0.6465 -1.8696 -0.2181
 8457TIP3   OH246785   1.163   4.227  11.823  0.1348 -0.1872  0.0905
 8457TIP3    H146786   1.072   4.257  11.829 -0.4255 -1.5720 -0.8192
 8457TIP3    H246787   1.171   4.160  11.890  0.6440  0.2762  0.5000
 8458TIP3   OH246788   5.346   4.751  12.474 -0.1770 -0.2186  0.0718
 8458TIP3    H146789   5.302   4.766  12.390  2.8472 -2.3830 -2.1530
 8458TIP3    H246790   5.323   4.827  12.527 -3.1357  0.7263 -2.2861
 8459TIP3   OH246791   3.294   6.540   3.417 -0.3945 -0.2673 -0.4435
 8459TIP3    H146792   3.264   6.450   3.432  0.8575 -0.5011  0.7976
 8459TIP3    H246793   3.364   6.554   3.481  0.4337  1.1002 -1.5813
 8460TIP3   OH246794   6.486   4.006   4.676  0.0147 -0.4332  0.3938
 8460TIP3    H146795   6.485   4.045   4.588  0.7050 -0.5969  0.3054
 8460TIP3    H246796   6.402   4.030   4.714 -0.0657  0.1094 -0.1136
 8461TIP3   OH246797   4.995   5.248   6.632  0.3630  0.2355  0.0315
 8461TIP3    H146798   4.984   5.153   6.628 -1.2389  0.4117 -0.5927
 8461TIP3    H246799   5.076   5.265   6.584 -0.2960 -0.6924 -1.5031
 8462TIP3   OH246800   1.348   4.884   0.043 -0.7105  0.0931  0.2358
 8462TIP3    H146801   1.427   4.840   0.012 -1.9590 -2.4109  0.3536
 8462TIP3    H246802   1.378   4.970   0.072  2.2758 -1.3943  1.9889
 8463TIP3   OH246803   2.605   5.988   3.127 -0.7163 -0.4439 -0.7643
 8463TIP3    H146804   2.530   5.948   3.085 -1.2344  0.3322 -0.6007
 8463TIP3    H246805   2.585   6.082   3.129 -0.3030 -0.3599  0.3824
 8464TIP3   OH246806   0.591   0.274  10.751 -0.0650  0.1238 -0.1141
 8464TIP3    H146807   0.634   0.359  10.757  1.2796 -0.5491  0.0042
 8464TIP3    H246808   0.504   0.293  10.716 -0.4960  1.7780  1.6928
 8465TIP3   OH246809   1.606   2.877   0.381 -0.2021 -0.1600  0.1059
 8465TIP3    H146810   1.646   2.873   0.294  1.0394  0.5356  0.6250
 8465TIP3    H246811   1.525   2.826   0.372  0.5500 -1.2056 -1.1006
 8466TIP3   OH246812   6.012   2.412   2.237 -0.1295  0.1705 -0.5454
 8466TIP3    H146813   5.938   2.372   2.283  1.6777 -0.4632  2.0638
 8466TIP3    H246814   6.047   2.476   2.299  0.7899  1.3849 -2.2133
 8467TIP3   OH246815   2.272   2.173   4.822  0.6847 -0.0211 -0.3152
 8467TIP3    H146816   2.197   2.211   4.869  0.0143 -0.9060 -0.6287
 8467TIP3    H246817   2.300   2.242   4.762 -0.9294 -0.2062 -1.3461
 8468TIP3   OH246818   5.320   3.349   0.282  0.5278  0.3132  0.2139
 8468TIP3    H146819   5.367   3.275   0.243  0.9220  0.3869  0.5435
 8468TIP3    H246820   5.230   3.337   0.255  0.9593  0.9468 -1.6411
 8469TIP3   OH246821   2.622   4.414  12.203  0.0531  0.4830 -0.3273
 8469TIP3    H146822   2.647   4.500  12.239  0.7254 -0.3880  1.4193
 8469TIP3    H246823   2.535   4.398  12.239  0.6961 -0.3583  0.9372
 8470TIP3   OH246824   2.735   3.575   2.696 -0.3925 -0.4361 -0.5625
 8470TIP3    H146825   2.819   3.557   2.653  0.8172  0.7144  1.2123
 8470TIP3    H246826   2.681   3.498   2.676  1.4050 -1.6616 -0.9163
 8471TIP3   OH246827   3.683   1.426  11.041  0.0196 -0.6915  0.0330
 8471TIP3    H146828   3.777   1.447  11.038  0.0544 -0.9417 -0.9615
 8471TIP3    H246829   3.681   1.332  11.060 -0.0784 -0.3768  1.7041
 8472TIP3   OH246830   0.155   4.939  14.499  0.3410 -0.3655  0.4432
 8472TIP3    H146831   0.084   4.904  14.445  0.0205 -1.0232  1.2692
 8472TIP3    H246832   0.193   4.862  14.541  0.9534  0.0794  0.7142
 8473TIP3   OH246833   2.126   5.383  11.987  0.1276  0.4286  0.2554
 8473TIP3    H146834   2.185   5.406  12.059 -0.5731  0.4348  0.8327
 8473TIP3    H246835   2.183   5.380  11.910  1.2278 -1.3332  1.0737
 8474TIP3   OH246836   4.125   0.512   4.580 -0.5547 -0.0624 -0.0436
 8474TIP3    H146837   4.147   0.455   4.506 -0.1769  1.3826 -1.1106
 8474TIP3    H246838   4.032   0.533   4.567 -0.4654  0.2629 -0.1647
 8475TIP3   OH246839   4.995   2.677   4.866  0.5542 -0.2721 -0.2231
 8475TIP3    H146840   5.005   2.613   4.937  0.8562  0.5415  0.4899
 8475TIP3    H246841   4.901   2.686   4.855  0.4907  0.0399  0.5062
 8476TIP3   OH246842   2.028   3.722  10.939 -0.1958 -0.1268 -0.2890
 8476TIP3    H146843   2.100   3.727  10.876 -0.5810 -0.0052 -0.7310
 8476TIP3    H246844   1.960   3.672  10.893  0.1684 -1.5810  0.6825
 8477TIP3   OH246845   2.118   2.948  13.267 -0.1049 -0.1742 -0.1369
 8477TIP3    H146846   2.119   3.024  13.326 -0.1446 -1.2170  1.2728
 8477TIP3    H246847   2.203   2.906  13.282 -0.5568 -1.0571  0.0181
 8478TIP3   OH246848   1.315   5.303   2.433 -0.0930  0.1247 -0.3697
 8478TIP3    H146849   1.286   5.334   2.347 -0.3236 -1.8891 -1.0716
 8478TIP3    H246850   1.387   5.362   2.456  1.8901 -0.9355 -3.2763
 8479TIP3   OH246851   0.921   4.172   3.528 -0.0773  0.3357  0.2419
 8479TIP3    H146852   0.998   4.124   3.497 -0.5811 -0.9673  0.9328
 8479TIP3    H246853   0.847   4.115   3.508 -0.8177  1.3174  0.1068
 8480TIP3   OH246854   0.648   5.593  13.976  0.1428  0.4775 -0.0956
 8480TIP3    H146855   0.615   5.541  14.049  1.2061  0.5835  0.4699
 8480TIP3    H246856   0.569   5.621  13.929 -0.5016 -0.4436  0.4158
 8481TIP3   OH246857   2.116   3.223  15.104 -0.3477  0.5757 -0.1633
 8481TIP3    H146858   2.125   3.262  15.191 -0.3777  1.4364 -0.5457
 8481TIP3    H246859   2.181   3.267  15.050 -0.1273 -0.1661 -0.5127
 8482TIP3   OH246860   4.969   6.300   0.327  0.5855  0.3785  0.1917
 8482TIP3    H146861   4.925   6.291   0.243  0.8773  0.6166  0.0130
 8482TIP3    H246862   4.901   6.336   0.385  0.6514  1.1255 -0.1829
 8483TIP3   OH246863   6.747   0.794   5.742 -0.1355 -0.1829 -0.5800
 8483TIP3    H146864   6.758   0.837   5.827 -2.6978 -0.7178  0.1007
 8483TIP3    H246865   6.811   0.723   5.742 -0.1783 -0.2481  0.9748
 8484TIP3   OH246866   6.113   5.422   1.254  0.1767 -0.2382 -0.2374
 8484TIP3    H146867   6.025   5.460   1.259 -0.1089 -0.8231 -0.6063
 8484TIP3    H246868   6.102   5.344   1.198  0.5339 -1.4359  1.2980
 8485TIP3   OH246869   1.544   0.360  13.436  0.2620  0.1014 -0.2196
 8485TIP3    H146870   1.451   0.382  13.442  0.3256  0.7882 -1.4290
 8485TIP3    H246871   1.586   0.442  13.411  1.0546 -0.4389 -0.6985
 8486TIP3   OH246872   5.280   5.175  11.238  0.0745 -0.3450 -0.4478
 8486TIP3    H146873   5.242   5.262  11.249 -1.4726 -0.9144 -0.9141
 8486TIP3    H246874   5.279   5.161  11.143  2.9224  0.1788 -0.6504
 8487TIP3   OH246875   0.090   5.662  15.501 -0.5912 -0.2554 -0.6657
 8487TIP3    H146876   0.031   5.720  15.452 -2.5560 -1.5723 -0.0092
 8487TIP3    H246877   0.132   5.609  15.434 -1.9037 -0.8300 -1.0695
 8488TIP3   OH246878   2.886   6.585  15.617  0.3069  0.0944 -0.6088
 8488TIP3    H146879   2.891   6.681  15.612 -0.9680  0.3860  1.9179
 8488TIP3    H246880   2.795   6.565  15.598  0.3088 -0.4913 -0.0265
 8489TIP3   OH246881   5.885   3.073   0.040 -0.2687  0.0596  0.5395
 8489TIP3    H146882   5.798   3.061   0.077 -0.6998  0.2383 -0.3977
 8489TIP3    H246883   5.944   3.032   0.104 -0.8566  1.5087  2.0789
 8490TIP3   OH246884   5.789   1.033   3.013  0.7110  0.0627  0.0238
 8490TIP3    H146885   5.699   1.017   3.042  1.0008  2.6109  2.7339
 8490TIP3    H246886   5.786   1.022   2.918 -3.0181  2.1827 -0.2735
 8491TIP3   OH246887   0.602   1.220   5.977  0.6717 -0.2534  0.7968
 8491TIP3    H146888   0.553   1.267   5.910  1.5268  0.5181  0.7019
 8491TIP3    H246889   0.534   1.186   6.036 -0.1110 -1.2378 -0.6094
 8492TIP3   OH246890   1.906   2.747  13.176  0.3235  0.7816 -0.1157
 8492TIP3    H146891   1.988   2.789  13.201  0.8841  0.7918 -1.8049
 8492TIP3    H246892   1.913   2.658  13.211  2.1059  0.0507 -2.0675
 8493TIP3   OH246893   2.585   3.985   5.735 -0.1757 -0.0082  0.0174
 8493TIP3    H146894   2.555   3.897   5.710  0.9767 -0.1399 -1.0217
 8493TIP3    H246895   2.632   3.971   5.817  0.0904 -0.3982 -0.1938
 8494TIP3   OH246896   1.409   1.365  14.873  0.3168  0.3353  0.0812
 8494TIP3    H146897   1.417   1.273  14.898 -1.8418  0.5381  1.8402
 8494TIP3    H246898   1.337   1.366  14.809 -0.0163  0.8327  0.4557
 8495TIP3   OH246899   2.446   6.557  11.633 -0.0291  0.1166 -0.2998
 8495TIP3    H146900   2.498   6.637  11.640 -0.6740  0.4905  0.4550
 8495TIP3    H246901   2.502   6.496  11.586  1.0748  0.5109  0.4501
 8496TIP3   OH246902   4.616   2.589  13.919 -0.0354 -0.2311 -0.3637
 8496TIP3    H146903   4.574   2.650  13.858  0.4757  0.3926 -0.1117
 8496TIP3    H246904   4.697   2.563  13.875 -0.3086 -0.8263 -0.5210
 8497TIP3   OH246905   4.651   3.339  17.259 -0.1861  0.5151 -0.0864
 8497TIP3    H146906   4.640   3.387  17.341 -1.1605  0.1222  0.0310
 8497TIP3    H246907   4.706   3.264  17.282 -0.2310  0.5537  0.1545
 8498TIP3   OH246908   2.850   0.173   0.295  0.5885  0.0220 -0.0017
 8498TIP3    H146909   2.806   0.089   0.307 -0.8738  0.7063 -0.3776
 8498TIP3    H246910   2.849   0.188   0.200 -1.1846  1.4694  0.1967
 8499TIP3   OH246911   3.763   3.408   5.539  0.1108  0.2709  0.0883
 8499TIP3    H146912   3.793   3.498   5.547  1.8214 -0.3074  0.6510
 8499TIP3    H246913   3.705   3.395   5.613 -2.0454  1.5548 -1.2716
 8500TIP3   OH246914   5.983   3.350  11.044  0.5385 -0.1317 -0.1431
 8500TIP3    H146915   5.953   3.285  11.108 -1.6638 -0.9099 -1.8461
 8500TIP3    H246916   6.037   3.299  10.983  1.1214  0.2481  0.0423
 8501TIP3   OH246917   5.814   5.791  13.139  0.3618  0.0541  0.3666
 8501TIP3    H146918   5.836   5.870  13.089  2.0387 -0.5455  0.0855
 8501TIP3    H246919   5.780   5.731  13.073  0.2664  0.1042  0.3696
 8502TIP3   OH246920   2.219   2.670  14.897 -0.1739 -0.2869 -0.3505
 8502TIP3    H146921   2.208   2.722  14.817  0.1821 -0.4385 -0.5008
 8502TIP3    H246922   2.287   2.717  14.946  0.0456 -0.5298 -0.4195
 8503TIP3   OH246923   4.067   4.773   2.187  0.4874 -0.6669  0.2612
 8503TIP3    H146924   3.976   4.752   2.165  0.3152  0.1475  0.1940
 8503TIP3    H246925   4.119   4.729   2.119  0.0223  0.7488 -1.0430
 8504TIP3   OH246926   0.818   4.455  10.966 -0.7564  0.1243 -0.8137
 8504TIP3    H146927   0.756   4.522  10.939 -0.7490  0.3864 -0.1900
 8504TIP3    H246928   0.789   4.428  11.053  0.9219  1.4071  0.1931
 8505TIP3   OH246929   3.248   6.261  13.425  0.4527 -0.3094 -0.5805
 8505TIP3    H146930   3.318   6.204  13.458  0.1652 -0.4731 -0.2505
 8505TIP3    H246931   3.229   6.227  13.337 -0.3630 -1.3247 -0.0373
 8506TIP3   OH246932   4.153   4.723  11.659  0.0319 -0.5898 -0.4346
 8506TIP3    H146933   4.194   4.641  11.687 -1.2546 -1.9366 -2.1907
 8506TIP3    H246934   4.214   4.760  11.595 -0.2180 -1.1847 -1.0324
 8507TIP3   OH246935   3.741   3.278   4.485  0.3569  0.3416 -0.2785
 8507TIP3    H146936   3.754   3.254   4.393 -0.1785 -0.9596 -0.0366
 8507TIP3    H246937   3.718   3.371   4.482  0.6071  0.3870 -1.4382
 8508TIP3   OH246938   2.128   4.956  10.334  0.2107  0.1975 -0.2678
 8508TIP3    H146939   2.040   4.944  10.368  0.2475  0.0656 -0.2174
 8508TIP3    H246940   2.186   4.935  10.408  0.2968 -0.3698 -0.4883
 8509TIP3   OH246941   5.440   0.583   3.188 -0.1180 -0.3836  0.9710
 8509TIP3    H146942   5.359   0.564   3.140 -0.4014  1.7280  0.5083
 8509TIP3    H246943   5.507   0.591   3.120  0.0318 -0.0067  1.1609
 8510TIP3   OH246944   3.107   5.072  17.169  0.1978  0.2885 -0.3981
 8510TIP3    H146945   3.125   4.994  17.116 -2.4492 -0.4228 -0.3523
 8510TIP3    H246946   3.170   5.137  17.137  0.5392 -0.9743 -2.4564
 8511TIP3   OH246947   4.568   0.263  14.684  0.5564 -0.4149 -0.0224
 8511TIP3    H146948   4.525   0.330  14.738  2.4438  0.8900 -0.0317
 8511TIP3    H246949   4.496   0.214  14.645 -1.1959  4.0258 -3.1456
 8512TIP3   OH246950   0.413   2.691   3.097 -0.0678 -0.5436 -0.4811
 8512TIP3    H146951   0.358   2.766   3.120 -1.1217 -1.7626  1.2460
 8512TIP3    H246952   0.470   2.723   3.028 -1.7515  1.3015 -1.0981
 8513TIP3   OH246953   1.068   2.894  15.054 -0.0289 -0.2000  0.1644
 8513TIP3    H146954   1.082   2.840  15.132 -1.4610  0.4600  0.9088
 8513TIP3    H246955   1.118   2.973  15.070 -0.7618  0.1693  0.6871
 8514TIP3   OH246956   5.964   2.849   1.428 -0.1076  0.4554  0.2658
 8514TIP3    H146957   5.998   2.931   1.393 -0.5371  0.6693  0.3431
 8514TIP3    H246958   5.976   2.857   1.523 -1.4537  1.0420  0.4061
 8515TIP3   OH246959   0.683   0.432  13.720 -0.1377  0.6299 -0.6247
 8515TIP3    H146960   0.660   0.399  13.633  0.7863  2.1165 -1.4675
 8515TIP3    H246961   0.598   0.440  13.765 -0.5440 -1.0221 -1.0325
 8516TIP3   OH246962   0.587   0.038   3.992  0.2139 -0.1132 -0.5622
 8516TIP3    H146963   0.496   0.062   3.973 -0.1207  0.7284  1.8407
 8516TIP3    H246964   0.606   0.080   4.075  2.2380 -1.7847 -0.1060
 8517TIP3   OH246965   3.702   3.552  15.526 -0.3296  0.8989 -0.4957
 8517TIP3    H146966   3.691   3.489  15.454 -0.4364  1.1218 -0.6778
 8517TIP3    H246967   3.667   3.634  15.491 -1.6629  0.6992  0.2811
 8518TIP3   OH246968   2.693   4.935  13.773 -0.0635 -0.1999 -0.8660
 8518TIP3    H146969   2.682   5.009  13.833 -1.1717  0.0965 -1.4172
 8518TIP3    H246970   2.787   4.917  13.776 -0.0610 -0.1377  0.8792
 8519TIP3   OH246971   0.684   4.013   5.341  0.1100  0.2837 -0.1427
 8519TIP3    H146972   0.591   4.035   5.354 -0.0431  0.8032 -1.8396
 8519TIP3    H246973   0.726   4.039   5.422 -1.1549  0.5273  0.4641
 8520TIP3   OH246974   5.718   0.977  15.788 -0.3587 -0.1001  0.2535
 8520TIP3    H146975   5.633   0.932  15.785 -0.3095 -0.1792 -0.0031
 8520TIP3    H246976   5.747   0.977  15.697 -0.8400  1.3727  0.0695
 8521TIP3   OH246977   2.805   5.356   1.388  0.0073 -0.1062  0.3450
 8521TIP3    H146978   2.797   5.375   1.482  1.2680  0.5640  0.3261
 8521TIP3    H246979   2.819   5.441   1.347  0.0721 -0.4683 -0.3884
 8522TIP3   OH246980   0.314   2.332   4.762  0.2664  0.1371 -0.3611
 8522TIP3    H146981   0.234   2.382   4.776  0.7939  1.4618 -1.7638
 8522TIP3    H246982   0.286   2.251   4.721 -0.4326  0.1000  0.1729
 8523TIP3   OH246983   0.868   2.555  11.483  0.3284  0.1881 -0.4286
 8523TIP3    H146984   0.869   2.484  11.418  4.0065 -0.5099  0.1917
 8523TIP3    H246985   0.826   2.628  11.439 -1.2017 -1.5474 -2.0139
 8524TIP3   OH246986   3.818   1.000  12.576 -0.0581 -0.0665  0.3306
 8524TIP3    H146987   3.825   1.062  12.648 -0.6955  1.1139 -0.5864
 8524TIP3    H246988   3.748   1.035  12.521 -0.3668 -1.5566 -0.2737
 8525TIP3   OH246989   4.912   5.922   1.570  0.3182 -0.3014  0.6968
 8525TIP3    H146990   4.860   5.855   1.526  1.4146 -0.4855 -0.3651
 8525TIP3    H246991   4.853   5.998   1.575 -0.2594 -0.6955  0.0969
 8526TIP3   OH246992   1.674   3.773  10.629  0.1761  0.5555 -0.0157
 8526TIP3    H146993   1.622   3.815  10.560  1.2216 -1.1553 -1.9542
 8526TIP3    H246994   1.752   3.827  10.638  0.8828 -0.1485 -1.5351
 8527TIP3   OH246995   0.300   5.082  15.748  0.1663  0.0087  0.5070
 8527TIP3    H146996   0.329   5.033  15.670  0.8378  0.1251  0.6750
 8527TIP3    H246997   0.346   5.041  15.821  1.8306  1.6994  0.5082
 8528TIP3   OH246998   2.715   4.206   1.344 -0.4044 -0.0427 -0.5287
 8528TIP3    H146999   2.732   4.263   1.419  1.5819 -1.6632  0.3340
 8528TIP3    H247000   2.658   4.137   1.378 -0.5603 -0.0737 -0.8475
 8529TIP3   OH247001   5.038   4.266   5.853  0.0036  0.0775 -0.8485
 8529TIP3    H147002   5.103   4.275   5.922  0.0080  0.6153 -0.9125
 8529TIP3    H247003   5.070   4.323   5.782 -0.6261  0.5083 -0.8020
 8530TIP3   OH247004   3.696   2.281   3.995 -0.4251  0.4561 -0.1677
 8530TIP3    H147005   3.709   2.202   3.942 -0.6866 -0.2183  0.7450
 8530TIP3    H247006   3.734   2.351   3.943 -1.5542 -0.0232 -1.7011
 8531TIP3   OH247007   3.763   4.984   2.500 -0.2039 -0.4634 -0.1851
 8531TIP3    H147008   3.729   4.915   2.557 -0.6274  1.3588  1.9258
 8531TIP3    H247009   3.840   4.945   2.458 -1.0274 -2.5217  0.1156
 8532TIP3   OH247010   0.021   2.237   3.333  0.0266 -0.3845 -0.7946
 8532TIP3    H147011   0.026   2.203   3.243  0.8310 -1.3107 -0.4268
 8532TIP3    H247012   0.091   2.302   3.338 -1.1793  0.9961 -1.3470
 8533TIP3   OH247013   3.220   4.797  13.389  0.4845  0.2716  0.2221
 8533TIP3    H147014   3.203   4.840  13.473 -1.7008 -0.6573  0.3334
 8533TIP3    H247015   3.199   4.705  13.404 -4.0253  0.6020 -2.1880
 8534TIP3   OH247016   2.202   2.343  11.926 -0.1802 -0.2353  0.0094
 8534TIP3    H147017   2.199   2.421  11.871  2.8700  0.6025  0.8669
 8534TIP3    H247018   2.170   2.372  12.012 -0.5031 -0.3610 -0.0639
 8535TIP3   OH247019   0.280   0.469   5.046  0.0205  0.2116 -0.0658
 8535TIP3    H147020   0.353   0.429   5.000 -0.8980 -0.4046 -1.0326
 8535TIP3    H247021   0.203   0.421   5.016 -0.7851  0.8040  0.9695
 8536TIP3   OH247022   2.960   3.794  11.811  0.0885  0.0137  0.2671
 8536TIP3    H147023   3.003   3.841  11.883  0.1313 -0.5009  0.5772
 8536TIP3    H247024   2.870   3.828  11.811  0.2498  0.4572  0.1703
 8537TIP3   OH247025   0.431   6.686  15.469  0.1727  0.3051 -0.5555
 8537TIP3    H147026   0.487   6.736  15.528 -0.2481  0.7113 -0.4938
 8537TIP3    H247027   0.491   6.649  15.404  0.4197  1.3750 -0.9501
 8538TIP3   OH247028   3.539   0.060  13.640 -0.3326 -0.5164 -0.1839
 8538TIP3    H147029   3.618   0.054  13.694 -0.5345 -0.2393  0.1410
 8538TIP3    H247030   3.469   0.027  13.695 -0.3084 -1.6167 -0.7826
 8539TIP3   OH247031   0.878   3.892   4.773  0.3368 -0.1957 -0.0321
 8539TIP3    H147032   0.875   3.985   4.798 -1.2460  0.0697 -1.0900
 8539TIP3    H247033   0.869   3.845   4.856  0.3746  0.5927  0.4337
 8540TIP3   OH247034   4.914   1.314   1.470  0.3795 -0.7235 -0.5009
 8540TIP3    H147035   4.996   1.351   1.437  1.2077 -0.8754  1.2477
 8540TIP3    H247036   4.915   1.224   1.439  2.1246 -1.4680  1.4604
 8541TIP3   OH247037   6.602   2.569   5.679 -0.0744 -0.1411 -0.6718
 8541TIP3    H147038   6.565   2.493   5.725  0.6232 -1.0683 -1.6005
 8541TIP3    H247039   6.658   2.531   5.611 -0.3257  1.1978 -1.6677
 8542TIP3   OH247040   2.081   2.642  16.796  0.1428 -0.0095  0.2583
 8542TIP3    H147041   2.125   2.590  16.863 -0.1325  0.1681  0.5810
 8542TIP3    H247042   2.003   2.677  16.840 -0.3886 -0.4157 -0.3342
 8543TIP3   OH247043   1.924   5.492   0.201  0.5418  0.2653  0.0459
 8543TIP3    H147044   1.960   5.562   0.147 -1.1357  1.3158  0.2125
 8543TIP3    H247045   1.967   5.502   0.286  2.8666 -1.1222 -0.8542
 8544TIP3   OH247046   0.903   2.544   0.354 -0.0311 -0.3116 -0.8264
 8544TIP3    H147047   0.995   2.530   0.378  0.8667 -0.4958 -3.8993
 8544TIP3    H247048   0.877   2.463   0.310 -1.3324  0.1676 -0.9883
 8545TIP3   OH247049   0.496   6.260   4.704  0.4456 -0.0586 -0.8758
 8545TIP3    H147050   0.496   6.345   4.661 -0.0469  0.2234 -0.3376
 8545TIP3    H247051   0.554   6.270   4.779 -0.4771  0.1577 -0.1669
 8546TIP3   OH247052   2.868   5.936   6.429  0.3276  0.3361 -0.2878
 8546TIP3    H147053   2.913   5.944   6.345 -0.4148  3.6332 -0.4991
 8546TIP3    H247054   2.891   6.015   6.477 -2.5129  0.5863  0.9041
 8547TIP3   OH247055   0.334   0.547  10.458 -0.6201  0.3407  0.1266
 8547TIP3    H147056   0.262   0.610  10.453 -2.1667 -1.3590 -0.2275
 8547TIP3    H247057   0.412   0.598  10.436 -1.4009  2.6446  2.2321
 8548TIP3   OH247058   4.292   5.967  12.908 -0.2229 -0.1215 -0.0466
 8548TIP3    H147059   4.292   6.052  12.865 -0.1898  0.1616  0.4959
 8548TIP3    H247060   4.207   5.929  12.887 -1.5454  1.3724  2.2209
 8549TIP3   OH247061   6.160   6.199   0.588 -0.2811 -0.7239  0.1797
 8549TIP3    H147062   6.120   6.235   0.667  0.3014  0.4698 -0.0352
 8549TIP3    H247063   6.130   6.257   0.518 -0.0108 -1.1870 -0.3270
 8550TIP3   OH247064   6.747   2.548   0.181 -0.2990 -0.7118  0.4874
 8550TIP3    H147065   6.766   2.461   0.148  1.6257 -1.0668  2.3244
 8550TIP3    H247066   6.756   2.605   0.104  2.9792 -1.5959  0.0746
 8551TIP3   OH247067   0.130   6.647  12.349  0.6415 -0.1193 -0.4825
 8551TIP3    H147068   0.126   6.577  12.414 -1.3322 -1.5103 -1.9905
 8551TIP3    H247069   0.172   6.607  12.273 -0.6607  0.2321 -1.4277
 8552TIP3   OH247070   3.626   3.378   5.249 -0.3404  0.7482 -0.2667
 8552TIP3    H147071   3.656   3.360   5.338  1.3042  1.4077 -0.6331
 8552TIP3    H247072   3.707   3.386   5.199 -1.1009  3.1383 -1.2598
 8553TIP3   OH247073   0.482   0.091  16.286  0.6104 -0.9085  0.3384
 8553TIP3    H147074   0.404   0.091  16.342  0.1521 -0.2300 -0.2807
 8553TIP3    H247075   0.489   0.001  16.254  0.8171 -1.2809  1.3843
 8554TIP3   OH247076   3.968   6.299  15.532 -0.0372  0.0666 -0.1224
 8554TIP3    H147077   3.966   6.210  15.498 -1.2649 -1.0359  2.5819
 8554TIP3    H247078   3.892   6.305  15.589  0.6509  2.4938  0.6792
 8555TIP3   OH247079   2.485   0.108   1.507 -0.3225 -0.2511 -0.4360
 8555TIP3    H147080   2.478   0.013   1.500 -0.9846 -0.1331 -1.7042
 8555TIP3    H247081   2.576   0.127   1.486 -0.6261 -0.4869 -2.1002
 8556TIP3   OH247082   6.700   0.420  12.487  0.6191 -0.1371 -0.0080
 8556TIP3    H147083   6.635   0.445  12.422  0.6254  0.2236  0.1228
 8556TIP3    H247084   6.731   0.333  12.458  0.6270  0.0216 -0.4884
 8557TIP3   OH247085   3.928   1.439   5.037  0.4507 -0.1658 -0.5911
 8557TIP3    H147086   3.860   1.480   4.983  0.2848  1.9722  1.0647
 8557TIP3    H247087   3.904   1.347   5.040 -1.0156  0.1228 -1.9679
 8558TIP3   OH247088   0.741   4.236   3.178  0.2064  1.0711  0.4959
 8558TIP3    H147089   0.760   4.152   3.220 -0.3218  1.0362  0.6789
 8558TIP3    H247090   0.757   4.220   3.085  1.3732  1.1443  0.6672
 8559TIP3   OH247091   2.664   4.098  16.189 -0.5170  0.3922 -0.4351
 8559TIP3    H147092   2.734   4.076  16.251 -0.8007  1.8374  0.4563
 8559TIP3    H247093   2.666   4.028  16.124  0.1588 -0.8767  0.9083
 8560TIP3   OH247094   2.190   6.605   4.370 -0.1622 -1.0422 -0.2902
 8560TIP3    H147095   2.108   6.630   4.326 -0.3147  0.3874  0.7283
 8560TIP3    H247096   2.166   6.528   4.422 -0.3293 -1.8694 -1.5289
 8561TIP3   OH247097   5.898   5.593   5.542 -0.7679  0.0613  0.3488
 8561TIP3    H147098   5.893   5.685   5.514 -0.4961  1.2491  3.7232
 8561TIP3    H247099   5.810   5.573   5.574 -0.5289 -0.4479  0.6975
 8562TIP3   OH247100   5.842   0.690  14.581  0.1781  0.1471 -0.2505
 8562TIP3    H147101   5.770   0.628  14.573  0.5181 -0.2806 -0.0121
 8562TIP3    H247102   5.809   0.770  14.541 -1.1271  0.5304  1.4551
 8563TIP3   OH247103   1.351   1.264  12.534  0.1545  0.4880  0.3276
 8563TIP3    H147104   1.400   1.290  12.455 -1.3653 -0.8815 -1.1346
 8563TIP3    H247105   1.303   1.342  12.559 -2.3992  0.0211 -2.5172
 8564TIP3   OH247106   2.404   3.658  12.890 -0.3296  0.5440  0.3495
 8564TIP3    H147107   2.390   3.589  12.825 -0.6921 -0.1982  1.1795
 8564TIP3    H247108   2.442   3.612  12.965 -0.2710  1.3099  0.7945
 8565TIP3   OH247109   5.737   6.209   0.796 -0.4600  0.1265 -0.4058
 8565TIP3    H147110   5.734   6.155   0.875 -1.4035 -0.1739 -0.6399
 8565TIP3    H247111   5.700   6.154   0.727  0.1785  0.4554 -1.0307
 8566TIP3   OH247112   4.710   3.855   6.055 -0.2867  0.0173 -0.1825
 8566TIP3    H147113   4.637   3.833   5.997 -1.8866 -1.9518  2.3170
 8566TIP3    H247114   4.680   3.932   6.103  0.5596  0.9728 -1.1564
 8567TIP3   OH247115   1.329   4.499   2.421  0.2622 -0.6208  0.2863
 8567TIP3    H147116   1.247   4.464   2.386 -0.8397  0.5901  1.4962
 8567TIP3    H247117   1.389   4.425   2.423 -0.5581 -1.3705 -1.3108
 8568TIP3   OH247118   1.302   5.813   3.347  0.6078  0.2955  0.4708
 8568TIP3    H147119   1.282   5.904   3.325  2.2914  0.6156  0.1322
 8568TIP3    H247120   1.293   5.766   3.265  2.2900  0.6464  0.0605
 8569TIP3   OH247121   1.839   1.491   0.277  0.0963 -0.2906 -0.1210
 8569TIP3    H147122   1.921   1.447   0.299 -0.0436 -0.6404 -0.3104
 8569TIP3    H247123   1.789   1.491   0.359  0.6417  0.7172  0.2402
 8570TIP3   OH247124   5.956   5.789   3.578 -0.8559  0.0477 -0.1512
 8570TIP3    H147125   6.047   5.771   3.600 -0.4846  1.3985 -0.4918
 8570TIP3    H247126   5.954   5.882   3.555 -2.1232 -0.1905 -1.1609
 8571TIP3   OH247127   4.492   0.930   0.616 -0.0035 -0.3611 -0.7486
 8571TIP3    H147128   4.404   0.962   0.633  0.8669  0.6827  2.4052
 8571TIP3    H247129   4.490   0.838   0.641  0.3661  0.3255  2.2233
 8572TIP3   OH247130   5.122   2.600   4.207  0.1312  0.2922  0.0767
 8572TIP3    H147131   5.110   2.658   4.132 -0.5920 -1.2743 -1.0673
 8572TIP3    H247132   5.176   2.651   4.267  0.2009  1.8432 -1.2154
 8573TIP3   OH247133   0.007   0.177   1.993 -0.0838  0.0564 -0.2152
 8573TIP3    H147134   0.039   0.133   1.914 -1.3152  0.2040 -0.8263
 8573TIP3    H247135  -0.086   0.192   1.976 -0.5101 -0.4232  1.5157
 8574TIP3   OH247136   2.958   5.397  16.547  0.1506 -0.3747 -0.3963
 8574TIP3    H147137   2.948   5.437  16.633  0.6356  0.2281 -0.6129
 8574TIP3    H247138   2.868   5.386  16.515  0.0009  0.7988 -0.4362
 8575TIP3   OH247139   0.923   2.163   0.997  0.3835 -0.2077  0.1891
 8575TIP3    H147140   1.004   2.214   0.990  0.2699 -0.1996 -1.3482
 8575TIP3    H247141   0.855   2.229   1.012  0.7548 -0.3023  2.8510
 8576TIP3   OH247142   3.933   2.876  15.402  0.3175  0.4906  0.0589
 8576TIP3    H147143   3.879   2.946  15.367  1.1709  0.8995 -0.4789
 8576TIP3    H247144   3.871   2.808  15.429 -0.5223  1.4483  0.5910
 8577TIP3   OH247145   1.455   2.048   3.080  0.5125  0.0418  0.0458
 8577TIP3    H147146   1.424   2.133   3.051  0.2202 -0.0162  0.1887
 8577TIP3    H247147   1.382   2.010   3.129  1.3738  0.6556  1.9341
 8578TIP3   OH247148   0.206   5.822   0.682  0.9131 -0.1595  0.7712
 8578TIP3    H147149   0.241   5.768   0.753  1.5948 -1.3620 -0.4457
 8578TIP3    H247150   0.283   5.851   0.633  0.4648  0.8033  0.6038
 8579TIP3   OH247151   1.451   3.421   1.243 -0.0115 -0.3891  0.0382
 8579TIP3    H147152   1.487   3.344   1.286  2.0487 -0.1002 -1.0283
 8579TIP3    H247153   1.525   3.458   1.195 -1.5139  0.9124 -1.3933
 8580TIP3   OH247154   1.226   4.029  10.553  0.3878 -0.0745  0.1617
 8580TIP3    H147155   1.209   3.984  10.470 -1.6731 -2.2601  1.6223
 8580TIP3    H247156   1.169   4.106  10.550 -2.8293 -2.2266  1.0167
 8581TIP3   OH247157   5.472   4.656   1.841  0.3891  0.0561 -0.3844
 8581TIP3    H147158   5.537   4.668   1.911 -0.4880  0.8016  0.3319
 8581TIP3    H247159   5.524   4.641   1.762  1.4346  0.8259  0.1347
 8582TIP3   OH247160   3.639   4.579  11.488  0.2190  0.2525  0.0490
 8582TIP3    H147161   3.551   4.615  11.487  0.4395  0.8479  0.7917
 8582TIP3    H247162   3.636   4.505  11.428 -0.5786  0.7475 -0.5374
 8583TIP3   OH247163   1.163   3.579   0.878 -0.0387  0.3999  0.3925
 8583TIP3    H147164   1.088   3.636   0.858  1.6975  2.7242  0.1540
 8583TIP3    H247165   1.152   3.504   0.820 -1.3444  1.4504 -0.7805
 8584TIP3   OH247166   1.150   6.043   6.211  0.1789  0.1799 -0.1143
 8584TIP3    H147167   1.093   5.966   6.212 -1.2325  1.1613 -0.6122
 8584TIP3    H247168   1.099   6.111   6.254  0.9192  1.1394 -0.7020
 8585TIP3   OH247169   2.474   3.971  17.294  0.1695  0.2006  0.5970
 8585TIP3    H147170   2.477   3.877  17.272  1.3942 -0.1307  2.0253
 8585TIP3    H247171   2.557   4.006  17.261 -0.7920  1.0995 -1.0272
 8586TIP3   OH247172   5.255   2.379  13.906 -0.0611 -0.2763  0.3829
 8586TIP3    H147173   5.251   2.451  13.969 -1.2199  0.5643 -0.5941
 8586TIP3    H247174   5.348   2.366  13.890  0.1826  0.6582  0.9846
 8587TIP3   OH247175   5.353   6.466  15.522  0.0939  0.2317 -0.4169
 8587TIP3    H147176   5.392   6.412  15.590  0.1587  0.3571 -0.3548
 8587TIP3    H247177   5.388   6.553  15.537 -1.8195  0.8285  0.9481
 8588TIP3   OH247178   5.916   1.730   4.549 -0.0017  0.7398  0.0622
 8588TIP3    H147179   5.980   1.714   4.619 -1.7297  1.1136  1.8231
 8588TIP3    H247180   5.928   1.822   4.526 -0.4643  1.0551  1.0240
 8589TIP3   OH247181   5.986   3.168   4.924 -0.2966 -0.0206  0.4854
 8589TIP3    H147182   5.968   3.190   4.833 -1.8985 -0.5295  0.6565
 8589TIP3    H247183   5.928   3.224   4.975  0.1711 -0.1470  1.1771
 8590TIP3   OH247184   2.569   2.424   2.499  0.5330 -0.4458  0.0786
 8590TIP3    H147185   2.622   2.503   2.505  1.2565 -0.1656 -5.0019
 8590TIP3    H247186   2.630   2.355   2.474 -0.4455 -2.1526  2.0947
 8591TIP3   OH247187   4.595   5.454   3.793 -0.2578 -0.4324 -0.2894
 8591TIP3    H147188   4.570   5.378   3.846  0.9710 -0.8012 -0.2082
 8591TIP3    H247189   4.588   5.528   3.853  1.6522 -0.9144  0.5974
 8592TIP3   OH247190   5.914   3.385  15.775 -0.2531 -0.1603  1.0642
 8592TIP3    H147191   5.978   3.396  15.845  0.9955 -3.1397  0.5419
 8592TIP3    H247192   5.881   3.296  15.786 -1.1036 -0.2068 -1.2364
 8593TIP3   OH247193   1.277   1.368   2.391 -0.4498 -0.2044 -0.0380
 8593TIP3    H147194   1.307   1.453   2.360 -0.0526 -0.7379 -1.1469
 8593TIP3    H247195   1.186   1.382   2.416 -0.4352  0.5015 -0.3691
 8594TIP3   OH247196   1.048   0.333   2.316  0.0695 -0.1575  0.0102
 8594TIP3    H147197   1.135   0.353   2.281 -0.9598  0.9728 -2.0470
 8594TIP3    H247198   1.020   0.255   2.268 -0.3843 -0.0525  0.0962
 8595TIP3   OH247199   4.610   0.473  13.501  0.3171 -0.7364  0.7138
 8595TIP3    H147200   4.567   0.558  13.489  1.1760 -0.5557 -1.7831
 8595TIP3    H247201   4.703   0.493  13.502  0.4829 -1.5056  1.9291
 8596TIP3   OH247202   4.569   1.329   6.450  0.4326  0.2602  0.2938
 8596TIP3    H147203   4.497   1.291   6.500 -0.9264  0.2646 -1.5803
 8596TIP3    H247204   4.642   1.331   6.512 -1.0761  0.0051  2.1800
 8597TIP3   OH247205   5.766   5.441  15.575 -0.2164  0.5398 -0.3649
 8597TIP3    H147206   5.778   5.360  15.624 -0.9580  0.5841 -0.1048
 8597TIP3    H247207   5.681   5.431  15.532 -0.8549  1.6478  0.5885
 8598TIP3   OH247208   3.124   1.322   4.296  0.0714  1.0795  0.1446
 8598TIP3    H147209   3.096   1.297   4.208  0.8811 -0.5958  0.3163
 8598TIP3    H247210   3.155   1.412   4.287 -0.6308  1.2202 -1.0881
 8599TIP3   OH247211   2.256   4.128  11.607  0.3754 -0.4011 -0.3059
 8599TIP3    H147212   2.283   4.122  11.515  0.2420 -0.7295 -0.3226
 8599TIP3    H247213   2.257   4.222  11.625 -0.2511 -0.2793 -0.8370
 8600TIP3   OH247214   5.240   3.398  15.117  0.2531  0.3450  0.1306
 8600TIP3    H147215   5.262   3.451  15.040 -0.8473 -0.7799 -1.0137
 8600TIP3    H247216   5.299   3.323  15.112 -0.0430  0.1077  0.1978
 8601TIP3   OH247217   5.772   1.028   1.086  0.2074 -0.5065 -0.3358
 8601TIP3    H147218   5.756   0.933   1.089  0.5186 -0.5542 -0.2054
 8601TIP3    H247219   5.867   1.037   1.092  0.1916 -0.1921 -0.5367
 8602TIP3   OH247220   2.214   0.113  15.656 -0.2027 -0.0752 -0.2735
 8602TIP3    H147221   2.182   0.200  15.679 -2.2103 -0.5239 -1.1998
 8602TIP3    H247222   2.241   0.075  15.740 -0.3942  0.9990  0.2931
 8603TIP3   OH247223   1.947   4.557   0.970 -0.3345 -0.4779 -0.2494
 8603TIP3    H147224   1.985   4.645   0.975 -1.1299 -0.1372 -0.1833
 8603TIP3    H247225   1.897   4.556   0.889 -0.8708 -0.6519  0.0785
 8604TIP3   OH247226   6.778   4.483   3.369 -0.6713 -0.1112 -0.1126
 8604TIP3    H147227   6.692   4.493   3.329 -0.8490  0.1002  0.3194
 8604TIP3    H247228   6.829   4.557   3.337 -0.3925 -0.6752 -1.0127
 8605TIP3   OH247229   1.951   1.063   5.109 -0.4391 -0.0009  0.1173
 8605TIP3    H147230   2.014   0.991   5.120 -0.5286  0.0774  1.1870
 8605TIP3    H247231   1.955   1.111   5.191 -1.5103  0.3227 -0.0119
 8606TIP3   OH247232   4.554   1.565  16.726 -0.1032  0.1483  0.2710
 8606TIP3    H147233   4.544   1.533  16.636 -1.4496 -0.4785  0.6058
 8606TIP3    H247234   4.534   1.489  16.781 -1.7126  1.1108  1.0957
 8607TIP3   OH247235   0.392   2.631   4.736 -0.0304  0.2128 -0.0941
 8607TIP3    H147236   0.369   2.719   4.705 -0.3510  0.0073 -0.4569
 8607TIP3    H247237   0.319   2.576   4.707  0.6436 -0.3534 -0.7549
 8608TIP3   OH247238   0.699   5.378   2.062 -0.3628  0.0953  0.1390
 8608TIP3    H147239   0.709   5.354   2.154  1.7997  1.8194  0.4449
 8608TIP3    H247240   0.622   5.434   2.060  0.3533  1.1543  1.1814
 8609TIP3   OH247241   3.894   2.189  13.002  0.4161 -0.3360  0.3893
 8609TIP3    H147242   3.964   2.124  13.004 -1.5838 -2.7263 -1.2077
 8609TIP3    H247243   3.822   2.148  13.050 -0.9434  0.6325 -0.7527
 8610TIP3   OH247244   1.585   6.731   2.126  0.4213  0.2390  0.2358
 8610TIP3    H147245   1.561   6.663   2.063  0.7411  0.6419 -0.3330
 8610TIP3    H247246   1.649   6.785   2.080 -0.8675  1.7635  0.1701
 8611TIP3   OH247247   1.854   6.476  15.851 -0.5005  0.1814 -0.2350
 8611TIP3    H147248   1.924   6.541  15.837  0.2318 -0.4223  0.5190
 8611TIP3    H247249   1.780   6.528  15.882 -0.5525  0.8864 -1.4383
 8612TIP3   OH247250   1.649   4.556  17.182  0.7335 -0.1858  0.5634
 8612TIP3    H147251   1.585   4.610  17.135  1.2560 -0.4313 -0.4451
 8612TIP3    H247252   1.599   4.480  17.212  0.3960 -0.0364  0.3890
 8613TIP3   OH247253   4.441   3.174  13.808 -0.0713 -0.0247  0.4155
 8613TIP3    H147254   4.491   3.254  13.790  0.1721 -0.1990  0.3129
 8613TIP3    H247255   4.441   3.126  13.726 -0.5352  0.0390  0.3754
 8614TIP3   OH247256   2.804   4.758   3.410 -0.3087 -0.3946 -0.3107
 8614TIP3    H147257   2.876   4.820   3.410 -0.0681 -0.6746 -0.1110
 8614TIP3    H247258   2.829   4.691   3.347 -0.2762 -0.6288 -0.0498
 8615TIP3   OH247259   6.267   6.775   0.661  0.1113 -0.7013 -0.2413
 8615TIP3    H147260   6.189   6.740   0.619 -0.4767  2.1077 -1.7488
 8615TIP3    H247261   6.285   6.714   0.733 -0.5492 -4.1094 -2.7285
 8616TIP3   OH247262   4.030   2.635   1.596  0.0491  0.1383  0.5328
 8616TIP3    H147263   4.055   2.669   1.510  0.3547 -2.8994 -0.6964
 8616TIP3    H247264   3.936   2.618   1.589  0.0804 -0.1516  0.7904
 8617TIP3   OH247265   2.445   2.515  16.543  0.5573 -0.0350  0.3400
 8617TIP3    H147266   2.468   2.438  16.489  2.5504  0.0125  1.0175
 8617TIP3    H247267   2.445   2.481  16.632 -0.4231  0.3810  0.5030
 8618TIP3   OH247268   4.273   1.832  14.862  0.2521 -0.0357  0.1580
 8618TIP3    H147269   4.312   1.747  14.882  0.1724 -0.1758 -0.2736
 8618TIP3    H247270   4.346   1.894  14.866  0.5353 -0.2991 -0.6682
 8619TIP3   OH247271   6.715   1.301  14.107 -0.5885  0.6058  0.2248
 8619TIP3    H147272   6.764   1.281  14.027 -1.8476  0.4334 -0.5366
 8619TIP3    H247273   6.779   1.341  14.166  0.6231 -0.2811 -0.4530
 8620TIP3   OH247274   5.104   6.086  11.629 -0.1061  0.3210  0.1669
 8620TIP3    H147275   5.068   6.099  11.541  1.6427  0.2053 -0.6184
 8620TIP3    H247276   5.188   6.042  11.613 -0.4210 -1.0133  2.0013
 8621TIP3   OH247277   4.325   3.371  11.623  0.2847 -0.7427  0.3441
 8621TIP3    H147278   4.328   3.417  11.539  1.8237  0.5313  1.0462
 8621TIP3    H247279   4.399   3.311  11.620  1.4941  0.6380  1.4775
 8622TIP3   OH247280   3.107   6.429   4.685 -0.1510  0.2107 -0.4714
 8622TIP3    H147281   3.047   6.391   4.622  0.1446 -1.0554 -0.0266
 8622TIP3    H247282   3.101   6.372   4.762 -0.1775  1.4574  0.4924
 8623TIP3   OH247283   6.122   5.344   5.992 -0.1734  0.2210  1.2274
 8623TIP3    H147284   6.206   5.315   5.956 -0.4261 -0.4230  1.1523
 8623TIP3    H247285   6.133   5.339   6.087  1.2801  4.0673  1.4356
 8624TIP3   OH247286   5.585   4.500  12.060 -0.5266  0.0863  0.2959
 8624TIP3    H147287   5.535   4.437  12.009  0.6591 -0.2504 -0.4873
 8624TIP3    H247288   5.554   4.489  12.150 -1.4725 -0.4669 -0.0896
 8625TIP3   OH247289   0.261   0.695  16.580 -0.9747 -0.4937 -0.0065
 8625TIP3    H147290   0.190   0.632  16.590  0.0853 -1.5358  1.3097
 8625TIP3    H247291   0.230   0.773  16.625 -0.3500 -1.7758  2.8709
 8626TIP3   OH247292   3.711   4.344  16.484  0.1912 -0.3232 -0.2785
 8626TIP3    H147293   3.636   4.390  16.445  0.8546 -0.1417 -1.3758
 8626TIP3    H247294   3.718   4.380  16.572 -0.6838  0.0458 -0.3528
 8627TIP3   OH247295   2.142   6.439   2.555 -0.6639  1.3625 -0.3281
 8627TIP3    H147296   2.161   6.376   2.625  0.0323  1.2697 -0.5896
 8627TIP3    H247297   2.061   6.407   2.515 -0.2078  0.4947 -0.5991
 8628TIP3   OH247298   6.457   3.478  11.292  0.3916 -0.5942 -0.3198
 8628TIP3    H147299   6.460   3.526  11.375 -0.3053 -0.8198 -0.1598
 8628TIP3    H247300   6.371   3.500  11.255  0.2829 -1.2921 -0.4976
 8629TIP3   OH247301   5.652   4.535  12.885  0.0431  0.7221 -0.2634
 8629TIP3    H147302   5.641   4.479  12.809 -1.2901  1.7661 -0.8769
 8629TIP3    H247303   5.709   4.606  12.855  2.1925 -0.5110  0.6678
 8630TIP3   OH247304   0.667   4.753   5.173  0.7351  0.9033  0.4217
 8630TIP3    H147305   0.585   4.723   5.134  1.2242  1.3299 -0.9939
 8630TIP3    H247306   0.645   4.837   5.214 -0.1642 -0.3045  2.6318
 8631TIP3   OH247307   3.218   3.601   6.109 -0.0679 -0.2211  0.3407
 8631TIP3    H147308   3.144   3.659   6.126  0.1088  0.1526 -0.1198
 8631TIP3    H247309   3.246   3.624   6.020  1.6588  0.8417  1.1033
 8632TIP3   OH247310   0.940   6.164   1.735  0.3449  0.0421  0.4363
 8632TIP3    H147311   0.913   6.251   1.707  0.2136  0.1064  0.7613
 8632TIP3    H247312   1.035   6.171   1.746  0.5269 -0.1958 -0.7418
 8633TIP3   OH247313   0.004   3.985   5.132  0.0324 -0.1923  0.2287
 8633TIP3    H147314   0.045   3.961   5.049  1.6366 -1.2195  1.2573
 8633TIP3    H247315   0.018   3.909   5.188 -1.8378  0.1139  1.1739
 8634TIP3   OH247316   2.109   0.400   0.151 -0.2377 -0.2542  0.4112
 8634TIP3    H147317   2.143   0.446   0.228 -1.2891  0.2171  0.6163
 8634TIP3    H247318   2.021   0.372   0.177 -0.0843 -1.3130 -0.1422
 8635TIP3   OH247319   4.902   6.620   0.323  0.5613 -0.2877  0.3696
 8635TIP3    H147320   4.816   6.580   0.334  0.2651  0.0000 -0.7252
 8635TIP3    H247321   4.901   6.696   0.381  0.2756 -0.5798  0.7527
 8636TIP3   OH247322   5.480   1.042   1.560  0.7721  0.4229 -0.0864
 8636TIP3    H147323   5.497   1.093   1.639  0.6752 -0.4755  0.5276
 8636TIP3    H247324   5.567   1.028   1.521  0.8425  0.6685 -0.0140
 8637TIP3   OH247325   1.050   3.341   1.844  0.4483  0.0500  0.2598
 8637TIP3    H147326   1.138   3.341   1.807  0.4921  4.7340 -0.1972
 8637TIP3    H247327   0.992   3.331   1.769  0.6159  1.0147 -0.0158
 8638TIP3   OH247328   6.463   0.541   3.334 -0.1292 -0.3636  0.7660
 8638TIP3    H147329   6.511   0.611   3.378  0.2407  1.1742 -1.8748
 8638TIP3    H247330   6.384   0.528   3.387 -0.9130  3.0696  0.6412
 8639TIP3   OH247331   6.166   2.160   5.629  0.6930  0.1673  0.5769
 8639TIP3    H147332   6.118   2.144   5.548 -2.8304 -1.2472  2.7096
 8639TIP3    H247333   6.152   2.254   5.646 -1.8398 -0.2605  1.3055
 8640TIP3   OH247334   0.596   0.716   0.231  0.0950  0.3340 -0.3144
 8640TIP3    H147335   0.659   0.683   0.167  1.1614  2.0707 -0.2095
 8640TIP3    H247336   0.592   0.810   0.215 -0.7543  0.5798  1.1825
 8641TIP3   OH247337   2.807   0.812   3.139 -0.2687  0.0622 -0.1395
 8641TIP3    H147338   2.833   0.741   3.079 -1.6251 -0.3444 -0.2911
 8641TIP3    H247339   2.713   0.822   3.123 -0.4848  0.5196  1.3410
 8642TIP3   OH247340   3.756   4.230  15.216  0.4403 -1.0174 -0.1099
 8642TIP3    H147341   3.690   4.176  15.260  0.5489 -2.3657 -1.5199
 8642TIP3    H247342   3.789   4.288  15.284 -1.9815 -0.5038  0.7135
 8643TIP3   OH247343   6.304   6.317   1.571  0.1758 -0.0190 -0.5197
 8643TIP3    H147344   6.257   6.392   1.536  0.0801 -0.5209 -1.5028
 8643TIP3    H247345   6.236   6.259   1.605  0.1901 -0.0155 -0.4852
 8644TIP3   OH247346   5.764   1.420   6.651  0.0798 -0.3140  0.2709
 8644TIP3    H147347   5.680   1.465   6.663 -0.8012 -1.1082 -2.3852
 8644TIP3    H247348   5.740   1.333   6.621  1.8637 -1.2229  1.3491
 8645TIP3   OH247349   6.324   3.915   4.161 -0.6448 -0.5853  0.5382
 8645TIP3    H147350   6.241   3.882   4.126  0.1090 -2.6168  0.4738
 8645TIP3    H247351   6.339   3.998   4.116 -2.6246 -0.1738  0.5755
 8646TIP3   OH247352   3.342   0.031  14.058 -1.0160  0.4183  0.3157
 8646TIP3    H147353   3.415   0.016  14.118 -1.7040 -0.3796  0.9663
 8646TIP3    H247354   3.372  -0.006  13.975  0.9457  3.6709 -0.6504
 8647TIP3   OH247355   1.832   4.551  15.817 -0.1200 -0.5223 -0.1375
 8647TIP3    H147356   1.784   4.587  15.891 -0.0667 -1.0072  0.1342
 8647TIP3    H247357   1.766   4.532  15.751  0.0604  2.3788 -1.2893
 8648TIP3   OH247358   5.105   4.647  12.761  0.7120  0.1276 -0.3074
 8648TIP3    H147359   5.181   4.677  12.812 -1.1501 -0.0589  2.8125
 8648TIP3    H247360   5.057   4.727  12.741 -1.0107 -0.0575  2.5689
 8649TIP3   OH247361   5.311   5.849   1.266  0.5422  0.0366 -0.3091
 8649TIP3    H147362   5.262   5.927   1.294  1.2090  0.6935 -0.9175
 8649TIP3    H247363   5.288   5.782   1.330 -0.0630  0.7301  0.2197
 8650TIP3   OH247364   5.151   6.344   6.627  0.0032 -0.4227 -0.1203
 8650TIP3    H147365   5.159   6.393   6.545 -1.3615 -0.4074 -0.2671
 8650TIP3    H247366   5.064   6.367   6.660 -0.5572 -2.4712 -0.0300
 8651TIP3   OH247367   2.989   3.979   2.012 -0.3934 -0.1061 -0.1906
 8651TIP3    H147368   2.981   3.968   2.107 -4.0772  1.4119 -0.1236
 8651TIP3    H247369   2.965   3.894   1.976  0.5576 -0.5584  0.2222
 8652TIP3   OH247370   5.286   5.494   1.096 -0.2979  0.2381 -0.0916
 8652TIP3    H147371   5.212   5.538   1.139 -0.8713 -0.6329 -0.1431
 8652TIP3    H247372   5.329   5.563   1.045 -1.6233  0.5892 -0.7848
 8653TIP3   OH247373   0.626   5.068  12.116  0.0027 -0.2045  0.1367
 8653TIP3    H147374   0.578   5.021  12.184 -0.8047  0.6831  0.2020
 8653TIP3    H247375   0.710   5.090  12.157 -0.0453 -0.6292  0.4679
 8654TIP3   OH247376   2.949   1.264   0.143 -0.1211  0.0281  0.0361
 8654TIP3    H147377   2.974   1.242   0.053 -0.1642  0.2719 -0.0377
 8654TIP3    H247378   2.885   1.335   0.133  3.9781  4.2767  0.3152
 8655TIP3   OH247379   4.286   6.273  15.838 -0.1563  0.3233 -0.2810
 8655TIP3    H147380   4.364   6.244  15.790  0.5172  0.8468  0.4826
 8655TIP3    H247381   4.258   6.195  15.885 -0.6760 -0.1289 -1.3021
 8656TIP3   OH247382   3.902   4.391   2.546  0.5938  0.0552 -0.2334
 8656TIP3    H147383   3.878   4.388   2.639  0.2522 -0.8482 -0.3376
 8656TIP3    H247384   3.842   4.454   2.507 -0.1719 -0.5645 -0.0792
 8657TIP3   OH247385   3.078   3.673  16.350 -0.8790 -0.4172  0.4429
 8657TIP3    H147386   3.130   3.746  16.315 -3.6080  0.8085 -1.3878
 8657TIP3    H247387   3.119   3.653  16.434  1.7736  1.2128 -0.3279
 8658TIP3   OH247388   1.680   0.812   5.006 -0.5430 -0.7140  0.0446
 8658TIP3    H147389   1.695   0.906   5.015 -0.2846 -0.7414 -0.0773
 8658TIP3    H247390   1.605   0.805   4.948 -0.4743 -0.5823 -0.0614
 8659TIP3   OH247391   2.508   3.811   4.473 -0.0024 -0.2707  0.3404
 8659TIP3    H147392   2.550   3.859   4.545  0.8258 -1.6495  0.8132
 8659TIP3    H247393   2.417   3.841   4.474  0.0418 -0.1271  1.8467
 8660TIP3   OH247394   2.686   2.289   2.818  0.3912 -0.8888 -0.4708
 8660TIP3    H147395   2.667   2.231   2.892 -0.6106  0.1585  0.1199
 8660TIP3    H247396   2.770   2.257   2.784  2.6394  0.5413  3.1137
 8661TIP3   OH247397   2.280   6.449   0.575  0.5981 -0.0268  0.6206
 8661TIP3    H147398   2.261   6.462   0.668  2.9203 -0.0210  1.1631
 8661TIP3    H247399   2.373   6.424   0.573  0.2215 -1.5942 -1.5807
 8662TIP3   OH247400   1.723   0.342  16.009  0.0545 -0.9455  0.5916
 8662TIP3    H147401   1.809   0.366  15.975 -0.0361 -1.8360 -0.3332
 8662TIP3    H247402   1.663   0.359  15.937 -0.4129 -1.1882  0.9175
 8663TIP3   OH247403   1.772   5.230  14.912  0.1249 -0.4122 -0.6075
 8663TIP3    H147404   1.750   5.320  14.890  0.2844 -0.0402  0.6608
 8663TIP3    H247405   1.753   5.180  14.832  0.0453  0.7342 -1.3260
 8664TIP3   OH247406   6.435   3.280  14.457  0.5782  0.1565 -0.2788
 8664TIP3    H147407   6.370   3.210  14.467  0.0761  0.4320 -1.5591
 8664TIP3    H247408   6.442   3.293  14.363  1.7778  0.8126 -0.1137
 8665TIP3   OH247409   0.137   4.086  13.566  0.2118  0.3677  0.0359
 8665TIP3    H147410   0.199   4.026  13.524  1.7585  0.6728  1.7437
 8665TIP3    H247411   0.193   4.150  13.611 -1.3512  2.9806 -1.4760
 8666TIP3   OH247412   2.064   2.086  11.942 -0.5189 -0.1624  0.3620
 8666TIP3    H147413   2.046   2.130  12.026 -0.2131  1.4576 -0.3835
 8666TIP3    H247414   2.159   2.092  11.932 -0.5441 -0.4351 -0.0571
 8667TIP3   OH247415   5.160   0.053  12.760 -0.1733  0.1184 -0.3514
 8667TIP3    H147416   5.200   0.068  12.846 -0.5652 -2.0742  0.2770
 8667TIP3    H247417   5.077   0.009  12.780 -0.8679  0.7198 -1.8155
 8668TIP3   OH247418   0.729   6.742   3.209 -0.2360  0.1227  0.3505
 8668TIP3    H147419   0.806   6.695   3.178 -0.5350 -0.9647  1.2045
 8668TIP3    H247420   0.702   6.695   3.288 -2.7661 -0.5651 -0.8279
 8669TIP3   OH247421   5.563   2.055   5.270  0.2453 -0.1463 -0.3693
 8669TIP3    H147422   5.541   2.079   5.180 -0.6076  0.7924  0.0722
 8669TIP3    H247423   5.611   2.131   5.304 -0.1190 -0.1718  0.2084
 8670TIP3   OH247424   4.394   0.210   6.673 -0.0605  0.2310  0.2034
 8670TIP3    H147425   4.317   0.255   6.706  0.2061  0.2494  0.8193
 8670TIP3    H247426   4.466   0.271   6.688  0.1459  0.0264  0.0614
 8671TIP3   OH247427   5.415   1.299   3.516 -0.4147 -0.0106  0.1156
 8671TIP3    H147428   5.385   1.219   3.560 -0.6091  0.5812  1.0823
 8671TIP3    H247429   5.500   1.317   3.555  0.0713 -0.2741 -0.8012
 8672TIP3   OH247430   3.664   5.258   2.081  0.1218 -0.3363  0.1101
 8672TIP3    H147431   3.662   5.171   2.121  0.0235 -0.2350  0.3285
 8672TIP3    H247432   3.617   5.248   1.999  1.4155 -0.8450 -0.5979
 8673TIP3   OH247433   5.613   0.681   1.797  0.3315 -0.8973  0.3704
 8673TIP3    H147434   5.570   0.648   1.875 -0.8836  1.4902  0.7930
 8673TIP3    H247435   5.546   0.679   1.729 -0.2436  1.8907  0.7708
 8674TIP3   OH247436   1.987   0.517   5.080 -0.5889 -0.1222 -0.2468
 8674TIP3    H147437   1.918   0.541   5.017 -1.7811 -0.9959  0.6687
 8674TIP3    H247438   1.991   0.422   5.075  0.3749 -0.0993 -0.0652
 8675TIP3   OH247439   0.245   0.008  14.774 -0.3514 -0.5412 -0.5726
 8675TIP3    H147440   0.219  -0.084  14.785  0.4589 -0.6845  0.2451
 8675TIP3    H247441   0.340   0.007  14.782 -0.2801  0.2772 -1.2788
 8676TIP3   OH247442   2.837   2.397   0.228  0.0707  0.3352 -0.1292
 8676TIP3    H147443   2.753   2.436   0.208  0.4873  0.9734 -0.6657
 8676TIP3    H247444   2.884   2.396   0.145  0.5111 -0.2240  0.1169
 8677TIP3   OH247445   1.132   5.545   0.062 -0.3361  0.4665 -0.0879
 8677TIP3    H147446   1.194   5.612   0.091 -0.6922  0.8815 -0.2746
 8677TIP3    H247447   1.049   5.569   0.104 -0.4044 -0.0047  0.0518
 8678TIP3   OH247448   1.007   0.841   5.094  0.0914 -1.0149 -0.4228
 8678TIP3    H147449   1.046   0.926   5.074 -1.4862 -0.0131  0.5250
 8678TIP3    H247450   0.935   0.833   5.031  0.5754 -1.9133 -0.8695
 8679TIP3   OH247451   3.684   5.087  16.810 -0.0856  1.2959  0.4641
 8679TIP3    H147452   3.680   5.180  16.787 -2.2088  0.8326 -1.4837
 8679TIP3    H247453   3.722   5.085  16.897  0.7326  3.9272  0.2527
 8680TIP3   OH247454   1.126   6.370   3.123  0.2429  0.1847  0.6543
 8680TIP3    H147455   1.106   6.277   3.127  1.8800 -0.1806  1.1327
 8680TIP3    H247456   1.148   6.386   3.032  1.7065 -0.3220  0.8928
 8681TIP3   OH247457   2.802   2.973  12.584  0.5708  0.1445 -0.3543
 8681TIP3    H147458   2.799   2.957  12.490  2.2277 -0.9517 -0.2655
 8681TIP3    H247459   2.889   3.010  12.599 -1.0729  4.3435  0.2504
 8682TIP3   OH247460   5.647   3.875  15.158 -0.7774 -0.0566 -0.2304
 8682TIP3    H147461   5.692   3.939  15.102 -0.9337 -1.8550 -2.5765
 8682TIP3    H247462   5.636   3.798  15.102 -0.9715 -2.0245  2.3249
 8683TIP3   OH247463   3.606   6.387  11.786 -0.1991  0.2505  0.0122
 8683TIP3    H147464   3.614   6.439  11.707  0.6756  0.6361  0.3365
 8683TIP3    H247465   3.685   6.332  11.787  0.1215  0.7040  0.9219
 8684TIP3   OH247466   2.268   4.419  11.646  0.8020  0.1792 -0.4398
 8684TIP3    H147467   2.261   4.408  11.741 -0.1291  0.5739 -0.4554
 8684TIP3    H247468   2.224   4.502  11.628 -1.7339 -1.2954 -1.5722
 8685TIP3   OH247469   5.209   6.500   3.433 -0.0802  0.2218  0.1265
 8685TIP3    H147470   5.276   6.552   3.388 -0.4056 -0.0849 -0.7326
 8685TIP3    H247471   5.127   6.547   3.418 -0.1584  0.2628  0.6477
 8686TIP3   OH247472   0.710   2.882   3.422  0.5224  0.2724 -0.2717
 8686TIP3    H147473   0.653   2.952   3.390 -0.2591  0.4791  1.4852
 8686TIP3    H247474   0.671   2.854   3.505  1.2712 -1.7055 -0.5230
 8687TIP3   OH247475   5.321   6.367   3.671  0.3407  0.7047 -0.3071
 8687TIP3    H147476   5.261   6.404   3.606 -0.0103 -0.5654 -0.7264
 8687TIP3    H247477   5.316   6.273   3.658 -0.4445  0.3440  2.2026
 8688TIP3   OH247478   1.646   6.674   3.405  0.8992 -0.3013 -0.4081
 8688TIP3    H147479   1.614   6.653   3.493  0.7853 -1.0112 -0.6106
 8688TIP3    H247480   1.582   6.737   3.371  1.4952  0.7543  0.3804
 8689TIP3   OH247481   5.128   1.985   0.824  0.3130 -0.3508 -0.1097
 8689TIP3    H147482   5.100   1.915   0.883 -1.4840  1.3829  1.2133
 8689TIP3    H247483   5.210   2.017   0.862  0.8054 -1.2911 -0.3612
 8690TIP3   OH247484   0.879   3.700  17.052  0.1893  0.2368  0.2000
 8690TIP3    H147485   0.947   3.633  17.050 -1.3944 -1.4461 -0.5184
 8690TIP3    H247486   0.811   3.664  17.110 -0.7178  1.2109 -0.2158
 8691TIP3   OH247487   0.071   5.956   1.637 -0.2976 -0.2363  0.2495
 8691TIP3    H147488   0.123   5.959   1.556  0.2630 -0.0652  0.6093
 8691TIP3    H247489  -0.017   5.930   1.608 -0.4777  1.2141 -0.5998
 8692TIP3   OH247490   3.940   2.685   2.907  0.4297 -0.1900 -0.0386
 8692TIP3    H147491   3.886   2.624   2.957  0.2446  0.0268  0.0236
 8692TIP3    H247492   3.903   2.682   2.818  0.8074 -0.6346 -0.1869
 8693TIP3   OH247493   1.521   2.450   2.161  0.8722 -0.6324 -0.6819
 8693TIP3    H147494   1.475   2.403   2.230 -2.0543  1.6119 -0.8631
 8693TIP3    H247495   1.480   2.420   2.080  0.4354  0.6035 -0.9463
 8694TIP3   OH247496   6.678   4.705   4.747  0.0595  0.0952  0.0128
 8694TIP3    H147497   6.770   4.680   4.759 -0.2500 -0.6940  0.8698
 8694TIP3    H247498   6.630   4.644   4.803 -0.9076  1.2400  0.4570
 8695TIP3   OH247499   1.823   0.904   3.144 -0.0487 -0.6890  0.3290
 8695TIP3    H147500   1.870   0.859   3.214  1.4297 -0.3594 -0.4124
 8695TIP3    H247501   1.766   0.837   3.106 -0.5116 -0.9888  1.5191
 8696TIP3   OH247502   1.055   1.239   2.950  0.0268 -0.2268  0.6609
 8696TIP3    H147503   1.064   1.306   3.018 -0.0871 -0.8788  1.3277
 8696TIP3    H247504   1.145   1.221   2.922  0.0391  0.3902  0.2930
 8697TIP3   OH247505   5.361   6.551  12.932  0.7064 -0.1019  0.0304
 8697TIP3    H147506   5.268   6.539  12.953  0.9424 -0.5798  0.8801
 8697TIP3    H247507   5.402   6.470  12.963  1.2984 -0.2497 -1.0811
 8698TIP3   OH247508   4.708   1.285   5.080 -0.1675  0.5599 -0.3454
 8698TIP3    H147509   4.792   1.322   5.051  0.8078 -2.2332 -1.3867
 8698TIP3    H247510   4.717   1.279   5.175  0.4700  1.0477 -0.3668
 8699TIP3   OH247511   3.270   0.328  16.114  0.1052  0.0079  0.1771
 8699TIP3    H147512   3.216   0.313  16.037 -0.2723  0.6569  0.3081
 8699TIP3    H247513   3.292   0.240  16.145 -1.0021 -0.2685  0.2148
 8700TIP3   OH247514   6.321   3.639   0.351 -0.0962  0.2270  0.2269
 8700TIP3    H147515   6.364   3.600   0.427 -2.4968 -0.8059  1.1702
 8700TIP3    H247516   6.322   3.570   0.285 -2.7833 -0.9428  1.2850
 8701TIP3   OH247517   4.293   2.190   3.995  0.5078 -0.4986  0.3628
 8701TIP3    H147518   4.348   2.135   4.050  0.0992  0.2634  1.5784
 8701TIP3    H247519   4.314   2.280   4.022  0.7932 -0.0560 -1.2180
 8702TIP3   OH247520   4.324   2.754  12.297  0.1306 -0.4373  0.4681
 8702TIP3    H147521   4.391   2.686  12.290  2.1028  1.4820 -1.2414
 8702TIP3    H247522   4.374   2.834  12.317 -1.4775  1.2392 -1.6573
 8703TIP3   OH247523   1.955   0.250   4.549  0.7629  0.2533 -0.7624
 8703TIP3    H147524   2.019   0.182   4.532  0.4155  0.1202 -1.5815
 8703TIP3    H247525   1.948   0.254   4.645  0.7963 -0.8395 -0.7105
 8704TIP3   OH247526   4.093   1.821   2.618 -0.3654 -0.6156  0.2784
 8704TIP3    H147527   4.086   1.823   2.714  0.3324 -0.2618  0.3309
 8704TIP3    H247528   4.062   1.735   2.594  0.0744 -0.9559  0.8889
 8705TIP3   OH247529   2.874   4.722  11.789  0.3852 -0.1271 -0.2069
 8705TIP3    H147530   2.886   4.795  11.850  0.7666  0.4192 -0.9306
 8705TIP3    H247531   2.825   4.657  11.840  2.1679 -0.3980  1.2813
 8706TIP3   OH247532   5.313   5.085   3.632  0.6066  0.4700  0.2634
 8706TIP3    H147533   5.340   5.174   3.653 -0.0535  0.9135 -0.7044
 8706TIP3    H247534   5.238   5.095   3.573  0.9417 -0.7133 -0.4170
 8707TIP3   OH247535   5.190   5.413  13.911 -0.2835 -0.5671 -0.2043
 8707TIP3    H147536   5.178   5.336  13.856  0.0165 -1.3447  0.7927
 8707TIP3    H247537   5.103   5.452  13.917 -0.9011 -2.0653  1.0593
 8708TIP3   OH247538   4.037   1.688   0.704  0.4674  0.0551  0.3114
 8708TIP3    H147539   3.948   1.656   0.688  0.8016 -0.7405  0.0116
 8708TIP3    H247540   4.078   1.622   0.759  1.1424 -0.0157 -0.2555
 8709TIP3   OH247541   1.276   5.076   4.841  0.1002  0.2037  0.2359
 8709TIP3    H147542   1.349   5.076   4.904  0.3539  1.2824 -0.0324
 8709TIP3    H247543   1.198   5.067   4.895  0.3492  0.5602  0.6701
 8710TIP3   OH247544   0.919   5.473  13.509  0.1219 -0.0073  0.0960
 8710TIP3    H147545   0.963   5.502  13.588 -0.9241 -0.8191  0.9992
 8710TIP3    H247546   0.918   5.378  13.515 -0.5063 -0.0533 -0.5946
 8711TIP3   OH247547   1.494   3.360  11.158 -0.5163  0.4339  0.3458
 8711TIP3    H147548   1.561   3.364  11.089  1.6060  3.6692  2.3429
 8711TIP3    H247549   1.414   3.392  11.115 -0.0245 -0.3596 -1.2672
 8712TIP3   OH247550   5.560   3.530   0.606 -0.3544  0.2180 -0.0177
 8712TIP3    H147551   5.655   3.516   0.612 -0.1627  1.4855  0.3073
 8712TIP3    H247552   5.548   3.580   0.525 -0.8423 -0.5474 -0.4347
 8713TIP3   OH247553   1.004   1.115   1.453 -0.4565 -0.0403  0.4093
 8713TIP3    H147554   0.973   1.097   1.542 -1.1996 -0.4220  0.0832
 8713TIP3    H247555   0.943   1.182   1.420 -1.0789 -0.9344 -0.3058
 8714TIP3   OH247556   2.022   0.942  15.466 -0.1927  0.1114 -1.0013
 8714TIP3    H147557   2.070   0.987  15.397  0.3764  0.9287 -0.0897
 8714TIP3    H247558   2.017   1.005  15.538 -1.8133 -0.2843 -0.7115
 8715TIP3   OH247559   0.701   2.837   5.074  0.5815  0.0611  0.7059
 8715TIP3    H147560   0.748   2.860   4.994  1.4821  2.1238  1.7255
 8715TIP3    H247561   0.609   2.839   5.050  0.7024  2.8794  0.1390
 8716TIP3   OH247562   6.159   5.380  11.817  0.1492 -0.2185 -0.7079
 8716TIP3    H147563   6.244   5.371  11.775  0.7164  0.5144  0.2483
 8716TIP3    H247564   6.096   5.358  11.748  1.0880 -0.3099 -1.5621
 8717TIP3   OH247565   2.521   3.700   5.612 -0.5768 -0.1120 -0.6164
 8717TIP3    H147566   2.526   3.638   5.684 -1.8211 -0.2358 -0.6252
 8717TIP3    H247567   2.504   3.646   5.535 -1.7621  0.2367 -0.6100
 8718TIP3   OH247568   4.721   1.886   3.398 -0.2170  0.5918 -0.3095
 8718TIP3    H147569   4.757   1.963   3.441 -0.7705  0.4205  0.4900
 8718TIP3    H247570   4.761   1.812   3.444 -0.1663  0.4009 -0.6578
 8719TIP3   OH247571   4.091   1.641  15.950 -0.0492 -0.4765 -0.3758
 8719TIP3    H147572   4.146   1.679  15.883 -1.1258  2.2074  0.1393
 8719TIP3    H247573   4.152   1.594  16.008  1.6581  1.8179 -0.1852
 8720TIP3   OH247574   6.574   0.581  16.052  0.3969 -0.2618  0.1704
 8720TIP3    H147575   6.507   0.636  16.092  2.1537  0.7727  1.8521
 8720TIP3    H247576   6.647   0.641  16.035  1.6208 -1.6897  0.1758
 8721TIP3   OH247577   6.361   5.586  15.215  0.2755  0.0444  0.2486
 8721TIP3    H147578   6.392   5.674  15.239  3.4018 -1.3600  1.8551
 8721TIP3    H247579   6.382   5.578  15.122  0.6373  0.7281  0.2645
 8722TIP3   OH247580   5.394   3.395   3.644  0.0697  0.0812 -0.2105
 8722TIP3    H147581   5.389   3.482   3.605 -0.1254 -0.4193 -1.3492
 8722TIP3    H247582   5.304   3.364   3.644  0.1017 -0.0266  0.4337
 8723TIP3   OH247583   1.912   2.559  14.294  0.0305  0.2601 -0.2292
 8723TIP3    H147584   1.859   2.486  14.261  0.4670 -0.3184  0.3222
 8723TIP3    H247585   1.995   2.519  14.320 -0.3436  0.6317  1.7053
 8724TIP3   OH247586   2.613   6.161   6.399  0.3172 -0.2437 -0.4467
 8724TIP3    H147587   2.571   6.228   6.345  1.6051 -1.5087 -3.2213
 8724TIP3    H247588   2.701   6.196   6.416  1.1719 -1.3235 -2.3318
 8725TIP3   OH247589   5.274   4.817   2.187 -0.3455 -0.2782 -0.5586
 8725TIP3    H147590   5.258   4.750   2.121  0.1252 -0.8841 -0.0684
 8725TIP3    H247591   5.222   4.790   2.262  0.2421 -0.3630 -0.1822
 8726TIP3   OH247592   1.144   5.226   0.664 -0.1940  0.2436 -0.0713
 8726TIP3    H147593   1.082   5.297   0.646 -0.0831 -0.0510 -1.7931
 8726TIP3    H247594   1.223   5.250   0.615  0.3378 -0.3915  0.4603
 8727TIP3   OH247595   5.339   0.841   3.046 -0.1821 -0.7287  0.1285
 8727TIP3    H147596   5.305   0.777   2.982  0.6157  0.0660 -1.1290
 8727TIP3    H247597   5.265   0.899   3.063  0.5844  1.6289 -3.3897
 8728TIP3   OH247598   2.589   4.290   0.536 -0.2772  0.3229  0.7349
 8728TIP3    H147599   2.631   4.359   0.587  0.9775  0.5512 -0.5318
 8728TIP3    H247600   2.511   4.331   0.499  1.2031  1.6266 -1.2051
 8729TIP3   OH247601   4.214   5.819   5.326  0.5427 -0.1902  0.4083
 8729TIP3    H147602   4.143   5.769   5.284  0.0583 -0.7712  1.8257
 8729TIP3    H247603   4.201   5.909   5.296 -0.1121 -0.4876 -0.2365
 8730TIP3   OH247604   4.840   4.918  13.244 -0.0153 -0.2385  0.0697
 8730TIP3    H147605   4.794   4.925  13.160  1.6721 -1.5427 -1.0258
 8730TIP3    H247606   4.867   5.007  13.264 -0.9438  0.1805 -0.4576
 8731TIP3   OH247607   5.983   0.277  13.595  0.4517  0.5705  0.2009
 8731TIP3    H147608   5.932   0.351  13.563  0.2943  0.0975 -0.6855
 8731TIP3    H247609   5.927   0.237  13.662  0.4853  1.1711  0.5914
 8732TIP3   OH247610   6.124   5.777   4.116  0.0962 -0.5165  0.0940
 8732TIP3    H147611   6.200   5.784   4.057  0.4596  1.7254  0.7512
 8732TIP3    H247612   6.158   5.802   4.202 -1.0412 -1.0746  0.7181
 8733TIP3   OH247613   5.692   3.748  11.839  0.0312 -0.2775 -0.1166
 8733TIP3    H147614   5.597   3.742  11.847  0.1227 -0.9628  0.6624
 8733TIP3    H247615   5.724   3.661  11.864  0.9257  0.3781  1.1671
 8734TIP3   OH247616   3.893   1.550   6.164 -0.0648 -0.0679  0.1999
 8734TIP3    H147617   3.953   1.572   6.093 -0.0297 -1.7761 -0.3458
 8734TIP3    H247618   3.947   1.553   6.243  0.6656 -1.1285 -0.2309
 8735TIP3   OH247619   6.505   1.957   3.432  0.0194  0.0953  0.0381
 8735TIP3    H147620   6.501   1.930   3.524  1.3626  0.6518  0.2870
 8735TIP3    H247621   6.440   2.027   3.426 -0.4561 -0.2968  0.4212
 8736TIP3   OH247622   2.712   2.915  13.448  0.1768  0.3014 -0.3777
 8736TIP3    H147623   2.769   2.992  13.460 -0.2257  0.7219 -1.0786
 8736TIP3    H247624   2.709   2.873  13.534  0.8225  0.7813 -0.1124
 8737TIP3   OH247625   0.360   6.239  11.621 -0.0371 -0.2688 -0.1433
 8737TIP3    H147626   0.379   6.228  11.528 -0.5507 -1.3126 -0.1422
 8737TIP3    H247627   0.442   6.268  11.660  0.5263 -1.0858 -0.7125
 8738TIP3   OH247628   1.894   5.610   1.346 -0.0107  0.2231 -0.1766
 8738TIP3    H147629   1.800   5.609   1.330  0.4026  0.0389 -2.9667
 8738TIP3    H247630   1.908   5.539   1.409 -1.7678  0.6363  0.7431
 8739TIP3   OH247631   5.134   6.439  11.297 -0.3181  0.3885  0.1071
 8739TIP3    H147632   5.108   6.526  11.265 -3.5460  0.0639  1.4838
 8739TIP3    H247633   5.136   6.449  11.392  0.6053 -0.7513  0.2209
 8740TIP3   OH247634   6.098   4.072   0.065  0.5863 -0.0195  0.5734
 8740TIP3    H147635   6.136   4.044  -0.018 -2.4108  0.0213 -0.9222
 8740TIP3    H247636   6.165   4.129   0.103  2.2815 -0.4710 -1.5071
 8741TIP3   OH247637   5.601   5.933   2.083  0.3717 -0.0123  0.1514
 8741TIP3    H147638   5.540   5.867   2.117 -0.6911  1.4497  1.1798
 8741TIP3    H247639   5.677   5.927   2.141  0.8600 -1.2029 -0.5682
 8742TIP3   OH247640   6.324   1.434   1.509  0.0270  0.0959  0.2332
 8742TIP3    H147641   6.301   1.516   1.465  0.8124  0.1670 -0.0568
 8742TIP3    H247642   6.332   1.457   1.601  1.2030  0.5643  0.0289
 8743TIP3   OH247643   3.510   3.677  14.411 -0.1809  0.3506  0.2831
 8743TIP3    H147644   3.552   3.606  14.362 -0.5296  1.1124 -1.1654
 8743TIP3    H247645   3.506   3.644  14.501  0.4014 -1.1265 -0.1917
 8744TIP3   OH247646   3.798   6.183  11.459 -0.0861 -0.6828  0.1909
 8744TIP3    H147647   3.756   6.106  11.499 -0.5073 -0.0421  1.0002
 8744TIP3    H247648   3.734   6.214  11.395 -1.3997  0.9269  2.1585
 8745TIP3   OH247649   6.165   6.145  15.415  0.0846 -0.5163 -0.3043
 8745TIP3    H147650   6.093   6.203  15.442  1.7690  0.5605  2.2766
 8745TIP3    H247651   6.142   6.060  15.451  1.4077  0.4970  3.4461
 8746TIP3   OH247652   0.506   4.726  15.708  0.6600  0.3520 -0.0441
 8746TIP3    H147653   0.593   4.713  15.669  1.1842  1.0184  0.8662
 8746TIP3    H247654   0.519   4.797  15.771 -0.1071 -0.8372  1.5159
 8747TIP3   OH247655   1.609   0.287  10.786 -0.5467  0.1396  0.1844
 8747TIP3    H147656   1.527   0.275  10.833 -0.4490 -1.2093  0.0479
 8747TIP3    H247657   1.676   0.289  10.855 -0.4322 -1.5507  0.1557
 8748TIP3   OH247658   4.593   4.714  11.224 -0.8308  0.1287  0.4355
 8748TIP3    H147659   4.617   4.722  11.316 -0.3611 -0.8573  0.4100
 8748TIP3    H247660   4.640   4.785  11.181 -1.3665  0.8356  1.0050
 8749TIP3   OH247661   6.117   6.502  14.476  0.2501 -0.5748 -0.6384
 8749TIP3    H147662   6.060   6.559  14.529  0.3884 -1.0945  0.0864
 8749TIP3    H247663   6.069   6.420  14.470 -0.9792  0.2467 -3.5516
 8750TIP3   OH247664   2.299   5.178  17.275  0.4343  0.7205  0.8032
 8750TIP3    H147665   2.251   5.252  17.237 -1.4791  0.3277  2.2786
 8750TIP3    H247666   2.315   5.203  17.366  0.6048 -0.2795  1.0670
 8751TIP3   OH247667   5.757   5.767   4.546 -0.3377  0.0533 -0.1104
 8751TIP3    H147668   5.729   5.747   4.457  0.7425  2.0458 -0.9763
 8751TIP3    H247669   5.762   5.863   4.548  1.0296 -0.0140  1.6432
 8752TIP3   OH247670   0.672   5.977  17.286 -0.1114  0.2017 -0.0201
 8752TIP3    H147671   0.631   6.029  17.217 -1.6187 -0.1158  0.5807
 8752TIP3    H247672   0.766   5.990  17.274 -0.2123 -0.9125 -2.9626
 8753TIP3   OH247673   4.417   2.297  16.409 -0.2241 -0.1853  0.6262
 8753TIP3    H147674   4.507   2.288  16.378 -0.6380 -0.3022 -0.6143
 8753TIP3    H247675   4.403   2.392  16.414 -0.0217 -0.1667  0.8787
 8754TIP3   OH247676   1.186   6.626   5.129  0.2938  0.8849 -0.1206
 8754TIP3    H147677   1.226   6.558   5.184 -0.8102 -1.2185 -1.7413
 8754TIP3    H247678   1.135   6.680   5.190  0.8911  0.0103  1.1896
 8755TIP3   OH247679   3.057   4.691  11.600  0.5359  0.0291  0.0689
 8755TIP3    H147680   2.998   4.717  11.671  0.9754  0.1895  0.3797
 8755TIP3    H247681   3.034   4.749  11.528  2.4326  2.3387  1.1737
 8756TIP3   OH247682   4.930   3.982  14.908 -0.0539  0.0279  0.6839
 8756TIP3    H147683   5.024   3.995  14.917  0.5721 -2.8354 -0.5670
 8756TIP3    H247684   4.903   4.047  14.843  1.5857 -0.5943 -0.7023
 8757TIP3   OH247685   4.747   2.913   2.525  0.6090 -0.2410 -0.3853
 8757TIP3    H147686   4.813   2.960   2.473  0.2380 -0.3243 -0.9479
 8757TIP3    H247687   4.664   2.935   2.482  0.4442 -1.5928 -0.7973
 8758TIP3   OH247688   1.302   0.839   0.046  0.0282 -0.2995 -0.0721
 8758TIP3    H147689   1.315   0.811  -0.045 -1.7322  0.4708 -0.6061
 8758TIP3    H247690   1.361   0.913   0.058 -3.1785  2.9783 -2.3296
 8759TIP3   OH247691   5.350   4.356  11.989 -0.2852  0.2300 -0.1272
 8759TIP3    H147692   5.302   4.379  12.068 -0.0091  1.4674 -0.3019
 8759TIP3    H247693   5.307   4.405  11.919 -0.0500 -0.2582 -0.6267
 8760TIP3   OH247694   3.119   4.559   1.207  0.4266 -0.2980 -0.4997
 8760TIP3    H147695   3.141   4.577   1.298 -0.8170  1.1558 -0.4538
 8760TIP3    H247696   3.083   4.470   1.209  0.6884 -0.3947  0.3743
 8761TIP3   OH247697   5.604   6.140  14.868 -0.3008  0.2305 -0.4936
 8761TIP3    H147698   5.595   6.218  14.923  1.2933  1.0169 -1.2465
 8761TIP3    H247699   5.689   6.103  14.893  0.4709  0.6148 -2.3432
 8762TIP3   OH247700   1.209   1.775  16.359 -0.0190  0.6800 -0.7209
 8762TIP3    H147701   1.252   1.794  16.442 -1.4067  2.0050 -0.2656
 8762TIP3    H247702   1.143   1.844  16.349 -0.9743 -0.3719 -2.1388
 8763TIP3   OH247703   4.064   1.588  12.252 -0.4417 -0.1821  0.2277
 8763TIP3    H147704   4.089   1.533  12.326  1.3853  0.8458  0.4402
 8763TIP3    H247705   4.128   1.660  12.253 -2.3094  1.5705 -0.4550
 8764TIP3   OH247706   1.710   1.148  12.807  0.1900  0.1340 -0.1633
 8764TIP3    H147707   1.635   1.116  12.757  1.1318 -0.9941 -0.9263
 8764TIP3    H247708   1.672   1.194  12.882 -1.2567 -0.6411 -0.3878
 8765TIP3   OH247709   3.263   1.957   5.843  0.1870 -0.4534 -0.3193
 8765TIP3    H147710   3.287   1.928   5.755 -0.9502 -0.2739 -0.7036
 8765TIP3    H247711   3.335   2.013   5.870  0.7588 -0.8626 -0.9607
 8766TIP3   OH247712   1.973   3.437  13.731 -0.1615  0.3632  0.0473
 8766TIP3    H147713   1.936   3.349  13.728  0.9631 -0.2441  2.1023
 8766TIP3    H247714   1.897   3.494  13.743 -0.8048 -0.4215 -0.1734
 8767TIP3   OH247715   2.662   3.435  15.550  0.1802  0.2841 -0.4742
 8767TIP3    H147716   2.639   3.394  15.466 -1.1842  0.8357 -0.3969
 8767TIP3    H247717   2.670   3.528  15.530  0.8961  0.2906 -0.1833
 8768TIP3   OH247718   3.985   1.709   3.372 -0.3028  0.3434  0.2049
 8768TIP3    H147719   3.923   1.729   3.443  0.3318  0.7887  0.6465
 8768TIP3    H247720   4.061   1.764   3.390  0.6277 -0.8927  0.2335
 8769TIP3   OH247721   0.016   0.592  12.224  0.3336  0.5318 -0.0414
 8769TIP3    H147722  -0.009   0.675  12.183 -0.8660  1.0316  1.5593
 8769TIP3    H247723   0.105   0.607  12.256  1.5089 -0.0566 -2.7961
 8770TIP3   OH247724   3.346   6.625  16.623  0.3265  0.1030  0.1711
 8770TIP3    H147725   3.409   6.677  16.573 -0.0597  0.5146  0.1095
 8770TIP3    H247726   3.383   6.537  16.624  1.5728  0.6206  1.2838
 8771TIP3   OH247727   5.241   1.944  13.769  0.1257  0.4465  0.5771
 8771TIP3    H147728   5.302   1.964  13.840  1.3320  0.1905 -0.3355
 8771TIP3    H247729   5.285   1.978  13.690  0.3991 -2.1541 -0.4834
 8772TIP3   OH247730   2.018   6.629   4.155  0.9495 -0.3645  0.4532
 8772TIP3    H147731   1.946   6.566   4.146  1.0974 -0.2467 -2.1463
 8772TIP3    H247732   1.976   6.715   4.152  0.8103 -0.2333  3.4308
 8773TIP3   OH247733   1.035   5.094   2.838 -0.2425  0.0635  0.0706
 8773TIP3    H147734   1.068   5.138   2.760  1.2779 -0.3933  0.4281
 8773TIP3    H247735   1.045   5.001   2.820 -1.6937 -0.1240  0.0707
 8774TIP3   OH247736   1.306   3.016  17.111 -0.3882  0.0082  0.6707
 8774TIP3    H147737   1.284   2.944  17.169  0.0896 -0.9935 -0.3506
 8774TIP3    H247738   1.388   3.051  17.146 -0.3560 -0.2688  0.8708
 8775TIP3   OH247739   4.598   5.997  11.501  0.7068 -0.2310 -0.0563
 8775TIP3    H147740   4.684   6.007  11.461  1.5806 -1.6886  1.3378
 8775TIP3    H247741   4.537   5.996  11.427  1.3977  4.1836 -0.9502
 8776TIP3   OH247742   5.802   4.839   1.518 -0.2787  0.5635 -0.1653
 8776TIP3    H147743   5.830   4.831   1.427 -1.0469 -0.8165 -0.2982
 8776TIP3    H247744   5.869   4.793   1.569 -0.7967 -0.2864 -0.2258
 8777TIP3   OH247745   2.833   0.019   0.526 -0.6790  0.8234 -0.4385
 8777TIP3    H147746   2.773   0.068   0.582  0.3152  2.0468 -0.4052
 8777TIP3    H247747   2.912   0.072   0.523  0.3016 -0.5838 -0.7460
 8778TIP3   OH247748   3.313   4.088   1.067  0.1900 -0.0816  0.2431
 8778TIP3    H147749   3.262   4.012   1.040  2.0451 -1.4055  0.3530
 8778TIP3    H247750   3.342   4.129   0.985  0.6314 -0.5023  0.1865
 8779TIP3   OH247751   3.175   2.722  12.109  0.3201  0.3973 -0.8479
 8779TIP3    H147752   3.170   2.814  12.081  2.5150  0.6112 -0.7589
 8779TIP3    H247753   3.211   2.726  12.198 -1.1973 -0.5137 -0.1610
 8780TIP3   OH247754   3.607   6.143  12.654  0.3102 -0.3101  0.3582
 8780TIP3    H147755   3.645   6.084  12.590  0.4441  1.5434 -1.3885
 8780TIP3    H247756   3.674   6.152  12.722  1.3673 -0.1685 -0.6772
 8781TIP3   OH247757   3.389   2.657  13.188  0.5497  0.6199  0.1813
 8781TIP3    H147758   3.368   2.576  13.141  0.2710  0.9665 -0.2993
 8781TIP3    H247759   3.406   2.721  13.120  0.0954  1.1440  0.5489
 8782TIP3   OH247760   4.391   5.338   5.775  0.0051  0.5921  0.1701
 8782TIP3    H147761   4.416   5.428   5.754  0.4615  0.7190  1.1973
 8782TIP3    H247762   4.447   5.284   5.719 -1.7684  0.9249 -2.0783
 8783TIP3   OH247763   6.107   5.500   2.833  0.5466  0.2111 -0.3498
 8783TIP3    H147764   6.038   5.564   2.852  0.9271 -0.0535  2.2995
 8783TIP3    H247765   6.085   5.424   2.887  1.9055 -0.6346 -0.9198
 8784TIP3   OH247766   3.245   5.719   5.904  0.2667 -0.4854 -0.0019
 8784TIP3    H147767   3.175   5.773   5.939  1.1483  0.3042  0.5842
 8784TIP3    H247768   3.214   5.695   5.816 -1.7376 -2.0831  1.0571
 8785TIP3   OH247769   0.846   6.128  10.991  0.0283 -0.1908 -0.1300
 8785TIP3    H147770   0.795   6.161  10.917  0.4494 -1.9801 -1.2630
 8785TIP3    H247771   0.846   6.033  10.980  2.2831 -0.3398  0.7223
 8786TIP3   OH247772   6.508   2.757  11.515  0.1847  0.1572  0.2916
 8786TIP3    H147773   6.427   2.758  11.465  1.4900  1.1288 -1.9615
 8786TIP3    H247774   6.572   2.714  11.457  1.9555  2.0269  0.7236
 8787TIP3   OH247775   5.674   1.214  15.974  0.1396 -0.1619  0.5823
 8787TIP3    H147776   5.664   1.185  15.884  0.9640 -1.8783  0.9909
 8787TIP3    H247777   5.769   1.218  15.987  0.0331  0.9562  1.1170
 8788TIP3   OH247778   4.772   5.621   2.083 -0.3269 -0.0763 -0.5875
 8788TIP3    H147779   4.753   5.536   2.044 -0.0873 -0.6564  0.5110
 8788TIP3    H247780   4.836   5.661   2.024  0.5254 -1.2059 -0.4483
 8789TIP3   OH247781   1.846   1.820  16.624 -0.2204  0.1205 -0.0183
 8789TIP3    H147782   1.788   1.889  16.657 -0.9140 -0.1614 -0.6289
 8789TIP3    H247783   1.862   1.764  16.700  1.0481  1.3948  0.7174
 8790TIP3   OH247784   2.093   2.713  13.774  0.2872  0.1430 -0.4677
 8790TIP3    H147785   2.024   2.772  13.804 -0.8110 -0.9210 -0.8281
 8790TIP3    H247786   2.110   2.656  13.849  1.8071  1.2431  0.1088
 8791TIP3   OH247787   3.569   5.546   0.216 -0.6825 -0.1616  0.0005
 8791TIP3    H147788   3.492   5.516   0.263 -1.2343 -2.3002 -2.0552
 8791TIP3    H247789   3.593   5.628   0.258 -2.1044 -1.0741  2.7912
 8792TIP3   OH247790   2.959   5.197  11.245  0.6845 -0.1524  0.1205
 8792TIP3    H147791   3.053   5.180  11.241  0.5951 -0.4157 -1.1280
 8792TIP3    H247792   2.919   5.128  11.192 -0.2635 -0.3454  1.0458
 8793TIP3   OH247793   0.687   2.004  17.258  0.2956  0.1669 -0.2396
 8793TIP3    H147794   0.596   1.986  17.237  0.2550 -3.2650  1.9972
 8793TIP3    H247795   0.734   1.988  17.176 -0.8588 -0.8244 -0.7407
 8794TIP3   OH247796   2.255   4.167   5.792  0.5271 -0.0719 -0.2622
 8794TIP3    H147797   2.347   4.194   5.791  0.2479  1.3497  2.2296
 8794TIP3    H247798   2.206   4.249   5.786 -0.6220 -0.8000 -1.4865
 8795TIP3   OH247799   2.515   5.862  15.039 -0.1119 -0.6017  0.0668
 8795TIP3    H147800   2.462   5.782  15.041  1.9517 -2.1986 -2.3127
 8795TIP3    H247801   2.455   5.930  15.007 -1.1330 -1.9996 -1.1349
 8796TIP3   OH247802   2.754   5.810   4.405 -0.3627 -0.3078  0.1737
 8796TIP3    H147803   2.838   5.854   4.416 -0.2940 -0.2128 -0.6900
 8796TIP3    H247804   2.695   5.855   4.466 -0.0967  0.4523 -0.1221
 8797TIP3   OH247805   1.695   1.089   4.994  0.0792  0.1830  0.1951
 8797TIP3    H147806   1.645   1.156   5.042 -0.3116 -0.8065  1.2368
 8797TIP3    H247807   1.784   1.097   5.028  0.6385  1.8085 -1.5094
 8798TIP3   OH247808   2.585   0.059   5.643  0.2461  0.0372  0.6056
 8798TIP3    H147809   2.506   0.112   5.654 -1.3206 -2.0884  0.3046
 8798TIP3    H247810   2.560  -0.009   5.581  1.1012 -2.8884  3.2028
 8799TIP3   OH247811   4.206   5.854  15.703 -0.4746 -0.1549  0.0667
 8799TIP3    H147812   4.221   5.878  15.612  0.0275 -2.5770 -0.5507
 8799TIP3    H247813   4.114   5.829  15.707  0.1657 -2.9960 -0.6067
 8800TIP3   OH247814   5.725   6.061   4.536  0.2514 -0.0051  0.1350
 8800TIP3    H147815   5.694   6.061   4.446  2.6543 -0.0004 -0.7570
 8800TIP3    H247816   5.803   6.116   4.534 -0.5662  1.4298  2.6098
 8801TIP3   OH247817   1.340   0.614  16.864 -0.2972  0.0550  0.1521
 8801TIP3    H147818   1.276   0.572  16.921  0.3594 -1.2321 -0.0322
 8801TIP3    H247819   1.373   0.544  16.808  0.4622  0.9152 -0.5204
 8802TIP3   OH247820   2.374   4.114  16.213  0.0261 -0.3942 -0.2444
 8802TIP3    H147821   2.392   4.128  16.120 -1.7426 -5.3774 -1.6813
 8802TIP3    H247822   2.458   4.085  16.249  0.1492 -1.0194 -1.0113
 8803TIP3   OH247823   5.873   4.015  15.013  0.2711  0.2261 -0.3142
 8803TIP3    H147824   5.894   4.104  15.041  0.0267  0.5036 -0.9910
 8803TIP3    H247825   5.920   4.004  14.931 -0.7791  0.2234 -0.9363
 8804TIP3   OH247826   2.709   4.196   1.834  0.4303  0.4240 -0.2541
 8804TIP3    H147827   2.651   4.269   1.813  0.9001  0.5226 -1.2546
 8804TIP3    H247828   2.747   4.220   1.919  0.1148  1.0554 -0.2872
 8805TIP3   OH247829   4.870   3.817  15.494 -0.0847  0.0609  0.0476
 8805TIP3    H147830   4.922   3.893  15.519 -0.6291 -0.1061  1.7980
 8805TIP3    H247831   4.904   3.792  15.408 -0.6269  2.9307 -1.1263
 8806TIP3   OH247832   4.053   2.999  16.226  0.0480 -0.5121  0.5157
 8806TIP3    H147833   4.055   2.999  16.130  0.7374 -1.5619  0.5138
 8806TIP3    H247834   4.122   2.939  16.252  1.3709  1.4129  1.7384
 8807TIP3   OH247835   5.720   3.242   0.928  0.4659 -0.2298  0.0520
 8807TIP3    H147836   5.793   3.265   0.871 -0.4687  0.9562 -0.7217
 8807TIP3    H247837   5.761   3.199   1.004  1.9574  0.4459 -0.3330
 8808TIP3   OH247838   0.430   3.726  17.294 -0.2222 -0.3718 -0.1251
 8808TIP3    H147839   0.403   3.804  17.247 -0.5805 -0.0560  0.5859
 8808TIP3    H247840   0.411   3.745  17.386  0.6196 -0.8993  0.1779
 8809TIP3   OH247841   5.108   6.332  16.214  0.1685 -0.0646 -0.4442
 8809TIP3    H147842   5.129   6.330  16.121  1.2562  0.3922 -0.2246
 8809TIP3    H247843   5.060   6.250  16.230 -2.5022  1.0848 -1.9153
 8810TIP3   OH247844   0.633   1.489  15.325  0.0288  0.3140 -0.2106
 8810TIP3    H147845   0.654   1.437  15.402  0.2606  1.0057  0.2061
 8810TIP3    H247846   0.672   1.441  15.252 -0.8665 -0.7559 -0.0062
 8811TIP3   OH247847   1.100   2.939   2.997  0.0678 -0.3992 -0.1128
 8811TIP3    H147848   1.104   2.906   2.907  0.8330  0.9578 -0.6157
 8811TIP3    H247849   1.097   2.860   3.051 -2.8773 -1.2657 -1.3637
 8812TIP3   OH247850   5.857   2.400   5.243 -0.0016 -0.1324 -0.3728
 8812TIP3    H147851   5.793   2.346   5.289 -0.7712  1.5495  0.6295
 8812TIP3    H247852   5.856   2.368   5.153 -0.2325 -1.9130  0.2215
 8813TIP3   OH247853   3.085   5.585  13.801 -0.3831  0.1058 -0.4095
 8813TIP3    H147854   3.114   5.627  13.720  0.9355  0.7676  0.3588
 8813TIP3    H247855   3.162   5.537  13.832 -1.0026 -0.4925  0.2313
 8814TIP3   OH247856   0.054   1.056  16.001  0.4192  0.1120 -0.2240
 8814TIP3    H147857   0.119   1.057  15.931  0.8879  0.8023  0.2139
 8814TIP3    H247858   0.043   1.148  16.027 -1.6558  0.1819 -1.1184
 8815TIP3   OH247859   2.672   3.712  11.758  0.5304 -0.2412 -0.0230
 8815TIP3    H147860   2.592   3.764  11.749  1.5048  1.6693  1.5505
 8815TIP3    H247861   2.701   3.698  11.668 -1.2985 -0.5590 -0.6041
 8816TIP3   OH247862   5.328   5.739   0.573 -0.6601  0.0395 -0.0744
 8816TIP3    H147863   5.361   5.679   0.640 -1.4301 -1.2799 -0.8323
 8816TIP3    H247864   5.239   5.708   0.555 -0.9236  1.1551 -0.8062
 8817TIP3   OH247865   1.061   5.534   2.554  0.0961  0.2731 -0.3599
 8817TIP3    H147866   0.980   5.563   2.513  0.9871  3.3674 -0.2031
 8817TIP3    H247867   1.117   5.508   2.481 -0.8373 -1.4511 -0.4966
 8818TIP3   OH247868   5.269   4.903  13.147  0.2800  0.2452 -0.1866
 8818TIP3    H147869   5.227   4.929  13.229 -0.4772 -0.3132 -0.3852
 8818TIP3    H247870   5.357   4.877  13.172  0.2571  0.6842  0.3561
 8819TIP3   OH247871   3.842   3.932  14.493  0.3460  0.1149  0.1833
 8819TIP3    H147872   3.772   3.898  14.549  0.2389  2.5901  1.6496
 8819TIP3    H247873   3.812   3.912  14.404 -1.8055  0.3167  0.8108
 8820TIP3   OH247874   5.084   6.529  15.613 -0.3771 -0.1946  0.6170
 8820TIP3    H147875   5.179   6.534  15.607 -0.3207  1.5663  2.3206
 8820TIP3    H247876   5.068   6.451  15.666  0.1688  0.0948  1.2181
 8821TIP3   OH247877   1.468   4.185  11.275 -0.1871  0.2738  0.0252
 8821TIP3    H147878   1.540   4.208  11.333 -1.7148  3.2865  0.9299
 8821TIP3    H247879   1.454   4.263  11.222 -0.4069 -1.5406 -2.8469
 8822TIP3   OH247880   3.044   0.648  15.234  0.1339 -0.0419  0.2610
 8822TIP3    H147881   3.118   0.603  15.194 -0.3954  0.5019 -1.4453
 8822TIP3    H247882   2.975   0.582  15.239  0.0231  0.0241 -0.2964
 8823TIP3   OH247883   4.491   1.200  11.486 -0.6929  0.4024 -0.1587
 8823TIP3    H147884   4.469   1.271  11.546 -1.4622  0.8757 -0.9803
 8823TIP3    H247885   4.471   1.235  11.400  2.8018  0.7182 -1.0088
 8824TIP3   OH247886   2.830   2.370  11.674 -0.1284 -0.8092  0.5015
 8824TIP3    H147887   2.788   2.357  11.759  0.7548 -1.6915  0.8134
 8824TIP3    H247888   2.781   2.312  11.615  2.5406 -4.5017  1.4994
 8825TIP3   OH247889   3.167   4.089  12.831 -0.3071  0.4009  0.0605
 8825TIP3    H147890   3.122   4.028  12.772 -0.4624  0.3535  0.2249
 8825TIP3    H247891   3.258   4.088  12.803 -0.5324  1.0116 -0.7097
 8826TIP3   OH247892   0.048   0.803   2.896 -0.5282 -0.4962  0.2452
 8826TIP3    H147893   0.043   0.709   2.881  1.5622 -0.3678 -1.7475
 8826TIP3    H247894   0.139   0.818   2.924 -0.0106  1.1813 -2.0557
 8827TIP3   OH247895   5.081   2.313   0.650 -0.3139 -0.0540  0.8507
 8827TIP3    H147896   5.167   2.282   0.621  0.6691  1.7028  1.7475
 8827TIP3    H247897   5.063   2.390   0.596 -2.0525 -1.2175 -0.3406
 8828TIP3   OH247898   0.103   5.010  16.508  0.2883  0.3810 -0.2683
 8828TIP3    H147899   0.021   5.000  16.460 -0.3386  1.0398  0.6216
 8828TIP3    H247900   0.099   4.943  16.577  1.4239 -0.9232 -1.4041
 8829TIP3   OH247901   3.867   5.579   1.239 -0.4625  0.4654  1.1513
 8829TIP3    H147902   3.837   5.533   1.160  0.1571  0.1178  1.1132
 8829TIP3    H247903   3.904   5.661   1.206 -1.0522  0.7407  1.1675
 8830TIP3   OH247904   2.864   4.995  12.988  0.1913 -0.3876 -0.1303
 8830TIP3    H147905   2.867   4.959  12.900 -3.0204 -0.7395 -0.2147
 8830TIP3    H247906   2.802   5.068  12.983 -0.9458 -1.1032  1.9985
 8831TIP3   OH247907   4.352   3.326   6.102  0.1976  0.0875  0.0017
 8831TIP3    H147908   4.445   3.334   6.081 -0.1505  1.2437 -1.2851
 8831TIP3    H247909   4.339   3.387   6.174  0.4161  0.0174  0.1022
 8832TIP3   OH247910   4.762   4.064  12.509 -0.0676  0.0692 -0.2871
 8832TIP3    H147911   4.725   4.076  12.422 -1.0513  1.6647  0.2990
 8832TIP3    H247912   4.851   4.034  12.494 -0.1024  0.6860 -1.8601
 8833TIP3   OH247913   4.518   2.647   1.090 -0.0765 -0.0909 -0.4109
 8833TIP3    H147914   4.613   2.652   1.088 -0.0915  0.9613  0.5448
 8833TIP3    H247915   4.490   2.681   1.004  0.3831  0.7391 -0.2392
 8834TIP3   OH247916   3.682   2.341   3.611 -0.4220 -0.4647 -0.2692
 8834TIP3    H147917   3.704   2.377   3.525  0.3013 -1.1193 -0.3782
 8834TIP3    H247918   3.751   2.374   3.669 -0.3204 -0.8548 -0.1654
 8835TIP3   OH247919   2.686   5.590  11.230 -0.1248  0.9096  0.2281
 8835TIP3    H147920   2.616   5.599  11.165 -0.7485  0.3109  0.8140
 8835TIP3    H247921   2.692   5.496  11.246  0.2211  1.0325  0.8291
 8836TIP3   OH247922   2.729   4.077   4.556  0.1109  0.2057 -0.0345
 8836TIP3    H147923   2.680   4.159   4.549 -1.0674 -0.4304  0.6035
 8836TIP3    H247924   2.740   4.064   4.650  0.4443 -0.3010 -0.1413
 8837TIP3   OH247925   4.921   0.564   4.054 -0.0184 -0.2988 -0.5698
 8837TIP3    H147926   4.862   0.621   4.103  0.0353 -0.6540 -0.0852
 8837TIP3    H247927   5.003   0.564   4.104 -0.6378 -2.3777  0.5805
 8838TIP3   OH247928   0.621   1.365  14.464  0.4493  0.5358  0.1521
 8838TIP3    H147929   0.606   1.277  14.498  0.1467  0.0516 -1.2014
 8838TIP3    H247930   0.688   1.402  14.523 -0.1909 -0.1898  1.3777
 8839TIP3   OH247931   3.398   3.362  13.143  0.2030  0.2672  0.3409
 8839TIP3    H147932   3.384   3.268  13.131  0.4593  0.0521  1.5861
 8839TIP3    H247933   3.489   3.369  13.174  0.2868  0.9492 -0.0451
 8840TIP3   OH247934   2.123   5.698  12.302 -0.0830 -0.0645 -0.6108
 8840TIP3    H147935   2.134   5.702  12.207  2.3724 -0.2245 -0.3977
 8840TIP3    H247936   2.096   5.607  12.319  1.6239 -0.6825 -1.0275
 8841TIP3   OH247937   6.021   4.810   4.515 -0.7761 -0.3540  0.4145
 8841TIP3    H147938   5.973   4.890   4.492  0.6170  0.2410 -0.6287
 8841TIP3    H247939   6.102   4.843   4.555 -1.7083 -1.3392  3.3058
 8842TIP3   OH247940   2.401   3.148   1.690 -0.2268 -0.6008 -0.1101
 8842TIP3    H147941   2.408   3.101   1.773 -1.7473  1.7875  1.4897
 8842TIP3    H247942   2.485   3.131   1.647  1.0933 -1.0522  2.4006
 8843TIP3   OH247943   4.713   1.121  16.183  0.0826  0.1950 -0.1538
 8843TIP3    H147944   4.749   1.117  16.094  1.8324 -0.8629  0.5481
 8843TIP3    H247945   4.741   1.207  16.216 -0.0129  0.3225 -0.4029
 8844TIP3   OH247946   1.813   2.017  11.428 -1.0715  0.3322  0.6765
 8844TIP3    H147947   1.888   2.033  11.372  0.4109 -1.8339  1.9146
 8844TIP3    H247948   1.744   1.987  11.369  0.0569 -0.7141 -0.1334
 8845TIP3   OH247949   5.148   0.066  11.672  0.6412  0.3486 -0.1906
 8845TIP3    H147950   5.232   0.067  11.626  1.0068  0.1925  0.4532
 8845TIP3    H247951   5.111  -0.020  11.653  1.1327  0.0006  0.3956
 8846TIP3   OH247952   4.593   5.851  11.856 -0.0098 -0.0660 -0.0940
 8846TIP3    H147953   4.612   5.762  11.887  1.6261 -0.2828 -1.5509
 8846TIP3    H247954   4.535   5.837  11.781  0.9361  0.0186 -0.8528
 8847TIP3   OH247955   0.187   0.830  14.911  0.1525 -0.1243 -0.4257
 8847TIP3    H147956   0.143   0.878  14.981  0.1404  0.0842 -0.5761
 8847TIP3    H247957   0.249   0.893  14.874  0.7812 -0.4921 -0.0308
 8848TIP3   OH247958   1.180   5.228   0.299 -0.1799  0.1029 -0.3349
 8848TIP3    H147959   1.173   5.246   0.206  1.7377 -1.6997 -0.8991
 8848TIP3    H247960   1.102   5.175   0.319  0.2837 -1.0102 -1.3529
 8849TIP3   OH247961   1.406   1.232  16.394 -0.7022  0.4060  0.1519
 8849TIP3    H147962   1.322   1.252  16.436 -0.0944  0.5300  1.3418
 8849TIP3    H247963   1.458   1.312  16.403 -0.1017  0.0068  0.3072
 8850TIP3   OH247964   2.811   1.395  15.938  0.0037  0.0203 -0.0061
 8850TIP3    H147965   2.875   1.430  15.876  2.8117  0.5495  2.9218
 8850TIP3    H247966   2.760   1.471  15.966  1.2770  0.5385  1.0257
 8851TIP3   OH247967   2.955   5.775   2.886  0.1777 -0.3283 -0.3020
 8851TIP3    H147968   2.985   5.861   2.916 -0.4316 -0.2556  0.1151
 8851TIP3    H247969   2.911   5.737   2.962  0.8301 -1.2025 -0.3383
 8852TIP3   OH247970   1.869   5.931  15.194 -0.1787  0.4905 -0.0588
 8852TIP3    H147971   1.873   5.899  15.284  1.5987  1.8933  0.4234
 8852TIP3    H247972   1.852   5.853  15.142  2.2957 -1.0227  1.1897
 8853TIP3   OH247973   1.667   3.566   2.144 -0.1996  0.1547 -1.0963
 8853TIP3    H147974   1.731   3.548   2.212 -0.5085  0.2859 -0.7679
 8853TIP3    H247975   1.690   3.506   2.073  0.5094  0.4669 -1.1316
 8854TIP3   OH247976   0.298   1.020  14.702  0.4885 -0.2568 -0.7133
 8854TIP3    H147977   0.234   1.051  14.639 -1.9976  0.4248  1.9112
 8854TIP3    H247978   0.347   1.098  14.728  0.6126 -0.2872 -0.8572
 8855TIP3   OH247979   3.345   1.755   2.223  0.0274 -0.8586  0.0513
 8855TIP3    H147980   3.396   1.831   2.195 -0.0397 -1.2253 -1.1056
 8855TIP3    H247981   3.409   1.698   2.268 -0.0183  0.0676  1.3442
 8856TIP3   OH247982   3.498   1.488  12.247 -0.4440 -0.6838  0.1780
 8856TIP3    H147983   3.426   1.552  12.254 -1.6155 -2.1058  2.6099
 8856TIP3    H247984   3.563   1.531  12.192 -1.2369  2.5862  1.5474
 8857TIP3   OH247985   0.768   0.825  14.532  0.1695 -0.0454 -0.2848
 8857TIP3    H147986   0.861   0.805  14.539  0.0745 -0.0955  1.2793
 8857TIP3    H247987   0.732   0.757  14.476  1.3419  0.9792 -2.3950
 8858TIP3   OH247988   1.518   3.296   5.180 -0.0700  0.1558 -0.4682
 8858TIP3    H147989   1.548   3.219   5.133  0.6513  0.0007  0.2204
 8858TIP3    H247990   1.596   3.328   5.227 -0.6880  0.4571  0.3919
 8859TIP3   OH247991   4.724   4.912   0.062 -0.1768 -0.0394 -0.3123
 8859TIP3    H147992   4.819   4.916   0.051 -0.3156 -0.9175 -2.5562
 8859TIP3    H247993   4.710   4.919   0.156  2.0262  1.1695 -0.0044
 8860TIP3   OH247994   4.362   1.347  11.801  0.1465  0.4579 -0.2663
 8860TIP3    H147995   4.364   1.408  11.728  0.7581  2.9662  1.6904
 8860TIP3    H247996   4.273   1.352  11.835  0.2929  0.5557  0.1141
 8861TIP3   OH247997   4.631   4.324  16.966  0.1023 -0.3373 -0.3757
 8861TIP3    H147998   4.655   4.251  16.909  1.7232 -0.5923  0.5793
 8861TIP3    H247999   4.572   4.285  17.031  0.7518 -0.7514 -0.0255
 8862TIP3   OH248000   0.493   2.732  12.990 -0.4427 -0.3945  0.1919
 8862TIP3    H148001   0.434   2.751  13.063 -1.5734  0.4207 -0.8787
 8862TIP3    H248002   0.521   2.642  13.005 -1.2735 -0.5037  1.2100
 8863TIP3   OH248003   1.745   4.301  16.555  0.2436 -0.0468 -0.3346
 8863TIP3    H148004   1.713   4.258  16.476 -3.5832  0.3949  0.7414
 8863TIP3    H248005   1.821   4.249  16.582  1.6235 -0.2914 -4.0933
 8864TIP3   OH248006   6.010   2.612  12.549  0.7932  0.3530  0.0814
 8864TIP3    H148007   6.009   2.574  12.461  1.4091 -0.9111  0.5968
 8864TIP3    H248008   5.954   2.555  12.601 -0.7858  1.9421  0.2187
 8865TIP3   OH248009   1.714   4.680   0.450  0.1834 -0.6547  0.0026
 8865TIP3    H148010   1.664   4.608   0.488 -1.3547 -0.6730 -1.9240
 8865TIP3    H248011   1.690   4.680   0.358  2.2704  0.6107 -0.6133
 8866TIP3   OH248012   1.384   5.367  15.015  0.0558  0.1706 -0.4724
 8866TIP3    H148013   1.394   5.288  14.963  0.6269  0.5438 -0.9508
 8866TIP3    H248014   1.315   5.347  15.078  0.8657 -1.0473  0.0604
 8867TIP3   OH248015   1.062   1.030  12.950  0.0380  0.0892  0.2171
 8867TIP3    H148016   1.086   1.043  12.859 -0.3711 -1.0892 -0.0799
 8867TIP3    H248017   1.073   0.936  12.965  1.0208  0.3956  1.6556
 8868TIP3   OH248018   6.494   6.274   4.727 -0.5035  0.3097  0.5637
 8868TIP3    H148019   6.409   6.281   4.684 -0.2429  1.6094  0.2277
 8868TIP3    H248020   6.480   6.208   4.795 -1.7061  0.3050  0.3467
 8869TIP3   OH248021   1.279   4.680   1.481  0.3679 -0.1453  0.3070
 8869TIP3    H148022   1.338   4.749   1.513  2.3209 -2.2165  1.4251
 8869TIP3    H248023   1.325   4.641   1.406 -0.6486 -0.3554 -0.2296
 8870TIP3   OH248024   2.209   1.827  12.748 -0.2750  0.9746 -0.0709
 8870TIP3    H148025   2.136   1.883  12.721  0.4693  0.8584 -2.5274
 8870TIP3    H248026   2.259   1.882  12.809 -2.3768  1.0221  1.7417
 8871TIP3   OH248027   4.540   6.323   0.177  0.2336 -0.6055 -0.2334
 8871TIP3    H148028   4.462   6.271   0.158  1.5125 -1.7532 -2.8892
 8871TIP3    H248029   4.521   6.409   0.139  0.1805 -0.8275 -0.7137
 8872TIP3   OH248030   1.542   3.463  17.120  0.3770 -0.2283  0.6492
 8872TIP3    H148031   1.624   3.431  17.083  0.4581  0.2995  0.3629
 8872TIP3    H248032   1.486   3.480  17.044  0.1187 -0.2772  0.8268
 8873TIP3   OH248033   6.370   0.776  13.987  0.8608  0.4071  0.0577
 8873TIP3    H148034   6.459   0.774  13.951  0.7346 -1.0231 -0.2506
 8873TIP3    H248035   6.325   0.843  13.936  1.6585  0.8668 -0.0545
 8874TIP3   OH248036   5.769   0.257   3.459 -0.3782  0.0376 -0.7089
 8874TIP3    H148037   5.701   0.305   3.412  1.7444 -0.1426 -4.3319
 8874TIP3    H248038   5.726   0.177   3.490 -2.0961  0.5247 -1.7048
 8875TIP3   OH248039   2.658   6.656   3.071 -0.3637 -0.1506 -0.8411
 8875TIP3    H148040   2.582   6.651   3.129 -0.7341  2.5039 -0.9554
 8875TIP3    H248041   2.719   6.714   3.117  0.1128  0.5178 -2.2646
 8876TIP3   OH248042   1.826   6.425   0.736  0.0735  0.4553 -0.2001
 8876TIP3    H148043   1.867   6.472   0.664 -0.6000  1.4489  0.0454
 8876TIP3    H248044   1.754   6.482   0.765 -0.1484 -0.2698  0.7524
 8877TIP3   OH248045   1.627   6.527  12.632  0.2794  0.3382  0.0475
 8877TIP3    H148046   1.699   6.464  12.623  0.9625  0.9522  0.9813
 8877TIP3    H248047   1.666   6.612  12.611  0.1203  0.8210  1.5580
 8878TIP3   OH248048   0.160   4.813   4.695 -0.7486  0.1880  0.7802
 8878TIP3    H148049   0.224   4.742   4.706 -0.8824  0.3175  2.9354
 8878TIP3    H248050   0.141   4.814   4.601 -0.7278 -2.6196  0.6549
 8879TIP3   OH248051   5.105   1.742   2.476  0.0764 -0.8138  0.4251
 8879TIP3    H148052   5.025   1.690   2.479  0.3453 -1.4708 -2.1656
 8879TIP3    H248053   5.175   1.680   2.495  0.1743 -0.7697  0.2053
 8880TIP3   OH248054   5.767   6.591  14.047  0.2575  0.1538  0.1247
 8880TIP3    H148055   5.772   6.506  14.092 -1.8232  0.4907  1.1200
 8880TIP3    H248056   5.857   6.610  14.022  1.3731 -0.7047  3.0138
 8881TIP3   OH248057   4.231   4.595   2.375 -0.4613  0.4644  0.2022
 8881TIP3    H148058   4.218   4.620   2.466 -0.5992 -0.1804  0.3680
 8881TIP3    H248059   4.179   4.657   2.325 -0.3100  0.8788  0.5538
 8882TIP3   OH248060   6.205   0.668  14.509 -0.1465  0.3854  0.1674
 8882TIP3    H148061   6.148   0.732  14.466  1.8499  0.3780 -2.7320
 8882TIP3    H248062   6.146   0.622  14.569 -2.6533  1.9109 -0.9177
 8883TIP3   OH248063   4.731   6.406  16.802 -0.2675 -0.1958  0.6095
 8883TIP3    H148064   4.668   6.475  16.780  1.0094  0.9614  0.4027
 8883TIP3    H248065   4.804   6.420  16.742  0.7494 -0.6674  1.6937
 8884TIP3   OH248066   2.645   6.427   4.632  0.4770 -0.4324  0.3757
 8884TIP3    H148067   2.699   6.459   4.559  0.7240  0.7507  1.0438
 8884TIP3    H248068   2.691   6.458   4.710 -1.7434  1.6518  0.9574
 8885TIP3   OH248069   6.153   3.869  16.814  0.1535  0.2142  0.4201
 8885TIP3    H148070   6.196   3.788  16.841  1.0067 -0.6127 -2.9290
 8885TIP3    H248071   6.215   3.910  16.753 -2.5177  0.4177 -2.3981
 8886TIP3   OH248072   5.887   1.556   2.569 -0.2727 -0.4075 -0.3711
 8886TIP3    H148073   5.963   1.505   2.596  0.5056  0.6011 -0.5986
 8886TIP3    H248074   5.835   1.565   2.649  0.4125 -0.1389  0.0490
 8887TIP3   OH248075   2.132   2.796   6.121 -0.7603  0.2293  0.7829
 8887TIP3    H148076   2.100   2.734   6.186  0.7863 -0.9695  0.4852
 8887TIP3    H248077   2.180   2.862   6.172 -3.1768  1.7880  1.1857
 8888TIP3   OH248078   0.676   5.466  11.043  0.4887 -0.1543  0.1277
 8888TIP3    H148079   0.608   5.461  10.976  0.6777 -2.2062  0.0179
 8888TIP3    H248080   0.745   5.518  11.003  0.4901 -1.1337 -1.2020
 8889TIP3   OH248081   4.680   6.699  15.615  0.4194 -0.2059  0.4417
 8889TIP3    H148082   4.773   6.677  15.620  0.2993 -0.9101 -0.2020
 8889TIP3    H248083   4.645   6.676  15.701  0.8992  0.3981  0.8086
 8890TIP3   OH248084   3.422   4.232  14.049 -0.2006 -0.1898 -0.0636
 8890TIP3    H148085   3.458   4.273  14.128 -1.1582  1.0188 -0.2329
 8890TIP3    H248086   3.330   4.218  14.070 -0.7594  1.2543 -1.3774
 8891TIP3   OH248087   2.856   2.195   3.388  0.4434 -0.3110  0.3337
 8891TIP3    H148088   2.916   2.264   3.360  1.0287 -1.1953 -0.6890
 8891TIP3    H248089   2.879   2.120   3.333 -1.3006 -0.8150  0.2333
 8892TIP3   OH248090   4.355   4.969  10.906 -0.7195 -0.1785 -0.2021
 8892TIP3    H148091   4.380   5.060  10.917 -2.5309  0.1947  1.4496
 8892TIP3    H248092   4.389   4.944  10.820  1.4833  1.4367  0.1348
 8893TIP3   OH248093   0.668   6.238  10.804  0.3234 -0.2028 -0.3919
 8893TIP3    H148094   0.666   6.304  10.734 -2.0168 -1.3023 -1.4774
 8893TIP3    H248095   0.586   6.252  10.852  2.3613  1.3036  3.0469
 8894TIP3   OH248096   3.915   0.109   5.496 -0.0359  0.1018 -0.1017
 8894TIP3    H148097   3.842   0.144   5.547  0.4126  1.7780 -0.5493
 8894TIP3    H248098   3.989   0.164   5.521  0.5400 -0.0622 -1.4048
 8895TIP3   OH248099   2.128   3.747  12.918 -0.5521 -0.0332  0.0037
 8895TIP3    H148100   2.213   3.726  12.880 -0.7123 -0.7779  0.0438
 8895TIP3    H248101   2.144   3.755  13.012 -0.2870  1.1293 -0.1240
 8896TIP3   OH248102   0.712   6.421   5.589 -0.0162 -0.3167  0.4307
 8896TIP3    H148103   0.673   6.350   5.537 -0.9496 -0.8243  1.7648
 8896TIP3    H248104   0.722   6.493   5.527 -1.9915 -0.5764 -0.2682
 8897TIP3   OH248105   5.883   2.659  13.968  0.1085  0.1841 -0.1758
 8897TIP3    H148106   5.940   2.619  14.034 -1.4848  0.6494  1.5767
 8897TIP3    H248107   5.794   2.641  13.998 -0.7043  0.3989 -2.2485
 8898TIP3   OH248108   5.921   4.246  14.637  0.1261 -0.5085 -0.4784
 8898TIP3    H148109   5.848   4.216  14.584 -0.4230 -3.6557  1.7255
 8898TIP3    H248110   5.880   4.283  14.715  0.9283  1.8303 -1.0983
 8899TIP3   OH248111   3.266   5.880  14.966 -0.5737 -0.0412  0.0617
 8899TIP3    H148112   3.225   5.958  15.005  0.1602  0.3051  0.1534
 8899TIP3    H248113   3.355   5.908  14.945 -0.5185 -0.6550 -0.5510
 8900TIP3   OH248114   4.559   0.363   3.398  0.2889  0.6756  0.5478
 8900TIP3    H148115   4.544   0.275   3.364 -1.7931  0.4259  1.9348
 8900TIP3    H248116   4.495   0.418   3.353  0.4661  1.1802  0.8924
 8901TIP3   OH248117   5.805   5.546   0.185  0.5293 -0.3459 -0.0277
 8901TIP3    H148118   5.800   5.639   0.163  0.9785 -0.5229 -0.9342
 8901TIP3    H248119   5.860   5.543   0.263  0.3329  0.1671  0.1365
 8902TIP3   OH248120   5.439   1.107  15.778  0.3622  0.2887  0.4215
 8902TIP3    H148121   5.390   1.149  15.848 -2.8467  1.4785 -2.3003
 8902TIP3    H248122   5.497   1.176  15.745  0.9785  0.0901  1.0609
 8903TIP3   OH248123   4.424   6.671   4.900 -0.2006  0.4868  0.5771
 8903TIP3    H148124   4.421   6.766   4.892 -0.9840  0.5024  0.9757
 8903TIP3    H248125   4.517   6.651   4.912  0.2937  0.9690 -1.9527
 8904TIP3   OH248126   3.830   3.441  12.275  0.4453 -0.3862 -0.4952
 8904TIP3    H148127   3.803   3.468  12.187 -0.4312  0.8612  0.1274
 8904TIP3    H248128   3.910   3.391  12.260 -0.1928 -1.0128 -2.0753
 8905TIP3   OH248129   4.646   3.310   0.799 -0.9715  0.5022  0.2925
 8905TIP3    H148130   4.738   3.284   0.798 -0.6328  1.6617  0.4787
 8905TIP3    H248131   4.606   3.250   0.863 -1.1100 -2.3268 -2.2255
 8906TIP3   OH248132   6.758   6.396  14.755 -0.2898 -0.2738 -0.5211
 8906TIP3    H148133   6.708   6.472  14.785  2.6514  1.4119  0.6031
 8906TIP3    H248134   6.789   6.354  14.835 -1.0870 -2.1467 -1.1504
 8907TIP3   OH248135   4.722   5.327   2.056  0.1272 -0.5669  0.2143
 8907TIP3    H148136   4.721   5.241   2.097 -0.2698 -0.1204  1.1502
 8907TIP3    H248137   4.639   5.368   2.081  0.8511  0.5811  0.8370
 8908TIP3   OH248138   2.427   4.257  11.953 -0.1223  0.2637 -0.5749
 8908TIP3    H148139   2.513   4.227  11.923 -0.0286 -0.7507  0.6681
 8908TIP3    H248140   2.427   4.351  11.932  1.6996  0.5162  0.3019
 8909TIP3   OH248141   5.188   2.270   2.820  0.1626 -0.1950  0.6299
 8909TIP3    H148142   5.157   2.190   2.863 -0.2238 -0.7467 -0.6471
 8909TIP3    H248143   5.278   2.251   2.795  0.1448 -0.1441  0.5285
 8910TIP3   OH248144   5.842   1.681  13.781 -0.2145 -0.3777 -0.5527
 8910TIP3    H148145   5.910   1.709  13.720 -0.2499  0.4945 -0.2051
 8910TIP3    H248146   5.761   1.715  13.744 -0.1098  1.1462  0.5322
 8911TIP3   OH248147   2.719   1.822  15.238  0.1074 -0.0344  0.0163
 8911TIP3    H148148   2.671   1.748  15.275  1.0865 -0.6352  0.1286
 8911TIP3    H248149   2.770   1.858  15.311  1.5195 -0.8037 -0.5445
 8912TIP3   OH248150   2.967   0.320  15.603 -0.6791 -0.0013 -0.2117
 8912TIP3    H148151   3.026   0.287  15.670  0.6630 -1.2831 -1.9312
 8912TIP3    H248152   2.971   0.415  15.612  0.2817 -0.1274  0.8474
 8913TIP3   OH248153   1.947   4.834   4.011 -0.0295 -0.2417  0.0837
 8913TIP3    H148154   2.033   4.838   4.054  0.2562  1.0351 -0.5428
 8913TIP3    H248155   1.949   4.752   3.963  1.0869  0.0241 -0.3666
 8914TIP3   OH248156   5.952   6.147   1.650  0.9339 -0.8279  0.0924
 8914TIP3    H148157   5.889   6.166   1.720  0.4723 -1.3736 -0.1625
 8914TIP3    H248158   5.967   6.231   1.608 -0.4701 -0.8553 -0.5294
 8915TIP3   OH248159   4.552   1.470   2.369 -0.5158 -0.4542  0.6589
 8915TIP3    H148160   4.577   1.550   2.324  1.0648 -1.2998 -0.0511
 8915TIP3    H248161   4.498   1.423   2.305  0.0536 -0.7429  0.3773
 8916TIP3   OH248162   3.759   5.963   2.206 -0.0122  0.1623  0.6018
 8916TIP3    H148163   3.770   5.917   2.289 -4.1019 -1.4988  0.4540
 8916TIP3    H248164   3.774   5.896   2.139 -2.5631 -0.2091  0.2923
 8917TIP3   OH248165   5.063   2.921   6.318 -0.0386 -0.6038 -0.4570
 8917TIP3    H148166   5.069   2.988   6.251  1.2112 -0.4062 -0.1803
 8917TIP3    H248167   5.130   2.856   6.293  3.3097  1.3149  2.5182
 8918TIP3   OH248168   6.483   1.236  12.412 -0.1549  0.2760 -0.1696
 8918TIP3    H148169   6.434   1.165  12.371  0.1748  0.6638 -1.2700
 8918TIP3    H248170   6.554   1.255  12.350  1.9730 -0.8824  1.7710
 8919TIP3   OH248171   3.561   6.665   0.047 -0.4585 -0.6985  0.9316
 8919TIP3    H148172   3.579   6.758   0.036 -0.2860 -0.8733 -0.4824
 8919TIP3    H248173   3.647   6.624   0.056 -0.5230 -0.7401  1.3557
 8920TIP3   OH248174   5.773   5.182  13.962  0.4691 -0.4404 -0.0628
 8920TIP3    H148175   5.789   5.169  13.869  0.7406  0.8018 -0.2129
 8920TIP3    H248176   5.715   5.258  13.966 -0.9197 -1.4927  0.7310
 8921TIP3   OH248177   6.064   1.701   5.873 -0.0533  0.0072 -0.1686
 8921TIP3    H148178   5.999   1.699   5.944 -0.8297 -0.5597 -0.8753
 8921TIP3    H248179   6.012   1.722   5.795  0.6204 -0.4514 -0.7445
 8922TIP3   OH248180   6.725   5.943  16.285 -0.5839  0.3147 -0.0243
 8922TIP3    H148181   6.743   5.948  16.191 -1.5956 -0.1329 -0.2491
 8922TIP3    H248182   6.812   5.945  16.326 -0.1613  1.3719 -0.9182
 8923TIP3   OH248183   4.748   3.090  13.983  0.3702 -0.6130  0.0075
 8923TIP3    H148184   4.667   3.064  14.026 -0.2541  0.3102 -0.5546
 8923TIP3    H248185   4.767   3.177  14.019 -0.6484  0.5801 -2.1294
 8924TIP3   OH248186   0.226   4.166  12.214 -0.5067  0.2909  0.1852
 8924TIP3    H148187   0.297   4.149  12.276  0.2988 -0.4789 -0.9188
 8924TIP3    H248188   0.239   4.257  12.188 -1.2624  0.8453  1.6245
 8925TIP3   OH248189   3.469   1.373   0.829  0.5204  0.0309  0.1285
 8925TIP3    H148190   3.451   1.367   0.923 -1.4957 -0.8848 -0.2564
 8925TIP3    H248191   3.548   1.427   0.823  1.3761 -0.8485  2.3895
 8926TIP3   OH248192   3.628   4.337  16.064  0.1895 -0.7368 -0.4864
 8926TIP3    H148193   3.599   4.303  15.980 -1.5237  1.2304 -0.7696
 8926TIP3    H248194   3.713   4.377  16.046 -0.7341  0.7972 -1.6237
 8927TIP3   OH248195   1.475   5.507  13.039  0.7322 -0.3946 -0.0113
 8927TIP3    H148196   1.419   5.490  12.964 -1.1159  1.2489  0.9190
 8927TIP3    H248197   1.507   5.420  13.066  0.7279 -1.0885 -2.1183
 8928TIP3   OH248198   4.807   4.536   6.393 -0.4695  0.5509 -0.0418
 8928TIP3    H148199   4.843   4.586   6.319  0.8783 -1.3732 -0.7487
 8928TIP3    H248200   4.847   4.576   6.471 -0.2559  1.2381 -0.4980
 8929TIP3   OH248201   0.211   4.413  11.937 -1.1192 -0.3767  0.5558
 8929TIP3    H148202   0.191   4.466  11.861 -0.1164 -1.2932 -0.3939
 8929TIP3    H248203   0.247   4.475  12.001 -2.3494  0.4650  0.4560
 8930TIP3   OH248204   4.891   1.332   2.771 -0.1342  0.2859  0.2775
 8930TIP3    H148205   4.886   1.365   2.860  0.3142 -2.6306  1.4864
 8930TIP3    H248206   4.814   1.370   2.728 -2.7569 -1.3798  3.0979
 8931TIP3   OH248207   0.908   4.900   1.902  0.1403  0.4284  0.2152
 8931TIP3    H148208   0.825   4.892   1.949  0.7693  0.4106  1.3603
 8931TIP3    H248209   0.898   4.842   1.826  0.1158 -1.7745  1.8196
 8932TIP3   OH248210   0.133   2.842   4.906 -0.1982 -0.1507 -0.1941
 8932TIP3    H148211   0.065   2.909   4.911  0.3416  0.3125  1.2392
 8932TIP3    H248212   0.111   2.780   4.975  1.0858  0.2591  0.6194
 8933TIP3   OH248213   6.659   3.379  13.180 -0.9080  0.1789  0.0772
 8933TIP3    H148214   6.619   3.448  13.127 -0.9675  0.1810  0.1242
 8933TIP3    H248215   6.745   3.413  13.204 -0.6768 -0.0284 -0.4379
 8934TIP3   OH248216   2.672   5.895  16.726  1.1286  0.4942  0.4302
 8934TIP3    H148217   2.653   5.882  16.819  0.2017  0.0728  0.1956
 8934TIP3    H248218   2.718   5.979  16.722  3.5743 -0.6876  1.5577
 8935TIP3   OH248219   4.424   2.648  13.228  0.6276 -0.1699  0.2591
 8935TIP3    H148220   4.330   2.668  13.230  0.4378 -1.0063 -0.1482
 8935TIP3    H248221   4.437   2.602  13.145  1.4200  0.0299  0.2659
 8936TIP3   OH248222   5.460   0.890   3.765 -0.4487 -0.5835  0.5049
 8936TIP3    H148223   5.532   0.903   3.703  0.8467  2.3801  2.4113
 8936TIP3    H248224   5.387   0.940   3.728  0.2117  0.8807  1.0997
 8937TIP3   OH248225   5.922   5.680  11.334 -0.4191 -0.0166 -0.0284
 8937TIP3    H148226   5.978   5.703  11.408  0.5634  0.0820 -0.7845
 8937TIP3    H248227   5.968   5.608  11.291 -1.4311 -0.6778 -0.0437
 8938TIP3   OH248228   0.581   3.557  11.575  0.0422 -0.2978 -0.0896
 8938TIP3    H148229   0.605   3.633  11.628 -1.5216 -0.7093  1.2927
 8938TIP3    H248230   0.635   3.486  11.610 -0.8796 -0.5346  0.8894
 8939TIP3   OH248231   1.019   5.481   3.938  0.1863 -0.3054  0.5320
 8939TIP3    H148232   1.104   5.439   3.926  0.8259  1.1184 -0.1402
 8939TIP3    H248233   0.970   5.420   3.994 -0.2084 -3.6700 -3.0039
 8940TIP3   OH248234   6.752   2.687   0.675  0.4043 -0.1446  0.1167
 8940TIP3    H148235   6.817   2.617   0.678  0.6120 -0.3684 -4.0064
 8940TIP3    H248236   6.698   2.667   0.598 -0.5685  3.3596 -0.2992
 8941TIP3   OH248237   0.984   5.427  16.900  0.8001 -0.1063 -0.2329
 8941TIP3    H148238   0.990   5.371  16.977  0.5186  0.7599  0.4325
 8941TIP3    H248239   0.935   5.375  16.836  0.4568 -0.5873  0.4082
 8942TIP3   OH248240   5.304   1.033  10.988 -0.8491  0.1271 -0.4248
 8942TIP3    H148241   5.311   0.944  10.954 -1.6956  0.2032 -0.8103
 8942TIP3    H248242   5.332   1.026  11.080 -0.9492 -0.5390 -0.4387
 8943TIP3   OH248243   4.359   5.640  13.477  0.1938  0.2755  0.2681
 8943TIP3    H148244   4.334   5.553  13.445  0.5067  0.0417  0.6611
 8943TIP3    H248245   4.437   5.625  13.530 -0.0859  0.7157  0.8156
 8944TIP3   OH248246   6.478   5.701   5.128  0.0728  0.3172 -0.3956
 8944TIP3    H148247   6.494   5.705   5.222  3.1060  2.0111 -0.8760
 8944TIP3    H248248   6.422   5.776   5.109 -2.2442 -1.1414  0.2178
 8945TIP3   OH248249   5.694   2.445  14.026 -0.6886 -0.3807 -0.3718
 8945TIP3    H148250   5.723   2.385  14.095  4.4088  0.8773 -1.0541
 8945TIP3    H248251   5.655   2.519  14.073  0.1600 -0.7654  0.9938
 8946TIP3   OH248252   1.229   2.459   2.458  0.1194 -0.0838 -0.5350
 8946TIP3    H148253   1.147   2.502   2.484  0.7749  0.7241  0.2604
 8946TIP3    H248254   1.289   2.531   2.439  1.3570 -0.5978  1.1813
 8947TIP3   OH248255   5.642   4.713  15.346 -0.0325  0.7042  0.1739
 8947TIP3    H148256   5.601   4.638  15.389 -0.3929  0.0073 -1.3108
 8947TIP3    H248257   5.702   4.674  15.282  0.4658  1.6976  0.0154
 8948TIP3   OH248258   6.198   3.032   4.810 -0.8018 -0.0800  0.6274
 8948TIP3    H148259   6.122   3.083   4.836  0.6908  2.8917 -0.4415
 8948TIP3    H248260   6.250   3.024   4.891 -0.8308  0.5184  0.7081
 8949TIP3   OH248261   0.142   3.957  12.685  0.6877 -0.5551  0.0487
 8949TIP3    H148262   0.228   3.999  12.672  0.1820  1.6876  2.8646
 8949TIP3    H248263   0.158   3.864  12.670  2.9576  0.0683 -2.0893
 8950TIP3   OH248264   4.022   4.856   5.676 -0.6177  0.1765 -0.2968
 8950TIP3    H148265   4.064   4.941   5.689  1.0941 -0.2413 -2.6490
 8950TIP3    H248266   3.979   4.863   5.591 -1.6573 -0.8831  0.1125
 8951TIP3   OH248267   3.700   0.048  17.079  0.6205 -0.4299  0.0666
 8951TIP3    H148268   3.625   0.010  17.034 -0.0630  0.2036  0.6333
 8951TIP3    H248269   3.664   0.083  17.161  1.6866 -0.8459  0.7377
 8952TIP3   OH248270   1.543   6.211   1.643  0.2326 -0.2772 -0.2947
 8952TIP3    H148271   1.588   6.236   1.562  0.0769  0.7453 -0.0776
 8952TIP3    H248272   1.451   6.234   1.627 -0.1626 -1.9128 -0.5612
 8953TIP3   OH248273   5.993   2.886   4.676  0.3631  0.3606 -0.7108
 8953TIP3    H148274   6.078   2.926   4.694 -0.0093  0.6705  0.4208
 8953TIP3    H248275   5.946   2.891   4.759 -0.8377  0.3561 -1.3688
 8954TIP3   OH248276   2.304   6.572  11.054 -0.0417  0.8140 -0.4703
 8954TIP3    H148277   2.294   6.648  11.111 -0.4806  0.4600 -0.0585
 8954TIP3    H248278   2.351   6.604  10.978  1.0166  1.1915  0.3218
 8955TIP3   OH248279   4.294   5.888   5.588 -0.3871  0.5223 -0.3991
 8955TIP3    H148280   4.385   5.861   5.575 -0.8210 -0.9626 -0.6056
 8955TIP3    H248281   4.251   5.867   5.505 -1.0754  0.4576 -0.0348
 8956TIP3   OH248282   3.643   6.106  16.523  0.0286  0.3915  0.4109
 8956TIP3    H148283   3.656   6.021  16.480  0.1283  0.9988 -0.8231
 8956TIP3    H248284   3.723   6.119  16.574 -0.4859 -0.7694  1.5790
 8957TIP3   OH248285   5.775   1.469   0.852 -0.4054 -1.3632 -0.6187
 8957TIP3    H148286   5.778   1.383   0.809 -1.1788 -0.8876 -1.6604
 8957TIP3    H248287   5.843   1.520   0.808  0.8654 -1.7803  0.8057
 8958TIP3   OH248288   2.108   4.823   2.399  0.1589 -0.0709 -0.9133
 8958TIP3    H148289   2.022   4.789   2.374  0.2470 -0.6050 -0.5324
 8958TIP3    H248290   2.130   4.774   2.478  1.1693 -0.5157 -1.4539
 8959TIP3   OH248291   5.950   5.798   5.359 -0.3436 -0.0904  0.1059
 8959TIP3    H148292   5.999   5.877   5.385  1.4933 -1.1980  0.2233
 8959TIP3    H248293   5.886   5.829   5.296  1.3247  1.3275 -0.9938
 8960TIP3   OH248294   2.020   4.555  13.314  0.1274  0.6221  0.4700
 8960TIP3    H148295   2.065   4.579  13.233  0.6900  1.3829  0.9856
 8960TIP3    H248296   1.932   4.531  13.287  0.9549 -1.3959 -0.6387
 8961TIP3   OH248297   0.359   3.130  13.805 -0.2833 -0.1723  0.7631
 8961TIP3    H148298   0.411   3.176  13.739 -0.9168 -1.1258 -0.4359
 8961TIP3    H248299   0.270   3.164  13.792 -0.4613 -0.5654  0.9536
 8962TIP3   OH248300   6.325   4.360  16.286 -0.2139 -0.1596  0.8533
 8962TIP3    H148301   6.239   4.382  16.323  0.2120 -0.5461  2.1437
 8962TIP3    H248302   6.371   4.317  16.358  0.5170 -1.3518 -0.2737
 8963TIP3   OH248303   5.800   4.573  14.224 -0.3872 -0.6720  0.0478
 8963TIP3    H148304   5.727   4.524  14.260 -0.4102  0.0787  1.0656
 8963TIP3    H248305   5.781   4.664  14.244  0.0453 -0.3116 -1.1025
 8964TIP3   OH248306   4.304   3.287  12.777 -0.0842 -0.6184 -0.0241
 8964TIP3    H148307   4.329   3.300  12.868 -0.8215  1.2538 -0.0471
 8964TIP3    H248308   4.363   3.344  12.727 -0.3679 -0.8339 -0.6217
 8965TIP3   OH248309   0.719   1.087  14.630 -0.1764 -0.4060  0.6572
 8965TIP3    H148310   0.652   1.102  14.696 -1.6541 -0.2305 -0.8167
 8965TIP3    H248311   0.732   0.992  14.629  1.0721 -0.2937  2.2927
 8966TIP3   OH248312   2.885   0.053   2.738  0.2963  0.6726 -0.6741
 8966TIP3    H148313   2.977   0.071   2.720  0.4093  0.8388  0.0083
 8966TIP3    H248314   2.843   0.139   2.734  0.6019  0.9603  1.3079
 8967TIP3   OH248315   6.345   3.285  14.194  0.3037 -0.0648 -0.5763
 8967TIP3    H148316   6.286   3.359  14.213 -1.5228 -1.2893 -1.2801
 8967TIP3    H248317   6.380   3.304  14.107  0.4781  0.3346 -0.4281
 8968TIP3   OH248318   5.081   0.557   5.848  0.1778  0.0937  0.1618
 8968TIP3    H148319   5.004   0.501   5.854 -0.2330  0.8017  3.0578
 8968TIP3    H248320   5.055   0.626   5.787 -1.3311  0.0459  0.6936
 8969TIP3   OH248321   2.711   4.047   5.506  0.4714 -0.2702  0.6594
 8969TIP3    H148322   2.666   4.039   5.591 -0.6069 -2.2224 -0.0447
 8969TIP3    H248323   2.795   4.002   5.520  0.2901 -0.6022  0.6856
 8970TIP3   OH248324   3.069   1.998   1.200  0.6507  0.6637  0.8970
 8970TIP3    H148325   3.004   1.944   1.156  1.2414 -1.6134  2.6248
 8970TIP3    H248326   3.036   2.087   1.191 -1.6514 -0.2039  0.0054
 8971TIP3   OH248327   0.693   0.925   1.935  0.1027  0.3215 -0.2960
 8971TIP3    H148328   0.650   0.885   2.010  1.1937 -0.1327  0.1039
 8971TIP3    H248329   0.785   0.900   1.944  0.1049 -0.5704 -2.3092
 8972TIP3   OH248330   3.834   1.111  11.225 -0.3630 -0.4089  0.0246
 8972TIP3    H148331   3.787   1.116  11.142 -1.1788  0.9207  0.5340
 8972TIP3    H248332   3.766   1.116  11.292  0.3863 -0.0887  0.7853
 8973TIP3   OH248333   4.276   0.138  15.755  0.3176 -0.2195 -0.1850
 8973TIP3    H148334   4.332   0.128  15.678 -0.9028 -0.1147 -1.1214
 8973TIP3    H248335   4.197   0.090  15.733 -0.5966  0.9499  0.4335
 8974TIP3   OH248336   0.802   4.393  15.360 -0.0835 -0.0277 -0.7499
 8974TIP3    H148337   0.832   4.302  15.361 -0.3817 -0.2337 -3.2538
 8974TIP3    H248338   0.883   4.445  15.353  0.2593  0.1367  2.8237
 8975TIP3   OH248339   1.591   2.654  15.769 -0.3481  0.4794  0.0131
 8975TIP3    H148340   1.600   2.735  15.820 -2.7652 -0.6816  2.5370
 8975TIP3    H248341   1.590   2.585  15.835 -1.9631 -1.2822 -1.7482
 8976TIP3   OH248342   1.466   2.539   5.705  0.5456 -0.1715 -0.6454
 8976TIP3    H148343   1.557   2.511   5.700  1.4821  2.3219  0.4374
 8976TIP3    H248344   1.438   2.514   5.793 -0.0976 -1.5742 -1.2232
 8977TIP3   OH248345   6.006   3.376   3.207  0.4904  0.3161  0.1235
 8977TIP3    H148346   6.018   3.414   3.294  0.1506 -1.1720  0.8355
 8977TIP3    H248347   6.000   3.282   3.221 -0.2650  0.0860 -1.4389
 8978TIP3   OH248348   5.635   0.297  15.155  0.5403 -0.6504  0.6234
 8978TIP3    H148349   5.587   0.374  15.125  1.5973 -0.8766 -1.9197
 8978TIP3    H248350   5.632   0.302  15.250 -1.5466  1.1644  0.5444
 8979TIP3   OH248351   5.645   0.894  14.402  0.2395  0.5030 -0.7006
 8979TIP3    H148352   5.587   0.895  14.478 -0.0867 -0.0321 -0.9345
 8979TIP3    H248353   5.594   0.851  14.334 -0.0058  2.2647 -1.6794
 8980TIP3   OH248354   5.251   0.363   5.357  0.4454 -0.0077 -0.0722
 8980TIP3    H148355   5.213   0.448   5.335 -2.3455 -1.1668 -0.0951
 8980TIP3    H248356   5.220   0.344   5.445  3.1433  0.0440  0.9821
 8981TIP3   OH248357   6.383   0.735   4.203  0.1007  0.3271 -0.5081
 8981TIP3    H148358   6.288   0.738   4.209  0.0427 -1.1156 -0.3640
 8981TIP3    H248359   6.404   0.770   4.117 -0.5483  0.7975 -0.4753
 8982TIP3   OH248360   3.938   6.368  17.103 -0.1137  0.4648  0.3217
 8982TIP3    H148361   3.892   6.336  17.025 -1.4272  0.0864  1.2198
 8982TIP3    H248362   4.026   6.389  17.072 -0.4521 -0.1752 -1.1520
 8983TIP3   OH248363   3.725   0.659   5.504 -0.1851  0.3938 -0.2710
 8983TIP3    H148364   3.664   0.666   5.577  0.5140 -0.2660  0.3936
 8983TIP3    H248365   3.806   0.698   5.536  0.7414 -1.6938  0.0405
 8984TIP3   OH248366   1.928   6.477   4.465  0.1245  0.5202  0.3668
 8984TIP3    H148367   1.845   6.436   4.491 -0.2821  1.1622  0.0926
 8984TIP3    H248368   1.991   6.404   4.463 -0.6325 -0.1356 -0.3132
 8985TIP3   OH248369   2.217   1.875   3.202  0.2846 -0.2552  0.2969
 8985TIP3    H148370   2.289   1.874   3.140  0.5456 -0.5512  0.6002
 8985TIP3    H248371   2.175   1.960   3.189  0.8983  0.0640  0.3587
 8986TIP3   OH248372   0.671   1.272  13.052 -0.7703  0.0921  0.1554
 8986TIP3    H148373   0.669   1.270  13.148 -0.8526  2.1372  0.2263
 8986TIP3    H248374   0.663   1.180  13.027 -1.8184 -0.3998  2.0816
 8987TIP3   OH248375   2.763   6.209   5.030  0.6745 -0.1008  0.8074
 8987TIP3    H148376   2.799   6.197   4.942 -2.2179  0.0885 -0.5172
 8987TIP3    H248377   2.695   6.142   5.037 -0.5134  1.1711  2.0820
 8988TIP3   OH248378   2.176   0.451  14.756  0.1822  0.3058 -0.8262
 8988TIP3    H148379   2.223   0.534  14.759  0.2795  0.2203  0.7567
 8988TIP3    H248380   2.132   0.445  14.841  0.1018 -1.2129 -0.9484
 8989TIP3   OH248381   0.359   3.931   2.457 -0.1318  0.5753 -0.1158
 8989TIP3    H148382   0.400   3.896   2.379  0.0252 -2.6340  1.2652
 8989TIP3    H248383   0.318   3.856   2.499 -3.1951  2.7337  1.1886
 8990TIP3   OH248384   2.635   5.494   4.828  1.2210 -0.0425 -0.0339
 8990TIP3    H148385   2.694   5.420   4.821 -0.2954 -1.2684 -0.4110
 8990TIP3    H248386   2.570   5.480   4.759  1.1232  1.8787 -0.4077
 8991TIP3   OH248387   4.369   3.443   3.673  0.5098 -0.2506  0.1968
 8991TIP3    H148388   4.300   3.509   3.674 -1.6103 -2.2879 -0.4529
 8991TIP3    H248389   4.444   3.485   3.715 -0.9590  2.2466  0.5238
 8992TIP3   OH248390   3.952   1.936   6.055  0.3763 -0.3785  0.1915
 8992TIP3    H148391   3.972   2.016   6.103  2.0980  0.4256 -1.7195
 8992TIP3    H248392   3.991   1.866   6.107  1.4229  0.3707  0.4364
 8993TIP3   OH248393   1.258   0.121  10.701  0.0352  0.3803 -0.0783
 8993TIP3    H148394   1.237   0.045  10.647  1.8452  0.2249 -0.6167
 8993TIP3    H248395   1.211   0.194  10.660  1.2321  0.2326 -1.8105
 8994TIP3   OH248396   2.136   6.217   0.479 -0.1313 -0.3503 -0.6560
 8994TIP3    H148397   2.199   6.151   0.505  0.4431  0.1754 -0.6991
 8994TIP3    H248398   2.175   6.300   0.506 -0.4980  0.0313 -1.2682
 8995TIP3   OH248399   2.316   1.802  16.527 -0.0838  0.4789 -0.7846
 8995TIP3    H148400   2.252   1.738  16.557  0.7699  1.1831  2.9546
 8995TIP3    H248401   2.281   1.887  16.552  1.1526  1.0772 -0.9884
 8996TIP3   OH248402   5.121   4.092  11.283  0.2188  0.5135 -0.0997
 8996TIP3    H148403   5.127   4.056  11.195 -1.1288  0.4154 -0.1703
 8996TIP3    H248404   5.077   4.177  11.271  0.6982  0.8396  0.3995
 8997TIP3   OH248405   5.846   5.037   2.210  0.5442  0.0003  0.4986
 8997TIP3    H148406   5.908   5.032   2.138 -0.2026  0.6719 -0.2154
 8997TIP3    H248407   5.880   4.977   2.276  0.2003 -2.1528 -1.1921
 8998TIP3   OH248408   0.211   2.495   3.560  0.1984  0.5700 -0.2850
 8998TIP3    H148409   0.137   2.540   3.599  0.3923  0.4602  0.2118
 8998TIP3    H248410   0.205   2.405   3.593  2.1712  1.2198  2.1042
 8999TIP3   OH248411   3.875   3.037   0.874  0.0729  0.2013 -0.4390
 8999TIP3    H148412   3.884   3.015   0.781 -2.6903  1.5579 -1.1447
 8999TIP3    H248413   3.793   2.994   0.901  0.8049 -0.1547  1.3876
 9000TIP3   OH248414   3.178   0.807  13.639 -0.1362 -0.4571  0.1723
 9000TIP3    H148415   3.239   0.822  13.567  1.0014  0.5290  1.3051
 9000TIP3    H248416   3.227   0.754  13.702 -1.3741 -1.9661 -0.0677
 9001TIP3   OH248417   6.729   1.539   1.971 -0.2207  0.2717  0.3899
 9001TIP3    H148418   6.800   1.599   1.996  0.4918  1.2449 -3.2328
 9001TIP3    H248419   6.774   1.465   1.929 -1.2560 -0.0290 -0.2248
 9002TIP3   OH248420   1.022   2.296  14.709 -0.1386 -0.1397  0.5712
 9002TIP3    H148421   0.960   2.319  14.778 -1.7971  1.2426 -1.2620
 9002TIP3    H248422   1.099   2.349  14.728 -0.6716  0.4289  1.2370
 9003TIP3   OH248423   5.379   5.441   2.206 -0.3521  0.5472  0.2375
 9003TIP3    H148424   5.335   5.497   2.142 -0.7551 -0.1133 -0.0655
 9003TIP3    H248425   5.446   5.394   2.155  1.6873  2.5348  0.9170
 9004TIP3   OH248426   2.942   0.345  13.426 -0.0826 -0.0333  0.7185
 9004TIP3    H148427   2.891   0.391  13.360  1.5651 -0.8090 -1.1877
 9004TIP3    H248428   2.894   0.264  13.442  0.2298 -0.5171 -0.6568
 9005TIP3   OH248429   5.754   2.706   5.622 -0.2769 -0.2408  0.0634
 9005TIP3    H148430   5.810   2.644   5.575 -0.0671  0.0806 -0.1165
 9005TIP3    H248431   5.725   2.658   5.700  1.2165 -0.0147  0.7799
 9006TIP3   OH248432   3.356   3.534   0.872  0.5853 -0.1410 -0.2671
 9006TIP3    H148433   3.442   3.545   0.831  0.1136  0.2044 -1.1851
 9006TIP3    H248434   3.345   3.439   0.878  0.5130 -0.2059 -1.2845
 9007TIP3   OH248435   1.497   0.536  15.952 -0.5069 -0.4463 -0.7224
 9007TIP3    H148436   1.549   0.604  15.993 -0.7463 -0.8227  0.2197
 9007TIP3    H248437   1.444   0.583  15.887 -0.5576  0.2390 -0.1967
 9008TIP3   OH248438   2.694   1.322  14.411  0.2819  0.1473  0.3248
 9008TIP3    H148439   2.697   1.228  14.424  2.1279 -0.0192 -0.9971
 9008TIP3    H248440   2.615   1.337  14.358  0.2642 -0.7013  0.1102
 9009TIP3   OH248441   0.382   3.680   6.587  0.4127  0.7647 -0.4152
 9009TIP3    H148442   0.381   3.701   6.680  3.4266  1.5120 -0.4579
 9009TIP3    H248443   0.360   3.587   6.584  0.9719  0.5460  1.1177
 9010TIP3   OH248444   2.593   3.128   5.381 -0.2211  0.3451  0.0291
 9010TIP3    H148445   2.677   3.165   5.408 -0.5086  0.2957  1.0313
 9010TIP3    H248446   2.615   3.045   5.341  0.1296 -0.4380  1.7377
 9011TIP3   OH248447   0.199   2.584  12.482 -0.1335  0.2509 -0.1245
 9011TIP3    H148448   0.246   2.604  12.401 -1.6223  1.2402 -0.7809
 9011TIP3    H248449   0.176   2.670  12.518 -0.2358 -0.1982  0.9155
 9012TIP3   OH248450   4.655   6.601   2.464 -0.4752 -0.1663 -0.0359
 9012TIP3    H148451   4.673   6.653   2.386 -0.3947 -1.5218 -0.9673
 9012TIP3    H248452   4.721   6.531   2.462  0.7236  0.7662  2.2545
 9013TIP3   OH248453   1.482   5.335   4.518  0.6653  0.4022 -1.1360
 9013TIP3    H148454   1.411   5.331   4.582  1.6889  0.5120  0.0320
 9013TIP3    H248455   1.494   5.428   4.501  0.7110  0.3955 -1.1409
 9014TIP3   OH248456   1.229   4.370  10.931 -0.0389 -0.4179  0.2895
 9014TIP3    H148457   1.221   4.278  10.955  0.8879 -0.3944  0.7297
 9014TIP3    H248458   1.206   4.418  11.011 -0.1224 -0.2733  0.1796
 9015TIP3   OH248459   4.164   3.923  12.486 -0.2907  0.2254 -0.3119
 9015TIP3    H148460   4.231   3.864  12.452  0.2981  0.5762  0.2233
 9015TIP3    H248461   4.088   3.866  12.502  0.7604 -0.7235  1.6843
 9016TIP3   OH248462   3.931   0.750  14.637 -0.2918  0.4468 -0.0133
 9016TIP3    H148463   3.947   0.718  14.726 -0.3569  2.0066  0.5985
 9016TIP3    H248464   3.844   0.789  14.641  0.1782  1.5913 -0.4228
 9017TIP3   OH248465   5.974   2.066   5.842 -0.2455  0.0971  0.1990
 9017TIP3    H148466   6.002   2.101   5.926  0.2217 -1.5521  0.7581
 9017TIP3    H248467   6.051   2.076   5.785 -0.1425  0.0698  0.3316
 9018TIP3   OH248468   1.725   6.483   2.738  0.4980  0.5697 -0.7569
 9018TIP3    H148469   1.813   6.453   2.713  1.3531  1.1864  1.3295
 9018TIP3    H248470   1.670   6.406   2.727  1.9072 -0.7352  0.7571
 9019TIP3   OH248471   3.002   4.460  15.736  0.1981 -0.7796  0.1753
 9019TIP3    H148472   3.082   4.463  15.789  0.7076 -0.2993 -0.6080
 9019TIP3    H248473   2.932   4.443  15.799  0.5034  1.7797  1.3366
 9020TIP3   OH248474   3.924   6.585   5.871  0.3595 -0.0023 -0.5682
 9020TIP3    H148475   3.949   6.526   5.942 -0.2961  1.0306  0.5776
 9020TIP3    H248476   3.869   6.532   5.813 -0.3193 -0.5005  0.4979
 9021TIP3   OH248477   3.062   4.319   5.444  0.2413 -0.1624 -0.3303
 9021TIP3    H148478   3.147   4.274   5.443 -0.2851 -1.2136  0.2925
 9021TIP3    H248479   3.026   4.304   5.356  0.1471 -0.8123 -0.1833
 9022TIP3   OH248480   0.423   6.594   0.173 -0.1237 -0.0881 -0.0936
 9022TIP3    H148481   0.506   6.554   0.145  1.3612  1.9434  1.1342
 9022TIP3    H248482   0.383   6.625   0.091  1.6415  1.2371 -0.5166
 9023TIP3   OH248483   0.356   3.058   5.189 -0.1692  0.1514 -0.0549
 9023TIP3    H148484   0.289   3.101   5.243  0.6292  0.9241  0.3419
 9023TIP3    H248485   0.379   2.979   5.237 -0.2501  0.2708  0.1812
 9024TIP3   OH248486   3.551   0.861  13.563  0.4597  0.1852  0.1537
 9024TIP3    H148487   3.513   0.877  13.649  0.0308 -1.4561  0.3104
 9024TIP3    H248488   3.621   0.925  13.555 -0.2756  1.1605  1.2049
 9025TIP3   OH248489   2.751   5.341   0.201  0.0952  0.0595  0.3104
 9025TIP3    H148490   2.701   5.379   0.273 -0.3754 -1.2059  0.6688
 9025TIP3    H248491   2.690   5.341   0.127 -1.2632 -3.3162  1.2385
 9026TIP3   OH248492   4.160   3.997   1.662 -0.7739 -0.6282 -0.4448
 9026TIP3    H148493   4.093   3.933   1.684  0.8060 -2.4853 -0.7009
 9026TIP3    H248494   4.112   4.074   1.631 -2.7866 -0.9469  1.6631
 9027TIP3   OH248495   0.470   6.002  16.491 -0.6298  0.0811 -0.2635
 9027TIP3    H148496   0.448   6.095  16.498 -1.9750 -0.3246  1.6277
 9027TIP3    H248497   0.565   6.000  16.475 -0.7997  1.7732 -1.7354
 9028TIP3   OH248498   0.955   4.691  16.903 -0.1591 -0.3194  0.1563
 9028TIP3    H148499   1.009   4.662  16.976  0.5873 -2.1640 -1.0398
 9028TIP3    H248500   1.008   4.757  16.858 -1.5733  2.6548  2.4904
 9029TIP3   OH248501   1.023   5.809  14.447  0.8474 -0.0366 -0.1729
 9029TIP3    H148502   1.113   5.819  14.415  0.5756 -0.6353 -1.1819
 9029TIP3    H248503   0.990   5.899  14.456  1.2119  0.1674 -0.8047
 9030TIP3   OH248504   4.741   6.610  13.794  0.6337  0.0059  0.2441
 9030TIP3    H148505   4.680   6.680  13.770  2.4933  1.7125  0.2348
 9030TIP3    H248506   4.812   6.616  13.730  0.3656 -2.6625 -0.4368
 9031TIP3   OH248507   0.006   3.697   2.736 -0.3502  0.2162 -0.2463
 9031TIP3    H148508  -0.087   3.688   2.715 -0.0529 -1.3423 -1.0943
 9031TIP3    H248509   0.014   3.657   2.823 -0.5170  0.6212 -0.0429
 9032TIP3   OH248510   0.860   1.071   3.128  0.0893  0.2733 -0.0960
 9032TIP3    H148511   0.938   1.127   3.121 -0.0025  0.3196 -0.9313
 9032TIP3    H248512   0.874   1.003   3.062 -1.9933  2.0666 -2.6194
 9033TIP3   OH248513   0.827   6.342  14.261  0.0238 -0.6539  0.2549
 9033TIP3    H148514   0.790   6.267  14.214 -0.2429  0.7555 -1.9203
 9033TIP3    H248515   0.918   6.317  14.279 -0.2462 -1.7368  0.1656
 9034TIP3   OH248516   4.898   2.609  16.958 -0.1063 -0.2730  0.2770
 9034TIP3    H148517   4.807   2.607  16.929  0.2830 -2.4716 -1.0755
 9034TIP3    H248518   4.894   2.592  17.052 -1.1144  0.2012  0.3280
 9035TIP3   OH248519   4.663   3.510   4.385 -0.7250  0.3760  0.0198
 9035TIP3    H148520   4.625   3.532   4.300  0.0486  2.7995  0.2183
 9035TIP3    H248521   4.756   3.532   4.376 -0.7800  1.4271  1.6879
 9036TIP3   OH248522   0.859   0.287  13.225  0.5806  0.1169 -0.2934
 9036TIP3    H148523   0.917   0.258  13.154 -0.2363  1.4195 -1.5520
 9036TIP3    H248524   0.796   0.215  13.235  0.0339  0.3518 -1.7077
 9037TIP3   OH248525   0.005   4.802  16.671 -0.2519 -0.9317 -0.3489
 9037TIP3    H148526  -0.081   4.843  16.670  0.3051  0.3075  0.4673
 9037TIP3    H248527   0.047   4.836  16.750  1.1220 -1.2226 -0.9266
 9038TIP3   OH248528   5.333   5.786  15.772 -0.3816 -0.1765 -0.2703
 9038TIP3    H148529   5.347   5.874  15.809  0.3051  0.0486 -1.0423
 9038TIP3    H248530   5.418   5.762  15.734 -1.4475  0.3479 -3.2566
 9039TIP3   OH248531   5.144   3.466  13.481 -0.2598  0.6712 -0.0460
 9039TIP3    H148532   5.128   3.547  13.529  1.4611  1.9264 -1.4775
 9039TIP3    H248533   5.122   3.486  13.390 -1.4915 -1.0359 -0.1851
 9040TIP3   OH248534   0.953   3.869  12.191 -0.5617  0.1237 -0.4669
 9040TIP3    H148535   0.868   3.839  12.222 -1.5089  0.3910 -2.6132
 9040TIP3    H248536   0.951   3.964  12.204 -0.1905  0.0318  0.3321
 9041TIP3   OH248537   2.809   3.449   3.122  0.2626 -0.1502  0.1158
 9041TIP3    H148538   2.815   3.381   3.190  1.4872 -0.8763 -0.6715
 9041TIP3    H248539   2.829   3.530   3.168 -2.4923 -0.0817  1.3492
 9042TIP3   OH248540   3.347   5.819   6.465  0.2268 -0.4577 -0.0729
 9042TIP3    H148541   3.437   5.842   6.487  0.0137  1.9518 -1.3601
 9042TIP3    H248542   3.339   5.727   6.488  2.4537 -0.2637  1.8019
 9043TIP3   OH248543   5.456   3.770  15.408 -0.0225  0.4506 -0.6339
 9043TIP3    H148544   5.525   3.715  15.444  0.2235  0.2914 -1.3276
 9043TIP3    H248545   5.376   3.735  15.445  0.0235 -1.0331 -1.8148
 9044TIP3   OH248546   1.671   3.230  17.284 -0.1780 -0.1780  0.9292
 9044TIP3    H148547   1.577   3.241  17.293 -0.3653 -1.9451  1.5401
 9044TIP3    H248548   1.682   3.176  17.205  0.1917 -1.2948  1.7183
 9045TIP3   OH248549   4.983   0.953  12.995 -0.0374  0.2595 -0.6509
 9045TIP3    H148550   5.038   0.876  13.012 -0.6330  0.0104  0.2092
 9045TIP3    H248551   4.950   0.978  13.081 -0.5552  0.9506 -1.0429
 9046TIP3   OH248552   0.545   1.639   3.027 -0.4658  0.1987  0.0893
 9046TIP3    H148553   0.640   1.632   3.042 -0.5270 -0.2544  0.2845
 9046TIP3    H248554   0.524   1.563   2.973 -0.5633  0.8131 -0.7559
 9047TIP3   OH248555   1.846   0.630  13.521 -0.2582 -0.0855 -0.9085
 9047TIP3    H148556   1.937   0.658  13.528 -0.4676  0.6484 -1.0725
 9047TIP3    H248557   1.838   0.557  13.583  0.0846  0.7566  0.1461
 9048TIP3   OH248558   1.956   3.334  15.947 -0.0766  0.3552 -0.2103
 9048TIP3    H148559   1.880   3.388  15.967  0.2308 -0.1286  2.7155
 9048TIP3    H248560   2.031   3.387  15.972  0.4879  0.1552 -1.3897
 9049TIP3   OH248561   4.087   5.896   5.780  0.0753 -0.3009  0.1019
 9049TIP3    H148562   4.159   5.928   5.726  0.0440  0.1204  0.3060
 9049TIP3    H248563   4.116   5.810   5.810 -0.2916 -0.9638 -1.3314
 9050TIP3   OH248564   6.270   4.009  17.180  0.9301  0.3070 -0.1731
 9050TIP3    H148565   6.339   4.019  17.246  0.7984  1.0647 -0.1370
 9050TIP3    H248566   6.293   3.929  17.133  1.7360  0.4516 -0.0419
 9051TIP3   OH248567   4.347   3.535   3.289  0.0003 -0.0048  0.3492
 9051TIP3    H148568   4.375   3.546   3.198  0.9672  0.6054  0.7037
 9051TIP3    H248569   4.309   3.447   3.291  1.8009 -0.8445 -0.2174
 9052TIP3   OH248570   1.914   3.553   1.762  0.4868 -0.0937  0.2880
 9052TIP3    H148571   1.955   3.549   1.675  1.1807 -0.2063  0.6069
 9052TIP3    H248572   1.899   3.462   1.786 -1.7677 -0.0162 -0.6333
 9053TIP3   OH248573   0.818   6.697  12.139 -0.5399 -0.2057  0.3231
 9053TIP3    H148574   0.873   6.714  12.216  0.7023  0.3782 -0.6658
 9053TIP3    H248575   0.874   6.716  12.064 -1.8699 -0.3262 -0.7460
 9054TIP3   OH248576   1.891   5.174  14.610  0.2692  0.2633 -0.0586
 9054TIP3    H148577   1.870   5.114  14.538 -0.0776 -0.7410  0.8412
 9054TIP3    H248578   1.818   5.235  14.612 -0.5627 -0.7181  0.4655
 9055TIP3   OH248579   6.326   2.915   0.848 -0.6288 -0.2854  0.8696
 9055TIP3    H148580   6.298   2.965   0.925  2.0374 -2.2984  3.3516
 9055TIP3    H248581   6.407   2.959   0.820  0.4648 -1.7308  1.6396
 9056TIP3   OH248582   2.753   1.118  15.993  0.0166 -0.3694  0.5560
 9056TIP3    H148583   2.824   1.061  15.965 -0.0860 -2.2182  3.5631
 9056TIP3    H248584   2.789   1.207  15.985  1.6016 -1.0856 -0.6642
 9057TIP3   OH248585   2.120   3.669   4.721 -0.3170 -0.2087  0.0147
 9057TIP3    H148586   2.076   3.703   4.799  2.6109 -0.8756  2.1662
 9057TIP3    H248587   2.121   3.574   4.734 -0.8313 -0.4433 -1.4957
 9058TIP3   OH248588   2.052   2.338  11.423  0.1437  0.2390  0.6053
 9058TIP3    H148589   1.962   2.367  11.436 -0.8891 -1.6056 -1.6028
 9058TIP3    H248590   2.078   2.375  11.338 -0.8261 -3.8350 -1.7630
 9059TIP3   OH248591   1.675   5.713  12.504  0.1708 -0.3383 -0.0067
 9059TIP3    H148592   1.725   5.715  12.586 -0.0047 -1.1605  0.1319
 9059TIP3    H248593   1.724   5.768  12.444  0.5594 -0.1170  0.5107
 9060TIP3   OH248594   4.126   3.172  13.753 -0.4241 -0.0159 -0.1661
 9060TIP3    H148595   4.033   3.151  13.746 -0.3443 -1.0707  1.4523
 9060TIP3    H248596   4.171   3.101  13.706 -0.3784 -0.7821  0.9768
 9061TIP3   OH248597   4.668   4.290  15.307 -0.6753 -0.4958 -0.0503
 9061TIP3    H148598   4.600   4.223  15.302 -0.6290 -0.4905 -0.9840
 9061TIP3    H248599   4.700   4.286  15.397 -1.2835 -1.1193  0.1430
 9062TIP3   OH248600   0.824   6.433   0.578 -0.4884  0.2061  0.3653
 9062TIP3    H148601   0.808   6.519   0.540  1.8103  0.1114 -0.9730
 9062TIP3    H248602   0.853   6.452   0.668  0.9008  0.9217 -0.2121
 9063TIP3   OH248603   0.303   3.560  13.482  0.1525 -0.5266  0.0439
 9063TIP3    H148604   0.216   3.523  13.468 -1.4517  2.4967  1.1543
 9063TIP3    H248605   0.352   3.536  13.403 -2.5286 -0.0450 -1.8937
 9064TIP3   OH248606   2.699   6.083  11.787 -0.3881  0.1358 -0.1406
 9064TIP3    H148607   2.759   6.154  11.764 -1.4828  0.9212 -0.6274
 9064TIP3    H248608   2.673   6.046  11.703  0.2123 -0.8958  0.1122
 9065TIP3   OH248609   4.990   2.834  14.682 -0.7631 -0.1476 -0.2882
 9065TIP3    H148610   5.040   2.880  14.614 -0.7181 -0.1543 -0.2591
 9065TIP3    H248611   4.993   2.742  14.656  0.3979 -0.3320  0.4561
 9066TIP3   OH248612   0.739   2.211   4.812  0.3604 -0.1826  0.5271
 9066TIP3    H148613   0.740   2.129   4.763 -0.0424  0.4858 -0.6208
 9066TIP3    H248614   0.811   2.262   4.776  1.2205 -0.3877  1.8950
 9067TIP3   OH248615   5.769   4.130  16.579 -0.2664 -0.1985 -0.2309
 9067TIP3    H148616   5.843   4.080  16.543 -1.3800 -1.3937 -0.9639
 9067TIP3    H248617   5.692   4.092  16.536 -1.3241  0.9017  0.6359
 9068TIP3   OH248618   6.759   5.431   1.709 -0.1838 -0.2966  0.3779
 9068TIP3    H148619   6.715   5.369   1.651 -0.1655 -0.4351  0.5127
 9068TIP3    H248620   6.803   5.376   1.774 -1.6605 -0.1035  1.5912
 9069TIP3   OH248621   3.446   4.198  17.047 -0.0802 -0.1584 -0.1539
 9069TIP3    H148622   3.508   4.272  17.044 -0.4051  0.1864  1.0523
 9069TIP3    H248623   3.496   4.124  17.012  1.2803 -0.0479  1.4490
 9070TIP3   OH248624   1.788   3.875  11.413  0.5983 -0.4390 -0.0294
 9070TIP3    H148625   1.805   3.811  11.344 -1.9385 -0.7191 -0.4888
 9070TIP3    H248626   1.781   3.958  11.368  1.7175 -0.1536  0.2919
 9071TIP3   OH248627   0.190   3.147   0.415  0.0536  0.0365  0.4038
 9071TIP3    H148628   0.282   3.150   0.438  0.0314 -1.3817  0.7531
 9071TIP3    H248629   0.185   3.191   0.330  0.7950  1.4408  1.0593
 9072TIP3   OH248630   5.820   2.763   0.463  0.2392  0.6310 -0.1527
 9072TIP3    H148631   5.873   2.777   0.384  1.3576  0.0093  0.4552
 9072TIP3    H248632   5.746   2.710   0.433 -0.3459  1.9369 -1.1181
 9073TIP3   OH248633   6.069   1.778  13.644  0.3643  0.3319 -0.3025
 9073TIP3    H148634   6.134   1.848  13.648  0.5738  0.1942 -1.0818
 9073TIP3    H248635   6.115   1.705  13.602 -0.6359  0.6380 -2.0143
 9074TIP3   OH248636   0.101   2.058   4.842 -0.2929  0.5892  0.4697
 9074TIP3    H148637   0.140   2.122   4.782 -0.5640  1.6333  1.3772
 9074TIP3    H248638   0.051   2.111   4.904  1.9538 -0.1675  3.1521
 9075TIP3   OH248639   3.311   1.856  12.439 -0.6604 -0.0622 -0.6873
 9075TIP3    H148640   3.273   1.794  12.376 -2.3823 -0.0923  0.3334
 9075TIP3    H248641   3.405   1.841  12.433 -0.5873  0.7587 -4.1171
 9076TIP3   OH248642   0.893   4.946  13.287  0.1755 -0.0987  0.8428
 9076TIP3    H148643   0.799   4.964  13.293  0.1364 -0.6515  2.0070
 9076TIP3    H248644   0.934   5.020  13.332  0.4218  1.0496 -1.1374
 9077TIP3   OH248645   4.551   5.589  15.005 -0.1881 -0.4017 -0.7049
 9077TIP3    H148646   4.489   5.529  15.046  0.7781 -1.6488 -1.0053
 9077TIP3    H248647   4.497   5.648  14.953 -1.1645 -1.0232 -0.4221
 9078TIP3   OH248648   0.236   1.343  13.588  0.0643  0.2075 -0.6209
 9078TIP3    H148649   0.155   1.333  13.638  0.3346  0.7937 -0.0529
 9078TIP3    H248650   0.215   1.410  13.523  0.4894  1.3991  0.4270
 9079TIP3   OH248651   4.616   3.827  15.707 -0.0947 -0.1319 -0.4703
 9079TIP3    H148652   4.668   3.858  15.633 -1.0047  1.5917 -0.4306
 9079TIP3    H248653   4.531   3.869  15.696 -0.4535 -0.3419  1.2119
 9080TIP3   OH248654   1.111   1.328   0.935  0.0950  0.3490  0.7916
 9080TIP3    H148655   1.147   1.264   0.874 -1.2214  0.3364 -0.0148
 9080TIP3    H248656   1.157   1.410   0.914  0.9325 -0.0559  1.0227
 9081TIP3   OH248657   1.471   5.006  16.572  0.4173 -0.0084 -0.0074
 9081TIP3    H148658   1.522   5.038  16.647  0.8479  0.1320 -0.3511
 9081TIP3    H248659   1.481   5.075  16.506  1.3731 -0.8392 -0.7709
 9082TIP3   OH248660   1.675   1.243  15.720  0.0722  0.3326 -0.1059
 9082TIP3    H148661   1.627   1.309  15.770 -0.4849 -0.0760 -0.0808
 9082TIP3    H248662   1.690   1.172  15.782 -0.6464 -0.1897 -0.5113
 9083TIP3   OH248663   4.480   5.898  10.974 -0.5513 -0.3486 -0.4062
 9083TIP3    H148664   4.496   5.805  10.961 -1.6535 -0.5654 -0.2362
 9083TIP3    H248665   4.472   5.933  10.885 -0.3750 -0.4502 -0.4631
 9084TIP3   OH248666   2.556   3.850  14.783  0.7617  0.3940 -0.4600
 9084TIP3    H148667   2.600   3.884  14.861 -0.1986  0.1341  0.2306
 9084TIP3    H248668   2.589   3.902  14.711  3.0022 -0.5162 -0.1534
 9085TIP3   OH248669   6.408   0.800  13.376  0.2583  0.2839  1.0334
 9085TIP3    H148670   6.354   0.874  13.406  0.3936  0.6511  0.3776
 9085TIP3    H248671   6.483   0.799  13.435 -0.2618  0.0163  1.7034
 9086TIP3   OH248672   1.551   0.985  13.187  0.0247  0.0111 -0.0457
 9086TIP3    H148673   1.475   0.937  13.220 -0.6310 -0.4787 -2.1324
 9086TIP3    H248674   1.544   0.978  13.092  2.3580  0.4881 -0.3001
 9087TIP3   OH248675   2.334   0.542  14.003 -0.1235 -0.4166  0.0743
 9087TIP3    H148676   2.428   0.535  13.988  0.1231  0.3597  1.1354
 9087TIP3    H248677   2.324   0.529  14.097 -1.1573 -1.1176 -0.1124
 9088TIP3   OH248678   0.823   5.096  15.465  0.1144  0.5409  0.3620
 9088TIP3    H148679   0.897   5.136  15.419  1.2866  0.0549  1.7590
 9088TIP3    H248680   0.851   5.006  15.480 -0.4443  0.5566  1.5579
 9089TIP3   OH248681   3.612   4.445  17.002 -0.4220 -0.7485  0.0254
 9089TIP3    H148682   3.549   4.514  17.021 -1.6720 -2.0847  0.9091
 9089TIP3    H248683   3.668   4.442  17.079  0.1611 -0.1784 -0.3694
 9090TIP3   OH248684   0.956   0.042  11.921 -0.1240 -0.0627 -0.2391
 9090TIP3    H148685   0.958   0.118  11.980 -2.4809 -1.9261  2.5742
 9090TIP3    H248686   0.891   0.064  11.855 -1.3574  0.1560  1.0023
 9091TIP3   OH248687   0.711   6.556  10.971  0.6282 -0.0988 -0.1156
 9091TIP3    H148688   0.784   6.547  10.911  1.5224 -2.1449  1.1956
 9091TIP3    H248689   0.633   6.543  10.917  1.3203 -0.0890 -1.1323
 9092TIP3   OH248690   1.280   5.959   5.586  0.3433  0.9049 -0.2517
 9092TIP3    H148691   1.352   6.020   5.602 -0.2800  1.4856  0.4339
 9092TIP3    H248692   1.223   6.005   5.525 -0.5446  1.3773  0.8976
 9093TIP3   OH248693   4.351   3.620   0.241 -0.3805  0.8772  0.1383
 9093TIP3    H148694   4.366   3.538   0.286  0.8787  1.1733  0.2873
 9093TIP3    H248695   4.272   3.656   0.282 -0.0771  0.4617  1.1098
 9094TIP3   OH248696   2.449   2.467   0.760  0.0567 -0.0733 -0.7719
 9094TIP3    H148697   2.465   2.468   0.665 -1.1578 -0.2359 -0.9878
 9094TIP3    H248698   2.357   2.444   0.769  0.6305 -2.1745  0.5273
 9095TIP3   OH248699   5.265   0.954  15.604  0.8188 -0.2746  0.5059
 9095TIP3    H148700   5.246   0.875  15.656  1.9649 -0.2294  1.0253
 9095TIP3    H248701   5.314   1.010  15.664  1.8146 -0.0402 -0.5078
 9096TIP3   OH248702   1.762   0.251  11.055 -0.1481 -0.2126 -0.2064
 9096TIP3    H148703   1.838   0.220  11.103  0.8775  1.0658 -0.9369
 9096TIP3    H248704   1.718   0.171  11.025  0.7495 -0.9708  0.4617
 9097TIP3   OH248705   6.478   0.874   1.655 -0.1611  0.2141 -0.2419
 9097TIP3    H148706   6.443   0.926   1.728 -0.5898  0.1329 -0.3898
 9097TIP3    H248707   6.432   0.790   1.661 -0.2780  0.2485 -0.6770
 9098TIP3   OH248708   4.612   0.401  14.246 -0.0818  0.2008 -0.3306
 9098TIP3    H148709   4.618   0.317  14.292 -1.7338 -1.3339 -2.6477
 9098TIP3    H248710   4.527   0.397  14.201 -0.0227  2.9648 -0.8575
 9099TIP3   OH248711   3.911   3.174   1.259  0.2502  0.1731 -0.1485
 9099TIP3    H148712   3.857   3.236   1.307  0.8332 -0.4380  1.3510
 9099TIP3    H248713   4.001   3.202   1.276  0.4719  0.0572 -1.0601
 9100TIP3   OH248714   2.910   3.048   4.005 -0.3420 -0.4809  0.6604
 9100TIP3    H148715   2.860   2.980   4.050 -1.0305 -0.0387  0.5809
 9100TIP3    H248716   2.997   3.010   3.993 -0.7651 -1.4192  0.4553
 9101TIP3   OH248717   5.203   5.279  12.335 -0.2912  0.3669 -0.7522
 9101TIP3    H148718   5.126   5.236  12.373  0.4531 -0.2233  0.1250
 9101TIP3    H248719   5.234   5.217  12.269 -0.1897  0.2980 -0.6420
 9102TIP3   OH248720   2.481   0.866   4.403 -0.1255 -1.0117  0.3633
 9102TIP3    H148721   2.450   0.785   4.364  0.7610 -1.4841  0.6056
 9102TIP3    H248722   2.504   0.922   4.328 -2.6013 -0.1900  0.1498
 9103TIP3   OH248723   3.453   5.636   4.171  0.1874  0.1573 -0.7273
 9103TIP3    H148724   3.391   5.693   4.127  0.7817  1.3421 -0.0688
 9103TIP3    H248725   3.514   5.695   4.215 -0.1119 -0.9471  1.3142
 9104TIP3   OH248726   1.484   2.854   4.539 -0.3118  0.4026 -0.2395
 9104TIP3    H148727   1.428   2.858   4.616  0.4747 -1.2317  0.4626
 9104TIP3    H248728   1.456   2.775   4.493 -0.7569  1.3391 -1.6529
 9105TIP3   OH248729   4.928   1.612   0.410 -0.4882 -0.2198 -0.4283
 9105TIP3    H148730   4.872   1.559   0.354  0.4077 -1.0885 -0.5195
 9105TIP3    H248731   5.017   1.592   0.382 -0.1005  0.9229 -0.0949
 9106TIP3   OH248732   2.530   0.317  13.720 -0.4073  1.0070 -0.0950
 9106TIP3    H148733   2.543   0.234  13.674 -1.2068 -0.0271  1.4492
 9106TIP3    H248734   2.611   0.366  13.704  1.2235 -1.1168  1.0028
 9107TIP3   OH248735   6.466   1.202  13.712  0.0161 -0.7180  0.0206
 9107TIP3    H148736   6.512   1.266  13.767 -1.0800 -1.7887  2.2953
 9107TIP3    H248737   6.451   1.249  13.630  2.4274  0.6899  0.2680
 9108TIP3   OH248738   1.950   1.543   4.078  0.3036  0.8281 -0.1432
 9108TIP3    H148739   1.873   1.485   4.082  0.1803  1.0522  2.5653
 9108TIP3    H248740   1.934   1.609   4.146  2.2548  1.7264 -0.4877
 9109TIP3   OH248741   4.338   0.509  15.700 -0.2839 -0.1235  0.0046
 9109TIP3    H148742   4.429   0.479  15.711 -0.7077 -0.7994  2.2804
 9109TIP3    H248743   4.339   0.600  15.729 -0.0366  0.4614 -1.7178
 9110TIP3   OH248744   3.169   1.028   4.082 -0.4860  0.4428 -0.0762
 9110TIP3    H148745   3.260   1.046   4.106 -0.2930 -0.6805  0.0841
 9110TIP3    H248746   3.129   1.115   4.073 -0.0269  0.9444  2.1909
 9111TIP3   OH248747   6.778   1.193   0.374  0.0654  0.3402 -0.1180
 9111TIP3    H148748   6.763   1.275   0.326  0.6676  1.8744  2.1334
 9111TIP3    H248749   6.769   1.218   0.466  0.2426 -2.1677  0.6376
 9112TIP3   OH248750   2.831   5.350  16.297  0.2319  0.3462  0.7776
 9112TIP3    H148751   2.888   5.421  16.269  0.2162 -0.1158 -0.4909
 9112TIP3    H248752   2.775   5.334  16.222  0.4630 -1.2288  0.9155
 9113TIP3   OH248753   3.459   3.325  14.362 -0.2579  0.1749  0.0498
 9113TIP3    H148754   3.462   3.407  14.314 -0.8040  0.7465  0.9495
 9113TIP3    H248755   3.427   3.261  14.299 -0.8231  0.8721 -0.3839
 9114TIP3   OH248756   6.504   2.164   2.700 -0.6314  0.0899  0.2984
 9114TIP3    H148757   6.525   2.089   2.756 -0.3756 -0.1089 -0.0594
 9114TIP3    H248758   6.420   2.142   2.660 -1.0107  0.4105  0.9078
 9115TIP3   OH248759   0.358   2.488  16.427 -0.2368 -0.2826  0.2220
 9115TIP3    H148760   0.281   2.524  16.471 -0.5350  0.6813 -1.0523
 9115TIP3    H248761   0.324   2.415  16.375 -0.4920  0.7906 -1.1578
 9116TIP3   OH248762   0.862   5.678  16.147 -0.0792 -0.0800  0.4215
 9116TIP3    H148763   0.841   5.714  16.233 -0.2579  0.7306  0.0431
 9116TIP3    H248764   0.932   5.615  16.164  0.5168  0.7280  1.0423
 9117TIP3   OH248765   6.402   1.843  13.820  0.4814 -0.3820  0.3575
 9117TIP3    H148766   6.417   1.859  13.914 -0.9543 -0.3968  0.6170
 9117TIP3    H248767   6.375   1.928  13.786 -0.0149 -0.6071  0.1827
 9118TIP3   OH248768   3.350   1.304   5.600 -0.8105 -0.1583 -0.1922
 9118TIP3    H148769   3.326   1.339   5.686  0.3329 -0.1903  0.1660
 9118TIP3    H248770   3.284   1.237   5.582 -1.2189  0.0319  0.5417
 9119TIP3   OH248771   3.650   1.912   5.742  0.5720  0.3061 -0.4673
 9119TIP3    H148772   3.675   1.832   5.696 -0.7596 -0.0727 -0.5919
 9119TIP3    H248773   3.615   1.969   5.674 -2.3917 -0.6551  0.0924
 9120TIP3   OH248774   2.425   1.117   0.149 -0.1018 -0.1016 -0.1266
 9120TIP3    H148775   2.432   1.107   0.244  1.5566  0.2306 -0.1856
 9120TIP3    H248776   2.515   1.118   0.119 -0.4711  2.8066 -1.4053
 9121TIP3   OH248777   2.402   0.434  15.507 -0.2114  0.1013 -0.6128
 9121TIP3    H148778   2.483   0.423  15.458 -0.3575 -2.0942 -0.4353
 9121TIP3    H248779   2.406   0.368  15.575 -2.4461 -0.5262 -1.0210
 9122TIP3   OH248780   6.140   6.527   1.466 -0.8038  1.0074 -0.5173
 9122TIP3    H148781   6.051   6.497   1.482 -0.0663 -1.3913 -0.5443
 9122TIP3    H248782   6.151   6.525   1.371 -0.5431  0.7257 -0.4836
 9123TIP3   OH248783   4.405   2.300  13.074 -0.2231  0.1481 -0.0314
 9123TIP3    H148784   4.335   2.286  13.138  1.0981  1.3451  1.7645
 9123TIP3    H248785   4.472   2.237  13.098 -0.2259 -0.2459 -1.0477
 9124TIP3   OH248786   4.596   3.891  15.395 -0.0829  0.3264 -0.0180
 9124TIP3    H148787   4.690   3.873  15.391  0.2451  1.4981  1.4649
 9124TIP3    H248788   4.557   3.825  15.339  1.6344 -0.1123 -0.7742
 9125TIP3   OH248789   4.880   4.982   1.561 -0.0376  0.1611  0.6795
 9125TIP3    H148790   4.845   4.912   1.617 -1.0764  0.1802  0.0858
 9125TIP3    H248791   4.808   5.045   1.554 -0.5991 -0.6222 -1.9973
 9126TIP3   OH248792   0.538   4.233  13.918 -0.0417  0.5428  0.0699
 9126TIP3    H148793   0.605   4.217  13.984  1.4204  0.7350 -1.2994
 9126TIP3    H248794   0.548   4.325  13.895  0.4858  0.1440 -1.4339
 9127TIP3   OH248795   6.589   3.790   5.076  0.1148  0.4908 -0.0626
 9127TIP3    H148796   6.546   3.866   5.038 -0.0680  0.3277 -0.1833
 9127TIP3    H248797   6.634   3.824   5.154  0.2318  0.7656 -0.2483
 9128TIP3   OH248798   2.462   6.670   6.831  0.0711  0.2592  0.7796
 9128TIP3    H148799   2.501   6.590   6.796 -1.1787 -0.9945  2.1084
 9128TIP3    H248800   2.535   6.730   6.842  0.6534  0.7001 -3.5462
 9129TIP3   OH248801   6.459   6.548  14.190 -0.4352  0.2595 -0.0429
 9129TIP3    H148802   6.447   6.487  14.117 -2.6455  1.0134 -0.3735
 9129TIP3    H248803   6.371   6.578  14.212  0.3041  1.1342  2.0412
 9130TIP3   OH248804   3.059   2.687   2.922 -0.4141  0.2192  0.2455
 9130TIP3    H148805   3.015   2.602   2.931  0.8049 -0.5228 -0.5309
 9130TIP3    H248806   3.062   2.702   2.828  0.3326  0.6029  0.3251
 9131TIP3   OH248807   6.682   3.684   0.266 -0.0388  0.2862  0.1698
 9131TIP3    H148808   6.686   3.656   0.357 -2.2611  0.2099  0.3044
 9131TIP3    H248809   6.724   3.613   0.217  0.7005  0.0805  1.0759
 9132TIP3   OH248810   5.720   0.871  12.392  0.4419  0.3724  0.5789
 9132TIP3    H148811   5.785   0.863  12.321  0.1202  0.1010  0.3101
 9132TIP3    H248812   5.758   0.822  12.465  0.5805  0.2899  0.4519
 9133TIP3   OH248813   1.582   6.685  13.520  0.0128  0.2472  0.0903
 9133TIP3    H148814   1.640   6.610  13.509 -2.3927 -2.2204  2.6201
 9133TIP3    H248815   1.619   6.734  13.594  1.5270  1.6173 -1.4975
 9134TIP3   OH248816   3.159   3.589   1.293  0.2571 -0.6921 -0.1865
 9134TIP3    H148817   3.140   3.605   1.386  0.2119  0.9064 -0.4332
 9134TIP3    H248818   3.163   3.494   1.285 -2.8270 -1.0095  0.8251
 9135TIP3   OH248819   5.590   3.503   1.334 -0.7250  0.2747  0.0464
 9135TIP3    H148820   5.507   3.470   1.300 -0.8945 -0.6321  1.2649
 9135TIP3    H248821   5.654   3.434   1.314 -0.7137 -0.0115  1.0081
 9136TIP3   OH248822   3.642   3.828   3.499  0.1708 -0.3298 -0.0964
 9136TIP3    H148823   3.668   3.870   3.581 -1.5036 -1.5375  1.1195
 9136TIP3    H248824   3.725   3.799   3.460  1.0696  1.1161  0.6568
 9137TIP3   OH248825   0.979   2.459  13.526 -0.0439  0.1022 -0.1222
 9137TIP3    H148826   1.063   2.483  13.564  0.1093 -0.4673 -0.1048
 9137TIP3    H248827   0.950   2.539  13.481  0.2813  0.4418  0.2673
 9138TIP3   OH248828   6.318   4.821  11.631  0.5421 -0.1192 -0.1133
 9138TIP3    H148829   6.336   4.870  11.551 -0.4611  1.6329  0.6798
 9138TIP3    H248830   6.322   4.886  11.701  3.2840 -1.9276  1.5741
 9139TIP3   OH248831   3.115   2.538   4.578  0.2208  0.7235  0.6965
 9139TIP3    H148832   3.078   2.455   4.548  0.0993  0.0591  2.5388
 9139TIP3    H248833   3.138   2.584   4.498 -3.1686  0.5505 -0.5671
 9140TIP3   OH248834   5.959   6.447  17.115 -0.4668 -0.1068 -0.2180
 9140TIP3    H148835   6.024   6.510  17.085  0.5769 -0.9532  0.1668
 9140TIP3    H248836   5.881   6.498  17.132  0.4052  1.1167  0.2624
 9141TIP3   OH248837   0.738   1.953   3.279 -0.3918  0.2451 -0.3154
 9141TIP3    H148838   0.803   1.886   3.257 -0.3574  0.3053 -0.3994
 9141TIP3    H248839   0.672   1.946   3.210 -0.0374  0.7596 -0.7136
 9142TIP3   OH248840   6.758   2.992   0.383  0.0922  0.0006 -0.6709
 9142TIP3    H148841   6.774   2.958   0.295  0.5635  1.1240 -1.0360
 9142TIP3    H248842   6.841   3.035   0.407 -0.7086  1.5327 -0.5394
 9143TIP3   OH248843   6.404   2.372  12.022  0.5735  0.2010  0.0159
 9143TIP3    H148844   6.448   2.432  12.081  0.7640  0.3346 -0.2586
 9143TIP3    H248845   6.473   2.341  11.963  0.1622  1.0811 -0.9787
 9144TIP3   OH248846   5.174   0.216   4.159 -0.3631 -0.1739  0.3669
 9144TIP3    H148847   5.121   0.163   4.100 -1.1515  0.8642  0.1249
 9144TIP3    H248848   5.239   0.258   4.103 -2.1498  2.1417 -0.1053
 9145TIP3   OH248849   2.492   1.003   3.005 -0.2848  0.2523 -0.7909
 9145TIP3    H148850   2.411   1.008   2.955 -0.7278 -1.1195 -0.2416
 9145TIP3    H248851   2.544   0.936   2.960  0.3118  0.7125 -0.7979
 9146TIP3   OH248852   1.422   4.047  13.513  0.1769 -0.1930 -0.3476
 9146TIP3    H148853   1.374   4.022  13.591  2.0655 -0.0568  0.9312
 9146TIP3    H248854   1.487   4.110  13.544  0.9877 -0.1499 -2.0207
 9147TIP3   OH248855   4.240   1.271  14.627  0.3158  0.0948 -0.1090
 9147TIP3    H148856   4.214   1.180  14.638  0.7923 -0.2523 -1.5816
 9147TIP3    H248857   4.239   1.285  14.532 -4.1134  2.9526  0.0919
 9148TIP3   OH248858   1.327   4.636  14.339  0.1753 -0.0001 -0.0590
 9148TIP3    H148859   1.267   4.563  14.354  1.0231 -0.3119  2.3051
 9148TIP3    H248860   1.407   4.596  14.307 -0.4007  0.2843 -1.9603
 9149TIP3   OH248861   4.083   6.102   5.253  0.4283  0.1960  0.6053
 9149TIP3    H148862   4.034   6.169   5.300 -0.0953  0.7977 -0.7246
 9149TIP3    H248863   4.129   6.151   5.184 -1.5537 -0.9549 -1.6873
 9150TIP3   OH248864   6.317   1.838   1.543  0.6160 -0.4546 -0.3351
 9150TIP3    H148865   6.366   1.765   1.506  1.6409  0.6440 -1.2327
 9150TIP3    H248866   6.365   1.861   1.622  2.2761  1.2843 -1.7474
 9151TIP3   OH248867   3.782   2.338  12.583  0.4182 -0.2375  0.0094
 9151TIP3    H148868   3.767   2.322  12.676  1.0483  1.1554  0.3779
 9151TIP3    H248869   3.876   2.322  12.571  0.0568 -2.0445 -0.7731
 9152TIP3   OH248870   5.621   0.955  11.131 -0.3543 -0.1127  0.1666
 9152TIP3    H148871   5.573   0.921  11.055 -0.3296 -2.4656  1.1271
 9152TIP3    H248872   5.711   0.926  11.117 -0.0844  0.5345  0.5097
 9153TIP3   OH248873   2.169   1.574   3.615 -0.3562 -0.5332  0.1324
 9153TIP3    H148874   2.239   1.618   3.565  0.0366 -1.9011 -0.5793
 9153TIP3    H248875   2.090   1.623   3.593  0.4185  1.4352  1.4228
 9154TIP3   OH248876   3.000   5.413   3.952 -0.4987  0.2261 -0.4601
 9154TIP3    H148877   3.031   5.350   4.017  0.9565  2.0938  0.7347
 9154TIP3    H248878   3.050   5.493   3.969 -2.7384  1.9545 -1.4786
 9155TIP3   OH248879   3.899   2.669   2.620  0.1115 -0.3001  0.5059
 9155TIP3    H148880   3.937   2.593   2.576  0.3888 -0.1138  0.4284
 9155TIP3    H248881   3.887   2.734   2.550 -0.4504 -0.3940  0.5048
 9156TIP3   OH248882   4.965   0.802   1.770  0.4394  0.6397 -0.1570
 9156TIP3    H148883   4.928   0.713   1.769  0.9746  0.4117 -0.2399
 9156TIP3    H248884   4.964   0.829   1.678 -0.4845  1.0514 -0.0371
 9157TIP3   OH248885   3.188   4.134   5.702  0.1081 -0.0894  0.3020
 9157TIP3    H148886   3.193   4.161   5.610  0.2700  0.5655  0.4979
 9157TIP3    H248887   3.109   4.080   5.706 -1.7001  2.3828  0.3779
 9158TIP3   OH248888   4.830   5.952   4.954 -0.0071 -1.0589 -0.7067
 9158TIP3    H148889   4.839   6.030   4.899 -0.2161 -1.4328 -1.2695
 9158TIP3    H248890   4.749   5.911   4.926  0.1142 -1.4991 -0.4320
 9159TIP3   OH248891   6.769   1.980  17.166  0.2261  0.3533 -0.2856
 9159TIP3    H148892   6.695   2.041  17.173  0.3148  0.5675 -1.0610
 9159TIP3    H248893   6.736   1.910  17.109 -0.1204 -0.7206  1.1696
 9160TIP3   OH248894   5.296   0.052   4.576  0.2574  0.0970  0.4200
 9160TIP3    H148895   5.312   0.007   4.659 -0.2949  0.2574  0.6266
 9160TIP3    H248896   5.352   0.008   4.513 -0.6325 -1.2195  0.5037
 9161TIP3   OH248897   3.667   4.360   1.914 -0.5554  0.2825 -0.3508
 9161TIP3    H148898   3.690   4.364   2.007  1.6252  0.8791 -0.8759
 9161TIP3    H248899   3.634   4.271   1.901  0.4961 -0.2806  0.6992
 9162TIP3   OH248900   0.491   1.768  12.941 -0.1183  0.5906  0.0941
 9162TIP3    H148901   0.502   1.675  12.960 -0.5010  0.2910 -1.0567
 9162TIP3    H248902   0.548   1.812  13.003  1.3813 -0.5042 -0.4353
 9163TIP3   OH248903   0.995   6.459  16.887  0.0145  0.0630  0.4852
 9163TIP3    H148904   0.925   6.399  16.915 -0.6330  0.8688  0.6284
 9163TIP3    H248905   0.968   6.488  16.800  1.6184 -1.8044 -0.7204
 9164TIP3   OH248906   4.591   3.256   0.256  0.2184  0.2141  0.2584
 9164TIP3    H148907   4.635   3.330   0.214  1.4793  0.0909  1.3042
 9164TIP3    H248908   4.568   3.288   0.343 -2.6485  0.5683 -0.5215
 9165TIP3   OH248909   4.484   5.158  12.155  0.0392 -0.5000  0.1409
 9165TIP3    H148910   4.571   5.130  12.181  0.7831  0.8774 -0.7264
 9165TIP3    H248911   4.490   5.171  12.060 -0.2922  2.1328  0.3887
 9166TIP3   OH248912   4.282   2.510   2.186 -0.0926  0.5293 -0.0527
 9166TIP3    H148913   4.287   2.555   2.102 -1.3734  2.0046  0.6120
 9166TIP3    H248914   4.283   2.417   2.163  1.4296  0.8712 -1.5379
 9167TIP3   OH248915   1.661   3.986  14.807 -0.6323 -0.4692 -0.0966
 9167TIP3    H148916   1.591   4.045  14.778  0.8516  2.4549  1.8315
 9167TIP3    H248917   1.625   3.943  14.884 -0.1698  1.5924  1.3482
 9168TIP3   OH248918   0.121   5.318   1.915 -0.5014 -0.0484  0.1436
 9168TIP3    H148919   0.139   5.271   1.997 -1.7907  1.5748  1.4169
 9168TIP3    H248920   0.208   5.338   1.880  0.0932 -0.1778  1.4693
 9169TIP3   OH248921   5.774   6.414  16.163  0.3427  0.3418  0.3836
 9169TIP3    H148922   5.721   6.493  16.151  0.2535  0.1937 -0.2440
 9169TIP3    H248923   5.764   6.366  16.081  2.2454  0.7865 -0.1486
 9170TIP3   OH248924   5.048   0.314  12.420  0.1365  0.2080 -0.1672
 9170TIP3    H148925   5.096   0.395  12.437 -1.3797  1.2980 -0.8228
 9170TIP3    H248926   5.102   0.267  12.357  1.5549  0.1841  1.0172
 9171TIP3   OH248927   3.584   4.751  12.599 -0.0662  0.0164 -0.2834
 9171TIP3    H148928   3.548   4.801  12.672 -0.3306 -0.7408  0.1074
 9171TIP3    H248929   3.534   4.781  12.523  0.0658  0.6485 -0.1311
 9172TIP3   OH248930   0.340   1.005  13.750 -0.4524  0.0634  0.3058
 9172TIP3    H148931   0.275   1.014  13.681 -0.4610  0.9251  0.4130
 9172TIP3    H248932   0.292   1.025  13.831 -0.8434 -2.5047  0.7718
 9173TIP3   OH248933   3.452   1.835   4.463 -0.1890  0.3783 -0.8179
 9173TIP3    H148934   3.446   1.806   4.554  0.5218  2.1927 -0.1278
 9173TIP3    H248935   3.544   1.821   4.440 -0.5891 -1.0691 -1.6579
 9174TIP3   OH248936   6.638   1.028  13.840  0.2219  0.5206  0.0821
 9174TIP3    H148937   6.576   1.077  13.786  0.4128 -0.7992 -1.4500
 9174TIP3    H248938   6.715   1.018  13.784  0.5716 -0.5944  0.7281
 9175TIP3   OH248939   2.704   4.404   2.585  0.3917 -0.4565  0.4655
 9175TIP3    H148940   2.739   4.319   2.611  0.3398  0.1655  2.7148
 9175TIP3    H248941   2.780   4.461   2.579  0.4034 -0.5652 -0.8648
 9176TIP3   OH248942   6.116   5.678   0.922 -0.0011 -0.6213 -0.5649
 9176TIP3    H148943   6.168   5.600   0.900  1.5775  0.3705 -0.5664
 9176TIP3    H248944   6.061   5.692   0.846  0.0396 -1.4677 -0.7616
 9177TIP3   OH248945   1.269   0.848   3.870  0.4046  0.2488  0.1883
 9177TIP3    H148946   1.351   0.849   3.920  0.4013 -1.1674  0.2611
 9177TIP3    H248947   1.284   0.909   3.798  1.5996 -0.1592  0.0789
 9178TIP3   OH248948   5.113   0.801  14.994  0.7534  0.0888  0.3167
 9178TIP3    H148949   5.085   0.760  15.076  2.0555 -1.3853  0.0687
 9178TIP3    H248950   5.049   0.871  14.979 -1.2818 -1.4991  1.0568
 9179TIP3   OH248951   1.555   3.598  15.956  0.7044 -0.2276  0.1964
 9179TIP3    H148952   1.527   3.648  16.032  2.6899  0.3333  0.6219
 9179TIP3    H248953   1.479   3.597  15.898 -0.7388 -0.3671  2.0114
 9180TIP3   OH248954   1.377   4.718  15.851 -0.0610 -0.1794  0.3907
 9180TIP3    H148955   1.381   4.791  15.913 -0.3157  0.0181  0.1802
 9180TIP3    H248956   1.466   4.708  15.819 -0.2950  1.0409 -0.7197
 9181TIP3   OH248957   0.931   6.194   4.703 -0.5270  0.1966 -0.2672
 9181TIP3    H148958   0.903   6.278   4.665 -1.2734  0.7357  1.3681
 9181TIP3    H248959   0.922   6.131   4.631 -0.9038  1.3333 -1.2584
 9182TIP3   OH248960   4.005   5.077   2.139  0.1802  0.3654 -0.1588
 9182TIP3    H148961   4.019   5.096   2.046  0.4512 -0.2730 -0.2519
 9182TIP3    H248962   4.075   5.015   2.161  0.6913  1.2078  0.6978
 9183TIP3   OH248963   3.339   3.957   4.753 -0.0247  0.5667 -0.5018
 9183TIP3    H148964   3.291   3.903   4.816  2.6593 -0.1056  1.1542
 9183TIP3    H248965   3.376   4.028   4.806  4.1248 -1.1872 -0.6189
 9184TIP3   OH248966   0.745   4.520  13.279  0.6218  0.1247 -0.2217
 9184TIP3    H148967   0.724   4.446  13.222 -0.4951 -0.6102  1.0967
 9184TIP3    H248968   0.696   4.504  13.359  3.0018  0.5183  1.4208
 9185TIP3   OH248969   4.094   2.042  16.485 -0.0027  1.1239  0.0043
 9185TIP3    H148970   4.034   1.978  16.447 -0.8325  0.9361  1.5422
 9185TIP3    H248971   4.037   2.111  16.519  0.6405  1.0547  1.3022
 9186TIP3   OH248972   1.112   0.936  11.113  0.0030 -0.3151  0.1064
 9186TIP3    H148973   1.083   0.977  11.195  0.2064 -0.7688  0.4075
 9186TIP3    H248974   1.201   0.970  11.099  0.4727 -1.2552  0.7692
 9187TIP3   OH248975   2.877   1.198  16.532 -0.3177 -0.5138  0.3378
 9187TIP3    H148976   2.940   1.206  16.461  0.1049 -1.0598  0.6486
 9187TIP3    H248977   2.805   1.256  16.506  0.0585 -0.3122 -0.2830
 9188TIP3   OH248978   6.410   1.478   4.094  0.0879 -0.2342  0.1160
 9188TIP3    H148979   6.457   1.502   4.014  0.9644 -0.3194  0.6026
 9188TIP3    H248980   6.318   1.499   4.074  0.4041  0.5375 -0.6090
 9189TIP3   OH248981   3.018   3.808  11.098 -0.0968  0.5963  0.8521
 9189TIP3    H148982   3.036   3.857  11.178  0.8605  0.7340  0.5601
 9189TIP3    H248983   2.932   3.838  11.070 -1.2728 -0.7410  2.7891
 9190TIP3   OH248984   3.724   3.687   3.154 -0.2409  0.1895  1.0155
 9190TIP3    H148985   3.779   3.658   3.227 -3.2807 -0.9549  3.0417
 9190TIP3    H248986   3.708   3.607   3.103  0.9272  0.7662 -0.3476
 9191TIP3   OH248987   4.477   2.194  11.300 -0.2563  0.4407 -0.1413
 9191TIP3    H148988   4.502   2.155  11.216  0.5762 -0.5795  0.5736
 9191TIP3    H248989   4.553   2.245  11.327 -0.2335  0.1325  0.3782
 9192TIP3   OH248990   0.686   6.569   1.051 -0.4315 -0.0758 -0.6166
 9192TIP3    H148991   0.617   6.525   1.000 -0.8646  1.9880 -1.9238
 9192TIP3    H248992   0.641   6.600   1.129 -0.5913 -0.2218 -0.6492
 9193TIP3   OH248993   2.235   1.472   0.683  0.2995 -0.4454  0.2941
 9193TIP3    H148994   2.180   1.400   0.716 -0.9883 -0.4465 -1.6097
 9193TIP3    H248995   2.215   1.546   0.740 -0.2656 -0.9515  0.7707
 9194TIP3   OH248996   0.051   2.718  12.245 -0.5248 -0.4351 -0.2590
 9194TIP3    H148997   0.137   2.692  12.212 -0.5931 -2.0109  0.7468
 9194TIP3    H248998   0.069   2.794  12.301  0.0875 -0.2231 -0.7300
 9195TIP3   OH248999   1.401   0.788   6.662 -0.2319 -0.1871  0.3980
 9195TIP3    H149000   1.466   0.856   6.647  0.1001 -0.8110 -1.3032
 9195TIP3    H249001   1.450   0.715   6.700 -0.6174  0.5405  2.3725
 9196TIP3   OH249002   6.073   3.285   5.206 -0.2133 -0.1296  0.0087
 9196TIP3    H149003   6.019   3.319   5.277 -0.6917 -1.1594  0.1525
 9196TIP3    H249004   6.131   3.358   5.183 -0.6598  0.5055  0.8433
 9197TIP3   OH249005   5.353   0.469  12.887  0.2237  0.0130 -0.1496
 9197TIP3    H149006   5.408   0.413  12.941 -1.8424 -1.9853  0.0276
 9197TIP3    H249007   5.314   0.410  12.822 -3.9515  0.5700  1.5374
 9198TIP3   OH249008   3.195   5.767   4.446  0.4771 -0.0148 -0.0420
 9198TIP3    H149009   3.285   5.747   4.421  0.1664 -1.3811 -0.1520
 9198TIP3    H249010   3.165   5.689   4.492 -0.0125  1.2203  1.8143
 9199TIP3   OH249011   6.655   2.030  11.961 -0.2959  0.3618  0.3024
 9199TIP3    H149012   6.748   2.010  11.968 -0.6718 -1.5335  0.3435
 9199TIP3    H249013   6.640   2.046  11.868 -0.4878 -2.7065 -0.2987
 9200TIP3   OH249014   6.659   2.028   6.568 -0.4628  0.1047  1.0261
 9200TIP3    H149015   6.638   2.006   6.659  2.3864 -0.8386  1.5620
 9200TIP3    H249016   6.630   1.953   6.517 -1.2551  0.2441  1.2581
 9201TIP3   OH249017   5.338   2.833  14.190  0.0846 -0.1291  0.2850
 9201TIP3    H149018   5.404   2.816  14.257  0.7537 -1.0142 -0.5681
 9201TIP3    H249019   5.356   2.923  14.161  1.2756 -0.5452 -0.3119
 9202TIP3   OH249020   4.290   4.652   6.098 -0.1365 -0.1494 -0.6413
 9202TIP3    H149021   4.227   4.599   6.049 -0.9060 -0.3517  0.5178
 9202TIP3    H249022   4.298   4.606   6.182  0.7010  0.5024 -0.3603
 9203TIP3   OH249023   3.607   1.437   6.141 -0.4439 -0.4766 -0.0088
 9203TIP3    H149024   3.681   1.495   6.153 -0.5627 -0.7268  2.3134
 9203TIP3    H249025   3.588   1.403   6.228 -1.4220 -2.7156 -1.0088
 9204TIP3   OH249026   3.552   6.766   3.905  0.0394 -0.0165 -0.0126
 9204TIP3    H149027   3.544   6.686   3.957  0.4973 -0.6195 -0.8380
 9204TIP3    H249028   3.633   6.807   3.938 -0.9265  0.8726  1.3855
 9205TIP3   OH249029   2.009   4.292   0.815  0.4123 -0.9162  0.4397
 9205TIP3    H149030   2.051   4.378   0.821 -0.3638 -0.5311  0.4786
 9205TIP3    H249031   1.915   4.311   0.816  0.2303 -1.7031 -0.4395
 9206TIP3   OH249032   4.455   0.124  15.529 -0.3654 -0.7838  0.0409
 9206TIP3    H149033   4.501   0.041  15.522 -0.9059 -1.1004  0.1454
 9206TIP3    H249034   4.385   0.118  15.464  0.3204  0.0864 -0.8148
 9207TIP3   OH249035   1.663   1.309  16.101 -0.0723  0.1739  0.0723
 9207TIP3    H149036   1.657   1.382  16.039 -1.3696 -1.2392 -1.5891
 9207TIP3    H249037   1.595   1.327  16.166  0.3554  0.9747  0.3125
 9208TIP3   OH249038   0.851   0.762   4.140 -0.3503 -0.2709 -0.9580
 9208TIP3    H149039   0.933   0.800   4.107 -0.5280  1.4004  0.4030
 9208TIP3    H249040   0.792   0.763   4.065  0.4906 -0.3375 -1.6352
 9209TIP3   OH249041   1.797   2.651   6.025  0.2519 -0.0129 -0.1491
 9209TIP3    H149042   1.753   2.733   6.048 -1.9544 -0.6363 -1.8023
 9209TIP3    H249043   1.813   2.608   6.109 -1.8940  0.5010  0.5916
 9210TIP3   OH249044   0.352   5.416  12.193 -0.2264 -0.1736  0.5042
 9210TIP3    H149045   0.323   5.326  12.211  0.6624 -0.9700 -1.6297
 9210TIP3    H249046   0.448   5.409  12.190 -0.2114  0.2699 -2.0063
 9211TIP3   OH249047   3.526   0.876   4.073  0.6883 -0.2492 -0.0448
 9211TIP3    H149048   3.563   0.953   4.116 -0.3769 -0.1553  0.7470
 9211TIP3    H249049   3.510   0.904   3.983  0.3829  0.4445  0.2157
 9212TIP3   OH249050   5.392   0.716   1.197  0.1080  0.1224  0.3958
 9212TIP3    H149051   5.343   0.709   1.278  0.3962 -2.7856  0.4076
 9212TIP3    H249052   5.479   0.744   1.224  0.4270 -1.5478  1.2550
 9213TIP3   OH249053   5.939   3.152  12.840 -0.0443 -0.3035 -0.6659
 9213TIP3    H149054   6.019   3.204  12.849 -1.0491  1.5941 -1.9255
 9213TIP3    H249055   5.922   3.150  12.745 -2.5223  1.1203 -0.3377
 9214TIP3   OH249056   6.371   5.304  11.662  0.3128  0.4680  0.3501
 9214TIP3    H149057   6.292   5.295  11.608  1.5027  0.3888 -1.4498
 9214TIP3    H249058   6.430   5.359  11.610  1.6855  0.0296  1.3834
 9215TIP3   OH249059   2.270   1.979  15.576 -0.3366  0.0861  0.3757
 9215TIP3    H149060   2.306   1.973  15.665 -1.7318 -0.4283  0.9222
 9215TIP3    H249061   2.249   2.072  15.566  2.2408  0.6656 -0.4377
 9216TIP3   OH249062   6.374   0.497  14.022  0.3081  0.1633  0.1195
 9216TIP3    H149063   6.295   0.487  14.076 -1.7610  0.7462 -2.5984
 9216TIP3    H249064   6.385   0.591  14.012  0.4196  0.0604 -0.7876
 9217TIP3   OH249065   1.504   1.873   4.586  0.2542 -0.4871 -0.4903
 9217TIP3    H149066   1.595   1.852   4.566  0.9033  2.3257 -0.7956
 9217TIP3    H249067   1.475   1.928   4.514 -0.6291  1.3303  1.1753
 9218TIP3   OH249068   1.506   2.241  14.809 -0.0549 -0.6723 -0.3266
 9218TIP3    H149069   1.547   2.328  14.802 -2.3005  0.4442 -0.4681
 9218TIP3    H249070   1.472   2.237  14.898 -1.3498 -0.7313 -0.8053
 9219TIP3   OH249071   3.110   4.440  11.427 -0.2806  0.7126 -0.1636
 9219TIP3    H149072   3.056   4.497  11.372  1.5823  2.1670 -0.6038
 9219TIP3    H249073   3.102   4.477  11.515 -0.2944  0.6818 -0.1516
 9220TIP3   OH249074   5.840   4.212   3.467 -0.6609 -0.2485  0.0911
 9220TIP3    H149075   5.865   4.296   3.505 -1.9545 -0.1160  0.7058
 9220TIP3    H249076   5.867   4.218   3.375  2.0099 -0.3565  0.7985
 9221TIP3   OH249077   3.012   3.009  16.784 -0.1048 -0.5441  0.3809
 9221TIP3    H149078   3.071   2.939  16.812  0.4698 -0.5092 -0.6833
 9221TIP3    H249079   2.945   2.965  16.733 -0.0941 -0.3995  0.2393
 9222TIP3   OH249080   0.125   5.309   5.904 -0.4459  0.1435 -0.7300
 9222TIP3    H149081   0.070   5.316   5.982 -0.9198  2.0664 -1.1781
 9222TIP3    H249082   0.076   5.251   5.845 -0.9215  0.0613 -0.2619
 9223TIP3   OH249083   2.812   0.350  14.052  0.1688  0.6209 -0.1446
 9223TIP3    H149084   2.833   0.270  14.100  0.7004  0.7284 -0.1845
 9223TIP3    H249085   2.820   0.324  13.960  1.0180  0.8843 -0.1532
 9224TIP3   OH249086   2.082   1.668  16.513 -0.3645 -0.2740 -0.5415
 9224TIP3    H149087   2.014   1.729  16.540 -0.5112 -0.1377 -1.2083
 9224TIP3    H249088   2.089   1.606  16.586  0.3267  0.9612  0.4735
 9225TIP3   OH249089   5.080   6.130   5.072 -0.6143  0.3582 -0.5246
 9225TIP3    H149090   5.017   6.190   5.111 -0.0453  0.1678  0.7313
 9225TIP3    H249091   5.069   6.048   5.120 -0.2951 -0.0635 -1.1578
 9226TIP3   OH249092   4.580   1.979   5.972 -0.5028  0.2957  0.3283
 9226TIP3    H149093   4.500   1.987   6.024 -0.5720 -1.9113  0.6441
 9226TIP3    H249094   4.549   1.963   5.883 -0.4032  0.2542  0.3009
 9227TIP3   OH249095   5.753   1.084  13.239 -0.0389 -0.6926 -0.1472
 9227TIP3    H149096   5.829   1.060  13.292 -0.9433 -0.6406  1.1967
 9227TIP3    H249097   5.697   1.007  13.241 -1.4928  0.3424  1.5719
 9228TIP3   OH249098   4.230   0.687  14.003 -0.6591  1.1481 -0.4977
 9228TIP3    H149099   4.322   0.663  14.011 -0.4752  1.7283 -0.8154
 9228TIP3    H249100   4.222   0.769  14.051 -1.3319  0.3651  0.7866
 9229TIP3   OH249101   6.642   3.288   1.048 -0.0488 -0.1600 -0.1528
 9229TIP3    H149102   6.556   3.294   1.090 -0.2065  0.5855 -0.5804
 9229TIP3    H249103   6.702   3.267   1.119 -0.2040  1.7637  0.6031
 9230TIP3   OH249104   5.246   6.767   5.035 -0.0465  0.2596 -0.1719
 9230TIP3    H149105   5.164   6.741   5.077  0.3843 -0.0621  0.4914
 9230TIP3    H249106   5.226   6.771   4.942 -0.8888  0.4648  0.0106
 9231TIP3   OH249107   3.430   0.615   1.793  0.4204 -0.4881 -0.7041
 9231TIP3    H149108   3.368   0.657   1.733 -0.2313 -1.2248 -0.5657
 9231TIP3    H249109   3.407   0.522   1.790  0.8164 -0.6243  0.1825
 9232TIP3   OH249110   2.970   0.117   0.853  0.1732  0.2032  0.3182
 9232TIP3    H149111   2.912   0.161   0.790 -0.6375 -2.6943 -1.1375
 9232TIP3    H249112   3.047   0.093   0.801  0.7761  0.2544  1.1733
 9233TIP3   OH249113   0.375   4.633  12.844 -0.2034  0.1787 -0.0408
 9233TIP3    H149114   0.325   4.583  12.909 -2.8709 -0.3303 -2.2858
 9233TIP3    H249115   0.464   4.598  12.850 -0.5700 -0.4858  2.6431
 9234TIP3   OH249116   2.092   2.014   4.535 -0.2872  0.0512 -0.4919
 9234TIP3    H149117   2.073   2.093   4.584 -1.7114 -1.0774  0.8524
 9234TIP3    H249118   2.041   2.022   4.454 -1.2112  0.0798  0.0843
 9235TIP3   OH249119   4.386   0.982  14.694 -0.7089 -0.7231  0.4220
 9235TIP3    H149120   4.387   0.955  14.602  1.8534 -0.6513  0.3327
 9235TIP3    H249121   4.343   0.910  14.740  0.2939 -2.0207 -0.5713
 9236TIP3   OH249122   3.874   1.967  14.193  0.0061 -0.0654  0.3217
 9236TIP3    H149123   3.937   1.999  14.128 -0.3309  0.6746  0.3423
 9236TIP3    H249124   3.887   2.024  14.269 -0.4319 -0.1414  0.4585
 9237TIP3   OH249125   6.403   0.002   5.915 -0.2574  0.1189  0.4253
 9237TIP3    H149126   6.469   0.057   5.873 -1.4024  0.6390 -0.7900
 9237TIP3    H249127   6.331   0.062   5.935 -1.1488 -0.7466 -0.0741
 9238TIP3   OH249128   5.258   1.306  13.551 -0.2237 -0.0917  0.7219
 9238TIP3    H149129   5.301   1.223  13.530  1.1233  0.8666 -0.5972
 9238TIP3    H249130   5.177   1.304  13.500  1.2535  0.6160 -1.8457
 9239TIP3   OH249131   0.643   0.362  13.453  0.3493  0.1654 -0.1056
 9239TIP3    H149132   0.656   0.445  13.407  1.0826  0.7154  1.0430
 9239TIP3    H249133   0.559   0.330  13.421 -0.2975  1.7101 -0.0485
 9240TIP3   OH249134   5.594   3.737   3.224  0.0307  0.0058  0.2681
 9240TIP3    H149135   5.614   3.824   3.189 -2.3685  0.7466  0.5763
 9240TIP3    H249136   5.618   3.742   3.316  0.9582 -0.0568  0.0407
 9241TIP3   OH249137   2.259   0.362   3.447 -0.3563  0.6408  0.1190
 9241TIP3    H149138   2.311   0.290   3.483  0.0882  1.9071  2.1813
 9241TIP3    H249139   2.168   0.334   3.459 -0.1838  0.2838  0.6499
 9242TIP3   OH249140   3.334   6.036   1.409  0.0777  0.4016  0.0722
 9242TIP3    H149141   3.279   6.084   1.348 -0.7255 -0.6843 -0.0962
 9242TIP3    H249142   3.408   6.094   1.427  0.1356  0.8903 -1.6364
 9243TIP3   OH249143   1.466   2.324   0.963 -0.0767 -0.3995 -0.0885
 9243TIP3    H149144   1.513   2.293   1.041 -1.4723  2.2152  1.9535
 9243TIP3    H249145   1.374   2.319   0.987 -0.6544 -1.1821 -2.2962
 9244TIP3   OH249146   5.212   1.600  12.728  0.0558 -0.0859 -0.6151
 9244TIP3    H149147   5.153   1.563  12.662 -0.8046  1.3220 -0.6667
 9244TIP3    H249148   5.168   1.582  12.811  0.3452 -0.4202 -0.5305
 9245TIP3   OH249149   1.415   0.092  13.669  0.1887 -0.6134 -0.4098
 9245TIP3    H149150   1.373   0.008  13.649  2.0319 -1.4084 -1.2646
 9245TIP3    H249151   1.382   0.152  13.602  1.3420 -1.5761 -1.9202
 9246TIP3   OH249152   4.051   2.586  15.131 -0.4557  0.4546  0.2322
 9246TIP3    H149153   4.055   2.561  15.039  1.5809 -0.3920  0.4975
 9246TIP3    H249154   4.100   2.668  15.136 -2.5414  1.7782  0.2433
 9247TIP3   OH249155   1.270   4.068   0.369  0.4428 -0.5228  0.1279
 9247TIP3    H149156   1.196   4.007   0.379 -0.4069  0.3973 -0.3988
 9247TIP3    H249157   1.243   4.147   0.415  0.7411  0.1259 -0.7859
 9248TIP3   OH249158   5.920   3.525   0.291 -0.0855 -0.0608  0.2529
 9248TIP3    H149159   5.931   3.602   0.234 -4.5027  0.1166 -0.6893
 9248TIP3    H249160   5.943   3.451   0.235  2.4614  0.3343  0.6227
 9249TIP3   OH249161   5.545   2.760  16.385 -0.6789 -0.1186 -0.1615
 9249TIP3    H149162   5.498   2.801  16.458  0.9503  2.3149 -0.3394
 9249TIP3    H249163   5.550   2.830  16.319  1.4394 -0.9140 -0.9027
 9250TIP3   OH249164   2.579   5.704   2.877 -0.3916  0.2857 -0.1067
 9250TIP3    H149165   2.637   5.675   2.806 -1.0942 -0.4413 -0.4051
 9250TIP3    H249166   2.638   5.724   2.949  0.2704  0.0279 -0.5599
 9251TIP3   OH249167   5.190   5.332   0.557 -0.3910  0.0258  0.0674
 9251TIP3    H149168   5.265   5.389   0.539  0.2374 -0.6557  0.4656
 9251TIP3    H249169   5.146   5.373   0.632  2.6442 -2.2594  3.4459
 9252TIP3   OH249170   5.388   2.705   2.475 -0.7134 -0.7931  0.3608
 9252TIP3    H149171   5.455   2.637   2.486  0.4206  0.6190  2.9927
 9252TIP3    H249172   5.349   2.686   2.389  1.8733 -2.6865 -0.5240
 9253TIP3   OH249173   4.228   5.805  10.617  0.4269  0.3874  0.2841
 9253TIP3    H149174   4.219   5.736  10.683  0.1572 -0.5101 -0.6623
 9253TIP3    H249175   4.191   5.883  10.658  1.7811  0.2834  1.8052
 9254TIP3   OH249176   6.435   3.447   4.507 -0.5916 -0.1999  0.4158
 9254TIP3    H149177   6.345   3.462   4.536 -0.7137 -0.0610 -0.0227
 9254TIP3    H249178   6.429   3.438   4.412  0.1516  2.2948  0.0593
 9255TIP3   OH249179   6.033   5.973  14.455  0.5490 -0.1402  0.0030
 9255TIP3    H149180   6.006   5.884  14.434 -1.2493  0.3111  0.2517
 9255TIP3    H249181   6.020   6.022  14.373 -0.4353  0.3011  0.4081
 9256TIP3   OH249182   4.274   5.116  12.791  0.0393 -0.2548  0.1022
 9256TIP3    H149183   4.265   5.066  12.873  2.2496 -0.7609  0.0749
 9256TIP3    H249184   4.203   5.083  12.736 -2.0549  0.6894  2.0384
 9257TIP3   OH249185   5.504   1.827   3.851 -0.1542 -0.5545 -0.6256
 9257TIP3    H149186   5.466   1.789   3.771  1.0442 -0.6418 -1.1770
 9257TIP3    H249187   5.482   1.920   3.846  1.7659 -0.1222 -2.2178
 9258TIP3   OH249188   1.319   1.536   2.957 -0.2559  0.1084 -0.1839
 9258TIP3    H149189   1.403   1.579   2.972  0.9076 -1.6351 -1.3081
 9258TIP3    H249190   1.310   1.535   2.862 -1.8776  0.7917 -0.0684
 9259TIP3   OH249191   3.283   0.924   3.519 -0.0428  0.0155 -0.1189
 9259TIP3    H149192   3.321   0.986   3.457 -0.4200  0.8438  0.4509
 9259TIP3    H249193   3.269   0.975   3.598 -0.8149 -0.6801  0.2099
 9260TIP3   OH249194   1.064   5.152  14.564  0.7855 -0.1195 -0.1996
 9260TIP3    H149195   1.158   5.151  14.547  0.7962  0.1115 -0.1526
 9260TIP3    H249196   1.046   5.240  14.598  0.8885 -0.7554  1.6701
 9261TIP3   OH249197   5.587   6.399   3.706 -0.2327 -0.4671 -0.0356
 9261TIP3    H149198   5.595   6.410   3.801 -1.4844  0.5124 -0.0121
 9261TIP3    H249199   5.495   6.418   3.687 -0.1184 -1.1154 -1.3929
 9262TIP3   OH249200   0.503   2.381   2.300  0.2346 -0.3316 -0.4173
 9262TIP3    H149201   0.494   2.454   2.362  1.2008 -1.9722  1.7759
 9262TIP3    H249202   0.418   2.337   2.302 -0.5081  0.8798 -2.0925
 9263TIP3   OH249203   0.735   2.069  12.956  0.4554  0.0440 -0.2450
 9263TIP3    H149204   0.703   1.995  13.008  1.5538  1.2030  2.2924
 9263TIP3    H249205   0.827   2.048  12.938 -0.1218 -0.7344 -2.6055
 9264TIP3   OH249206   0.251   3.936  11.677 -0.3374  0.0346  0.2256
 9264TIP3    H149207   0.247   3.895  11.590  1.3935  1.3087 -0.5256
 9264TIP3    H249208   0.162   3.932  11.710 -1.2220  0.2196 -1.9655
 9265TIP3   OH249209   2.131   4.261  16.759 -0.3156 -0.3541  0.0664
 9265TIP3    H149210   2.117   4.252  16.665 -1.2369 -1.4712  0.2899
 9265TIP3    H249211   2.107   4.176  16.795 -1.6517  0.5730  1.5079
 9266TIP3   OH249212   4.473   4.069  16.635 -0.1440 -0.6289  0.2718
 9266TIP3    H149213   4.386   4.082  16.672 -0.8727 -3.9707  0.0041
 9266TIP3    H249214   4.457   4.038  16.546  1.3503 -0.6141 -0.0333
 9267TIP3   OH249215   5.456   5.727   2.177  0.9531 -0.2625 -0.5075
 9267TIP3    H149216   5.501   5.644   2.162  1.5339 -0.1216  0.3561
 9267TIP3    H249217   5.425   5.721   2.267  2.8760  1.2701  0.3415
 9268TIP3   OH249218   0.044   4.873   2.668  0.7185  0.0027  0.7251
 9268TIP3    H149219  -0.030   4.932   2.683  1.3264  0.8511  0.4782
 9268TIP3    H249220   0.071   4.891   2.578  0.2547 -1.4306  0.2746
 9269TIP3   OH249221   4.389   3.662   3.037 -0.3242  0.4436 -0.0251
 9269TIP3    H149222   4.362   3.689   2.949  0.0400 -0.8379 -0.5434
 9269TIP3    H249223   4.318   3.693   3.093 -1.3560 -0.1026 -0.9715
 9270TIP3   OH249224   0.601   5.962  13.385 -0.8097  0.2350 -0.7484
 9270TIP3    H149225   0.602   6.036  13.324  1.1980  2.0111  1.2918
 9270TIP3    H249226   0.641   5.996  13.465 -0.6618 -2.8155  0.5942
 9271TIP3   OH249227   6.559   0.912   2.543  0.2414  0.5136  0.2779
 9271TIP3    H149228   6.638   0.954   2.510  0.6865  0.3195  1.0611
 9271TIP3    H249229   6.588   0.825   2.570 -0.0909  0.6797  1.2006
 9272TIP3   OH249230   6.259   1.853  16.288 -0.1981 -0.0784  0.3869
 9272TIP3    H149231   6.176   1.884  16.325 -0.4981 -0.9867  0.5007
 9272TIP3    H249232   6.288   1.785  16.348  0.4023 -0.0841  0.0927
 9273TIP3   OH249233   0.574   4.066  12.244  0.0009 -0.4783 -0.4163
 9273TIP3    H149234   0.618   4.026  12.319 -0.8733 -0.0755  0.3411
 9273TIP3    H249235   0.621   4.033  12.168  0.6052 -1.2930  0.2841
 9274TIP3   OH249236   5.124   1.978  12.981  0.3040  0.0022  0.4021
 9274TIP3    H149237   5.066   1.902  12.974  0.0468  0.2798 -0.6752
 9274TIP3    H249238   5.178   1.974  12.902  1.3015  0.1302  1.0637
 9275TIP3   OH249239   3.258   4.722  11.023 -0.0841 -0.1675  0.1278
 9275TIP3    H149240   3.274   4.636  11.061  0.2357  0.0628  0.5234
 9275TIP3    H249241   3.191   4.707  10.956  0.2519 -0.7877 -0.0764
 9276TIP3   OH249242   6.350   4.404  11.529 -0.0715 -0.3833 -0.1914
 9276TIP3    H149243   6.322   4.314  11.513  1.4982 -0.6873 -1.5773
 9276TIP3    H249244   6.411   4.397  11.603 -0.8089 -0.2744  0.4348
 9277TIP3   OH249245   1.908   2.125   2.552  0.1420 -0.5657  0.0213
 9277TIP3    H149246   1.987   2.132   2.499  0.5166  1.1256  0.7640
 9277TIP3    H249247   1.906   2.033   2.579  1.1546 -0.9258 -1.0497
 9278TIP3   OH249248   4.409   2.012  17.156  0.2492  0.1337  0.9148
 9278TIP3    H149249   4.348   1.938  17.157 -1.8587  1.7580  2.1030
 9278TIP3    H249250   4.454   2.008  17.240  2.5414 -1.5197 -0.2664
 9279TIP3   OH249251   0.045   5.331  13.231  0.1909 -0.0630  0.1108
 9279TIP3    H149252   0.038   5.373  13.145  1.1820 -1.3930 -0.6621
 9279TIP3    H249253   0.066   5.239  13.211  0.2190 -0.4495  1.7763
 9280TIP3   OH249254   2.291   5.462  12.242  0.1205  0.3921  0.1177
 9280TIP3    H149255   2.284   5.461  12.337  0.5882  0.1197  0.1574
 9280TIP3    H249256   2.344   5.539  12.222  1.6588 -0.5764  0.2309
 9281TIP3   OH249257   6.423   5.235   1.000  0.9680 -1.2139  0.2216
 9281TIP3    H149258   6.332   5.217   1.025  0.4926 -1.5780 -1.5951
 9281TIP3    H249259   6.466   5.150   1.006  0.6208 -1.5021 -0.9706
 9282TIP3   OH249260   2.810   1.995  13.149 -0.0658 -0.5680  0.9195
 9282TIP3    H149261   2.717   1.976  13.161 -0.1011 -0.3516  1.0024
 9282TIP3    H249262   2.811   2.076  13.097  0.0585  0.0793  1.8929
 9283TIP3   OH249263   1.029   1.366   5.047 -0.6377 -0.3282  0.0252
 9283TIP3    H149264   1.049   1.417   4.969 -0.4616 -2.6918 -1.5700
 9283TIP3    H249265   1.102   1.382   5.106 -1.6356  2.9456  0.6032
 9284TIP3   OH249266   5.270   5.279  16.070  0.6726 -0.2712 -0.2785
 9284TIP3    H149267   5.276   5.361  16.119 -1.6046  0.0950 -0.4756
 9284TIP3    H249268   5.267   5.306  15.978 -0.9024 -0.4724 -0.3116
 9285TIP3   OH249269   5.488   3.345   2.518 -0.0561  0.2007 -0.1353
 9285TIP3    H149270   5.575   3.342   2.478  0.2647  0.4025  0.5300
 9285TIP3    H249271   5.437   3.400   2.459  0.9228  2.0717  0.6602
 9286TIP3   OH249272   5.831   3.549  12.830 -0.4499  0.4601 -0.7138
 9286TIP3    H149273   5.851   3.627  12.882  0.9131 -0.9425  0.9474
 9286TIP3    H249274   5.912   3.528  12.784  0.2420 -1.7634  1.3400
 9287TIP3   OH249275   6.155   5.874  15.939  0.3590 -0.4089 -0.5729
 9287TIP3    H149276   6.060   5.867  15.932  0.3240 -0.1736 -0.3337
 9287TIP3    H249277   6.176   5.962  15.907  0.7317 -1.2516 -2.8427
 9288TIP3   OH249278   3.986   4.915  16.107 -0.1376  0.0282  0.1098
 9288TIP3    H149279   3.900   4.954  16.121 -0.2441 -0.0312 -0.3489
 9288TIP3    H249280   4.045   4.967  16.162 -0.0923  1.6122 -1.3342
 9289TIP3   OH249281   5.737   0.356   2.754 -0.0647  0.6658  0.1280
 9289TIP3    H149282   5.659   0.388   2.799 -0.7942 -0.3374 -0.3849
 9289TIP3    H249283   5.733   0.396   2.667 -0.3710  0.0888 -0.1267
 9290TIP3   OH249284   5.475   4.508  15.476 -0.0130 -0.0466  0.1939
 9290TIP3    H149285   5.525   4.503  15.558  0.1458  0.0258  0.1031
 9290TIP3    H249286   5.433   4.423  15.468 -1.4295  0.5151  1.2238
 9291TIP3   OH249287   2.262   1.899  13.018 -0.1804  0.8258 -0.1996
 9291TIP3    H149288   2.234   1.814  13.052  1.2968  0.5407  0.3841
 9291TIP3    H249289   2.356   1.889  13.003 -0.2519  1.8931 -1.5598
 9292TIP3   OH249290   5.216   3.649  13.257  0.1297  0.1672 -0.3979
 9292TIP3    H149291   5.155   3.720  13.276 -0.3288 -0.5860  1.1153
 9292TIP3    H249292   5.166   3.586  13.205 -0.2488 -0.2148  0.4157
 9293TIP3   OH249293   0.715   1.199  17.298 -0.4851 -0.6480 -0.1563
 9293TIP3    H149294   0.705   1.186  17.204  1.6810 -0.3562 -0.4905
 9293TIP3    H249295   0.773   1.128  17.326 -0.0285  0.0309  0.6895
 9294TIP3   OH249296   5.990   4.980  11.215 -0.1152 -0.2599 -0.3645
 9294TIP3    H149297   6.052   4.978  11.142 -0.0766  0.7263 -0.3686
 9294TIP3    H249298   5.905   4.989  11.173 -0.0866  0.3849 -0.2940
 9295TIP3   OH249299   0.171   0.359  10.865  0.0688  0.1300  0.0810
 9295TIP3    H149300   0.126   0.274  10.861  1.1608 -0.4235 -1.1122
 9295TIP3    H249301   0.103   0.423  10.849 -0.1219 -0.7698 -3.7373
 9296TIP3   OH249302   3.797   4.062  14.914 -0.1191  0.0416  0.2423
 9296TIP3    H149303   3.786   4.122  14.840 -0.6540 -0.4143 -0.0545
 9296TIP3    H249304   3.799   4.119  14.991 -1.3375  0.4058  0.0275
 9297TIP3   OH249305   3.696   2.087   3.732 -0.0673  0.5541 -0.0594
 9297TIP3    H149306   3.667   2.150   3.667  0.2326  0.0734 -0.6640
 9297TIP3    H249307   3.791   2.084   3.723 -0.1666 -1.1680 -1.1829
 9298TIP3   OH249308   6.361   2.592   1.756  0.4433  0.0461 -0.4232
 9298TIP3    H149309   6.318   2.674   1.731  0.7972  0.4567  0.2891
 9298TIP3    H249310   6.453   2.616   1.765  0.5134 -0.3856  0.0072
 9299TIP3   OH249311   4.896   5.258   2.358 -0.0180  0.6542  0.0832
 9299TIP3    H149312   4.866   5.272   2.448 -1.2499  0.3301 -0.2626
 9299TIP3    H249313   4.871   5.168   2.338  3.1957 -0.4727  0.5036
 9300TIP3   OH249314   4.019   3.377   4.202 -0.0952 -0.0384 -0.2339
 9300TIP3    H149315   4.032   3.371   4.107  1.6295  1.9280 -0.2010
 9300TIP3    H249316   3.969   3.458   4.214  0.8964  0.4874  0.5563
 9301TIP3   OH249317   5.499   6.258  16.846 -0.5069 -0.5830  0.1322
 9301TIP3    H149318   5.448   6.333  16.876 -1.2392 -0.5900 -1.0164
 9301TIP3    H249319   5.477   6.188  16.907 -1.3990 -0.4101  0.0216
 9302TIP3   OH249320   5.202   4.308   0.109  0.3196  0.1744  0.9924
 9302TIP3    H149321   5.151   4.232   0.139  0.3016  0.0933  0.7558
 9302TIP3    H249322   5.186   4.312   0.015  1.4568 -0.3969  0.7609
 9303TIP3   OH249323   1.889   6.006   2.292  0.0356 -0.3278  0.3567
 9303TIP3    H149324   1.819   6.038   2.349  0.2510  0.0064  0.4280
 9303TIP3    H249325   1.861   6.031   2.204  0.2242  0.0854  0.4166
 9304TIP3   OH249326   2.179   6.397   0.819 -0.1689  0.2523  0.2906
 9304TIP3    H149327   2.112   6.425   0.881 -0.2139 -0.6073  0.6412
 9304TIP3    H249328   2.183   6.302   0.828 -0.1994  0.0946 -1.0432
 9305TIP3   OH249329   1.694   3.802   1.573  0.0621 -0.8198 -0.1609
 9305TIP3    H149330   1.661   3.814   1.662  1.2060  0.8274  0.0874
 9305TIP3    H249331   1.788   3.784   1.585  0.0300 -1.6333 -1.0023
 9306TIP3   OH249332   1.205   2.664  12.108  0.3501 -0.1438 -0.3395
 9306TIP3    H149333   1.189   2.673  12.013  1.2816 -1.7766 -0.6859
 9306TIP3    H249334   1.131   2.611  12.139  1.1015 -1.3875 -0.5779
 9307TIP3   OH249335   0.565   6.420  15.783 -0.3274 -0.2141 -0.5857
 9307TIP3    H149336   0.511   6.370  15.843  0.5283  0.4753  0.7929
 9307TIP3    H249337   0.647   6.371  15.777  0.2316  0.6091  0.1775
 9308TIP3   OH249338   6.245   3.165   2.934 -0.5795  0.2177 -0.1422
 9308TIP3    H149339   6.274   3.076   2.950  0.4334  0.6142  0.2909
 9308TIP3    H249340   6.150   3.163   2.949 -0.1239 -0.0012  3.5783
 9309TIP3   OH249341   2.528   4.799   3.269 -0.1577 -0.2239  0.0857
 9309TIP3    H149342   2.523   4.895   3.266 -0.2116 -0.2333 -0.1504
 9309TIP3    H249343   2.571   4.780   3.352 -1.3387 -0.0368  0.7759
 9310TIP3   OH249344   1.153   5.285  11.099  0.0697 -0.2525 -0.0456
 9310TIP3    H149345   1.176   5.332  11.019  0.4042 -0.8084 -0.2768
 9310TIP3    H249346   1.163   5.351  11.168 -0.2647  0.2411 -0.4601
 9311TIP3   OH249347   5.224   4.809  14.156 -0.4349  0.0466 -0.0926
 9311TIP3    H149348   5.233   4.898  14.192  1.7159  0.7057 -1.9611
 9311TIP3    H249349   5.136   4.781  14.182 -1.1572  2.6780  0.6384
 9312TIP3   OH249350   5.301   5.575  15.199  0.1943 -0.0122 -0.0602
 9312TIP3    H149351   5.292   5.600  15.291 -3.7141 -0.5703 -0.1192
 9312TIP3    H249352   5.376   5.515  15.198  0.0056 -0.4585  2.8848
 9313TIP3   OH249353   4.187   6.007   4.330 -0.3562 -0.5195  0.6678
 9313TIP3    H149354   4.096   6.030   4.310  0.1152  2.4850  1.4242
 9313TIP3    H249355   4.187   5.987   4.423 -0.1415  0.3127  0.8561
 9314TIP3   OH249356   0.057   6.350   5.187  0.0959  0.2755 -0.3393
 9314TIP3    H149357  -0.033   6.379   5.175  0.2057  0.9700  0.4483
 9314TIP3    H249358   0.051   6.276   5.247 -0.0189 -0.1931 -0.9217
 9315TIP3   OH249359   4.217   4.162   2.102  0.5901 -0.6246  0.2744
 9315TIP3    H149360   4.184   4.224   2.167  0.4491 -2.0800  1.6659
 9315TIP3    H249361   4.275   4.104   2.151  0.0558 -2.1195 -0.7739
 9316TIP3   OH249362   2.714   1.767  11.429  0.4489 -0.1413 -0.2646
 9316TIP3    H149363   2.805   1.743  11.447  0.3638 -0.9514 -0.8478
 9316TIP3    H249364   2.694   1.722  11.347 -0.1644  0.8516 -0.6695
 9317TIP3   OH249365   1.213   1.334   1.768 -0.5003  0.6881  0.3749
 9317TIP3    H149366   1.271   1.410   1.761  0.0813  0.3383  1.2164
 9317TIP3    H249367   1.145   1.350   1.703  1.9282 -0.1396 -2.6292
 9318TIP3   OH249368   5.429   0.246  16.142 -0.3369  0.3652  0.1966
 9318TIP3    H149369   5.395   0.173  16.194  0.1411  0.0351  0.0491
 9318TIP3    H249370   5.513   0.215  16.108  0.2946  1.2922  0.8459
 9319TIP3   OH249371   1.177   5.329   6.046  0.4352  0.2024 -0.4337
 9319TIP3    H149372   1.232   5.337   6.125 -0.7218  1.7133  0.2628
 9319TIP3    H249373   1.210   5.250   6.003  3.1418  0.9949 -0.0525
 9320TIP3   OH249374   6.590   3.618  16.254  0.7330  0.1425 -0.1248
 9320TIP3    H149375   6.615   3.554  16.321 -1.6986  1.4917  2.2729
 9320TIP3    H249376   6.657   3.687  16.262  0.2496  0.4901  1.3043
 9321TIP3   OH249377   1.250   5.665  14.315 -0.3301 -0.0270  0.3016
 9321TIP3    H149378   1.300   5.641  14.393  1.5457 -0.1073 -0.8511
 9321TIP3    H249379   1.224   5.581  14.276  1.3892 -0.1238 -0.7422
 9322TIP3   OH249380   1.947   2.763  12.004 -0.3278  0.1651  0.2694
 9322TIP3    H149381   1.934   2.770  11.910  2.5432 -0.3871 -0.2503
 9322TIP3    H249382   1.882   2.822  12.042 -1.1493  0.8531 -2.0715
 9323TIP3   OH249383   0.921   6.325  13.569 -0.0085  0.3638  0.1471
 9323TIP3    H149384   1.000   6.368  13.603 -0.4216  0.7534  0.6275
 9323TIP3    H249385   0.849   6.382  13.597 -0.6446 -0.9993  1.4071
 9324TIP3   OH249386   2.955   6.657  16.926 -0.2071 -0.2938  0.1299
 9324TIP3    H149387   2.976   6.697  16.842 -0.2270  0.7807  0.6268
 9324TIP3    H249388   3.040   6.638  16.966 -0.1982 -0.7037 -0.0765
 9325TIP3   OH249389   4.122   4.491   4.759 -0.0895 -0.6831  0.0337
 9325TIP3    H149390   4.094   4.420   4.816 -0.0073 -0.0975  0.8210
 9325TIP3    H249391   4.177   4.449   4.693 -0.5371 -1.4315  0.1331
 9326TIP3   OH249392   5.782   6.529   5.144  0.4440 -0.5486 -0.2344
 9326TIP3    H149393   5.769   6.512   5.051 -3.5500 -0.8772  0.1791
 9326TIP3    H249394   5.787   6.624   5.151  0.8757 -0.5275 -0.7754
 9327TIP3   OH249395   1.772   4.411   4.159  0.7493  0.0503 -0.1649
 9327TIP3    H149396   1.723   4.493   4.171  0.0318 -0.2965 -0.6504
 9327TIP3    H249397   1.863   4.436   4.172  0.3720  0.4650  2.0635
 9328TIP3   OH249398   2.525   6.613  13.288 -0.1861  0.4401  0.5911
 9328TIP3    H149399   2.589   6.636  13.220 -1.0036  1.4314  0.1358
 9328TIP3    H249400   2.464   6.687  13.290 -1.3895 -0.5395  0.9380
 9329TIP3   OH249401   2.947   1.939  14.552 -0.2363  0.0651 -0.5166
 9329TIP3    H149402   2.896   2.010  14.513  0.9620  1.1741 -0.1246
 9329TIP3    H249403   2.930   1.864  14.495 -2.1475  0.4303 -0.4902
 9330TIP3   OH249404   0.291   5.500   5.754  0.0260 -0.7666 -0.1786
 9330TIP3    H149405   0.350   5.549   5.812 -0.7232  2.2488 -1.7390
 9330TIP3    H249406   0.233   5.452   5.813  0.2081  1.0144  1.5679
 9331TIP3   OH249407   6.396   3.374  13.669  0.4099 -0.4512 -0.0478
 9331TIP3    H149408   6.360   3.462  13.679  0.2539 -0.4477 -0.5902
 9331TIP3    H249409   6.447   3.377  13.588  1.5481 -0.4935  0.6395
 9332TIP3   OH249410   6.326   5.773   3.173  0.4023 -0.7472 -0.1505
 9332TIP3    H149411   6.404   5.725   3.199  0.7938 -0.5901 -0.9838
 9332TIP3    H249412   6.296   5.816   3.253  0.9052 -1.1691  0.2728
 9333TIP3   OH249413   6.127   2.012  16.498 -0.4949  0.2999  0.1764
 9333TIP3    H149414   6.068   2.083  16.474 -0.6848  0.3390  0.7499
 9333TIP3    H249415   6.213   2.055  16.509 -0.8079  0.6377  1.5365
 9334TIP3   OH249416   1.678   2.061  13.772 -0.0332  0.2125 -0.0455
 9334TIP3    H149417   1.611   1.999  13.742  0.4388 -0.6789  0.6902
 9334TIP3    H249418   1.745   2.006  13.812  0.9110  1.1349 -0.3319
 9335TIP3   OH249419   4.550   4.862  13.707  0.4366 -0.1087 -0.0588
 9335TIP3    H149420   4.467   4.828  13.741  1.3445 -2.5586 -0.0997
 9335TIP3    H249421   4.599   4.888  13.785  0.4355 -0.6185  0.1132
 9336TIP3   OH249422   5.460   4.083   4.123  0.4696  0.3746 -0.5247
 9336TIP3    H149423   5.494   4.015   4.181  1.6601  1.3320 -0.0688
 9336TIP3    H249424   5.389   4.124   4.173  2.6453  2.3901  1.0723
 9337TIP3   OH249425   4.424   5.953   2.490 -0.1985  0.1738 -0.1720
 9337TIP3    H149426   4.478   5.927   2.416  1.1817  1.1171  0.4667
 9337TIP3    H249427   4.469   6.028   2.528 -1.1253  0.0107  1.3441
 9338TIP3   OH249428   6.119   2.103  14.194  0.0867  0.5512  0.4377
 9338TIP3    H149429   6.144   2.103  14.286 -2.9371 -0.6287  1.3937
 9338TIP3    H249430   6.188   2.052  14.151  0.0387 -1.5484  2.6111
 9339TIP3   OH249431   3.246   4.858   0.366  0.5836  0.3538  0.8057
 9339TIP3    H149432   3.266   4.938   0.317 -0.1861  0.2657  0.3440
 9339TIP3    H249433   3.289   4.789   0.316  0.8104  0.4108  0.9195
 9340TIP3   OH249434   0.676   6.195  15.620  0.3224 -0.1058 -0.0772
 9340TIP3    H149435   0.583   6.179  15.605 -0.1525  1.9240  0.4631
 9340TIP3    H249436   0.714   6.194  15.532 -0.2469 -0.6381 -0.3314
 9341TIP3   OH249437   4.862   0.077  11.106  0.0952  0.3465  0.0620
 9341TIP3    H149438   4.931   0.026  11.063 -0.5612 -0.9589  0.5154
 9341TIP3    H249439   4.878   0.063  11.200  0.6931  2.0674  0.2566
 9342TIP3   OH249440   1.533   0.716  14.220 -0.5351 -0.3235 -0.2073
 9342TIP3    H149441   1.513   0.752  14.306 -2.0425  1.0720 -1.0752
 9342TIP3    H249442   1.621   0.749  14.200  0.1311 -1.2677  1.0654
 9343TIP3   OH249443   3.441   2.456  15.738  0.1456  0.4700 -0.6554
 9343TIP3    H149444   3.355   2.470  15.698  0.9596  2.0605 -1.9911
 9343TIP3    H249445   3.503   2.494  15.675  1.6471  1.4259  1.3012
 9344TIP3   OH249446   2.538   2.905  11.291  0.1657  0.6120  0.0181
 9344TIP3    H149447   2.499   2.843  11.228 -0.1750  1.1540 -0.3167
 9344TIP3    H249448   2.577   2.850  11.358  0.2993  0.0206 -0.5344
 9345TIP3   OH249449   4.176   2.997  12.721  0.7309  0.4846 -0.2210
 9345TIP3    H149450   4.231   3.063  12.764  2.8688 -1.2555 -0.0957
 9345TIP3    H249451   4.239   2.937  12.680 -1.1120 -1.3564 -0.5082
 9346TIP3   OH249452   0.007   5.238   0.825 -0.0446  0.6291  0.2974
 9346TIP3    H149453   0.099   5.214   0.841 -0.1886 -0.2922 -0.1770
 9346TIP3    H249454  -0.033   5.158   0.790 -0.3211  1.8338 -2.4067
 9347TIP3   OH249455   5.545   0.971   5.003 -0.3551  0.6191  0.3277
 9347TIP3    H149456   5.573   0.978   4.912  0.7724 -1.6183  0.4340
 9347TIP3    H249457   5.613   0.917   5.045 -2.4137 -1.0525  1.7251
 9348TIP3   OH249458   3.583   6.068   3.321  0.4398  0.2234 -0.0637
 9348TIP3    H149459   3.637   6.137   3.359  0.0267  0.6897 -0.2954
 9348TIP3    H249460   3.641   5.993   3.312  0.5230  0.0715  1.5505
 9349TIP3   OH249461   6.467   4.813  13.341 -0.1822  0.2190 -0.7337
 9349TIP3    H149462   6.420   4.844  13.263  0.5096  0.4337 -1.0791
 9349TIP3    H249463   6.445   4.876  13.409 -0.9733 -0.0941 -0.6921
 9350TIP3   OH249464   5.324   6.378   4.366  0.5149 -0.0626 -0.6504
 9350TIP3    H149465   5.351   6.297   4.410  1.6095 -0.3692 -1.8146
 9350TIP3    H249466   5.243   6.354   4.321  0.1310 -0.1324  0.0624
 9351TIP3   OH249467   5.759   2.839  12.438  0.1747  0.4004  0.1899
 9351TIP3    H149468   5.854   2.847  12.452  0.3363 -2.4165  1.3840
 9351TIP3    H249469   5.735   2.760  12.486 -2.7084  0.7005 -0.6092
 9352TIP3   OH249470   6.751   1.410  12.980  0.6818  0.2579  0.0401
 9352TIP3    H149471   6.829   1.389  12.929 -0.3038 -0.7205 -1.1326
 9352TIP3    H249472   6.747   1.506  12.980  0.4200  0.3014 -2.2364
 9353TIP3   OH249473   4.474   4.823  12.975 -0.0066  0.5748  0.1997
 9353TIP3    H149474   4.523   4.745  13.002 -1.0299 -1.3036 -2.8549
 9353TIP3    H249475   4.505   4.841  12.886 -2.3959  1.3385 -0.5567
 9354TIP3   OH249476   3.523   5.866  14.612  0.3061  0.0263 -0.0032
 9354TIP3    H149477   3.447   5.919  14.640 -0.2179 -0.3651 -0.6706
 9354TIP3    H249478   3.488   5.778  14.601  1.0068 -0.3000  0.3037
 9355TIP3   OH249479   1.351   1.253  11.776  0.0573  0.1223 -0.6613
 9355TIP3    H149480   1.394   1.203  11.707  0.0793 -1.1475  0.2483
 9355TIP3    H249481   1.406   1.330  11.787  1.5690 -0.9792 -0.2098
 9356TIP3   OH249482   0.868   1.435   2.234  0.3961  0.4036  0.1739
 9356TIP3    H149483   0.922   1.462   2.159 -0.1454 -1.0528 -0.7881
 9356TIP3    H249484   0.794   1.495   2.233  2.5224  3.3871  2.3707
 9357TIP3   OH249485   2.755   3.380  13.661  0.7733  0.5173  0.7025
 9357TIP3    H149486   2.755   3.473  13.638  0.4981  0.2109 -0.6193
 9357TIP3    H249487   2.683   3.343  13.610  2.6908 -0.9462 -1.1265
 9358TIP3   OH249488   3.595   4.666  14.924 -0.2052  0.5308  0.0050
 9358TIP3    H149489   3.687   4.643  14.917 -0.1505  0.6238  0.4085
 9358TIP3    H249490   3.593   4.761  14.919 -0.3706  0.4844 -0.9849
 9359TIP3   OH249491   3.852   6.030  12.531 -0.4783 -0.2810  0.5382
 9359TIP3    H149492   3.910   6.106  12.538  0.4875 -0.7998 -1.2696
 9359TIP3    H249493   3.829   6.025  12.438  2.8586 -4.4878 -0.3988
 9360TIP3   OH249494   4.081   2.053  17.157  0.7768  0.5137 -0.0610
 9360TIP3    H149495   3.988   2.031  17.161  1.2690 -1.6138  1.8032
 9360TIP3    H249496   4.096   2.078  17.066 -0.9583 -2.6110 -1.3744
 9361TIP3   OH249497   1.313   5.921   6.509 -0.0593 -0.3970  0.1163
 9361TIP3    H149498   1.281   5.832   6.501 -0.9513  0.0231 -1.2134
 9361TIP3    H249499   1.291   5.963   6.426  2.5676  0.3758 -0.2864
 9362TIP3   OH249500   2.989   6.196   5.776 -0.1271 -0.4080  0.1234
 9362TIP3    H149501   2.987   6.275   5.722 -0.4955 -0.5519 -0.0719
 9362TIP3    H249502   2.898   6.169   5.783 -0.0736 -0.4567  0.7235
 9363TIP3   OH249503   1.466   5.599  17.214  0.9237  0.2101 -0.1938
 9363TIP3    H149504   1.378   5.591  17.177  1.0030 -0.8792 -0.2014
 9363TIP3    H249505   1.506   5.673  17.169  0.7532 -0.6206 -1.7678
 9364TIP3   OH249506   5.108   0.159  15.755  0.0462  0.7640 -0.0373
 9364TIP3    H149507   5.202   0.141  15.745  0.1899 -0.4904  2.6610
 9364TIP3    H249508   5.092   0.235  15.699  2.4805  0.5054 -1.2176
 9365TIP3   OH249509   3.746   6.589  11.940 -0.0110  0.7947 -0.6275
 9365TIP3    H149510   3.716   6.539  11.864  0.2513 -0.2916 -0.0410
 9365TIP3    H249511   3.822   6.540  11.972 -0.9101  0.4559  1.1035
 9366TIP3   OH249512   6.224   1.505  15.638  0.6023  0.6100  0.2715
 9366TIP3    H149513   6.212   1.424  15.688  3.3109 -2.2004 -3.0726
 9366TIP3    H249514   6.314   1.498  15.605  0.5255  4.4951 -1.1761
 9367TIP3   OH249515   5.903   4.847  15.235  0.0608 -0.1607 -0.1248
 9367TIP3    H149516   5.982   4.800  15.207 -1.2624 -2.4837 -0.1430
 9367TIP3    H249517   5.920   4.870  15.326  0.9961 -0.0758 -0.3045
 9368TIP3   OH249518   1.213   2.265   0.692 -0.7736  0.2345 -0.1326
 9368TIP3    H149519   1.308   2.250   0.699 -0.5753  1.9999  2.1210
 9368TIP3    H249520   1.176   2.178   0.679  1.1913 -0.3963 -2.1484
 9369TIP3   OH249521   6.576   0.513  16.852  0.2023 -0.2796  0.0513
 9369TIP3    H149522   6.594   0.574  16.781  1.7873  1.3101  1.7190
 9369TIP3    H249523   6.663   0.488  16.885 -0.4270 -2.5900  0.1795
 9370TIP3   OH249524   6.709   2.858   5.439  0.2256  0.2062 -0.3848
 9370TIP3    H149525   6.623   2.847   5.398 -0.2864  2.4685 -0.0572
 9370TIP3    H249526   6.734   2.770   5.465 -1.0633 -0.8007 -2.2833
 9371TIP3   OH249527   2.330   3.481  11.926 -0.6705  0.4467  0.3085
 9371TIP3    H149528   2.388   3.462  11.852  0.3116  0.5947  1.0193
 9371TIP3    H249529   2.360   3.421  11.995 -1.3853  0.5158  0.6859
 9372TIP3   OH249530   2.645   6.428   1.339 -0.6457 -0.5225 -0.0770
 9372TIP3    H149531   2.735   6.398   1.351 -0.3625  0.6484  0.9567
 9372TIP3    H249532   2.642   6.462   1.250  0.1250  0.0226  0.0958
 9373TIP3   OH249533   5.114   0.139   3.655  0.3444 -0.1451 -0.6598
 9373TIP3    H149534   5.067   0.169   3.732  1.6257 -0.0762  0.1229
 9373TIP3    H249535   5.105   0.043   3.657  0.5466 -0.1560 -0.3124
 9374TIP3   OH249536   5.214   3.759  14.723 -0.0044  0.4467  0.0365
 9374TIP3    H149537   5.215   3.852  14.700  1.2997  0.4033 -0.1615
 9374TIP3    H249538   5.286   3.721  14.672  0.2109 -0.4458  0.9762
 9375TIP3   OH249539   2.293   3.106  12.943  0.1248 -0.3826 -0.3492
 9375TIP3    H149540   2.217   3.049  12.940 -1.1515  1.2596 -0.8575
 9375TIP3    H249541   2.296   3.148  12.857 -1.5387  3.3579  1.1766
 9376TIP3   OH249542   5.977   6.309  15.498  0.3851 -0.2948  0.2889
 9376TIP3    H149543   5.993   6.395  15.539  0.2400 -0.3551  0.4745
 9376TIP3    H249544   5.901   6.275  15.544  0.0769 -0.2649 -0.1951
 9377TIP3   OH249545   6.557   2.044  14.501  0.3097 -0.5176 -0.5666
 9377TIP3    H149546   6.646   2.071  14.523 -0.2713  0.8295  0.2629
 9377TIP3    H249547   6.501   2.096  14.559 -0.9482 -2.8381  0.4231
 9378TIP3   OH249548   3.271   4.747   0.973  0.7509 -0.1323 -0.3524
 9378TIP3    H149549   3.233   4.691   0.906 -0.4104 -0.2282  0.3639
 9378TIP3    H249550   3.353   4.703   0.998  0.4252 -0.9003 -0.6143
 9379TIP3   OH249551   1.063   5.565   1.705 -0.0701 -0.2010 -0.7513
 9379TIP3    H149552   1.068   5.660   1.693  1.1373 -0.3656 -1.8089
 9379TIP3    H249553   0.972   5.548   1.729  0.0082  1.3570  0.8543
 9380TIP3   OH249554   5.141   1.237   2.697  0.1559  0.3557 -0.0485
 9380TIP3    H149555   5.118   1.199   2.613  1.1758 -0.9374  0.2174
 9380TIP3    H249556   5.060   1.278   2.728 -0.6693 -0.5602 -0.9208
 9381TIP3   OH249557   0.753   3.907  10.963  0.3743  0.4013  0.0969
 9381TIP3    H149558   0.755   3.992  10.920 -0.5700 -0.4298 -1.6537
 9381TIP3    H249559   0.773   3.843  10.894 -0.0993 -0.8971  1.1069
 9382TIP3   OH249560   4.190   4.523   5.379 -0.3965  0.8549 -0.4556
 9382TIP3    H149561   4.212   4.595   5.439 -1.1041  1.6000 -1.0711
 9382TIP3    H249562   4.187   4.445   5.435  0.8379  1.2218  0.1398
 9383TIP3   OH249563   0.313   6.251  11.225 -1.0163  0.2320 -0.4345
 9383TIP3    H149564   0.352   6.282  11.144  0.8912  0.3485  0.4692
 9383TIP3    H249565   0.286   6.331  11.271 -1.7560  0.1874 -0.7870
 9384TIP3   OH249566   2.765   0.491  12.837  0.7281 -0.1001  0.3017
 9384TIP3    H149567   2.827   0.549  12.881  0.0882  1.7984 -1.1631
 9384TIP3    H249568   2.733   0.433  12.906  1.7740  0.9587  1.7280
 9385TIP3   OH249569   3.684   1.171  15.575  0.4482  0.9858  0.2671
 9385TIP3    H149570   3.724   1.121  15.646 -0.6832  1.5069  1.3037
 9385TIP3    H249571   3.615   1.222  15.617 -1.3854  0.0646 -1.4462
 9386TIP3   OH249572   2.134   3.140  17.081 -0.1940  0.3081  0.0257
 9386TIP3    H149573   2.064   3.148  17.145  0.0391  3.2034  0.0385
 9386TIP3    H249574   2.214   3.135  17.133 -0.1416  0.7043 -0.0147
 9387TIP3   OH249575   0.236   1.602   4.306 -0.6395  0.2604 -0.1335
 9387TIP3    H149576   0.287   1.677   4.337  0.5415 -0.5942  0.0668
 9387TIP3    H249577   0.166   1.593   4.370  1.4117 -1.1047  2.0854
 9388TIP3   OH249578   5.510   0.957  16.928  0.2627 -0.3993  0.3624
 9388TIP3    H149579   5.515   0.863  16.912 -0.9502 -0.6119  1.0807
 9388TIP3    H249580   5.601   0.986  16.930  0.6167 -1.3730 -0.8479
 9389TIP3   OH249581   3.291   6.022   0.826 -0.1342 -0.1920  0.1258
 9389TIP3    H149582   3.272   6.096   0.767  3.9103  1.7165  0.9123
 9389TIP3    H249583   3.327   5.955   0.768 -2.1077 -0.9447 -0.3236
 9390TIP3   OH249584   6.172   2.067   4.612 -0.6979  0.3344 -0.1405
 9390TIP3    H149585   6.230   2.141   4.592  0.5522  0.7451  3.9957
 9390TIP3    H249586   6.228   1.990   4.603 -0.6962  0.3369 -0.1524
 9391TIP3   OH249587   1.827   5.904  12.940  0.6306 -0.5584  0.1083
 9391TIP3    H149588   1.741   5.878  12.974  0.7823 -1.3699 -0.1029
 9391TIP3    H249589   1.807   5.963  12.868  0.2513 -0.6141  0.1619
 9392TIP3   OH249590   5.660   1.540  16.801 -0.0018 -0.1510  0.5500
 9392TIP3    H149591   5.632   1.473  16.739 -0.7947  0.6260  0.0319
 9392TIP3    H249592   5.651   1.499  16.887 -1.6860 -0.3412  0.3278
 9393TIP3   OH249593   4.403   3.673   5.639 -0.2276  0.3131 -0.2023
 9393TIP3    H149594   4.358   3.598   5.676 -1.2354  1.7200  1.6340
 9393TIP3    H249595   4.347   3.703   5.567  0.6462 -1.1645 -1.5613
 9394TIP3   OH249596   3.377   3.227   4.462  0.2356  0.1879  0.0286
 9394TIP3    H149597   3.340   3.158   4.408  1.4961  0.7441 -1.6342
 9394TIP3    H249598   3.437   3.183   4.521  0.5936 -0.1924 -0.6212
 9395TIP3   OH249599   4.100   0.039  11.884 -0.7015 -0.2085  0.1282
 9395TIP3    H149600   4.100  -0.048  11.845 -1.4454 -0.6722  1.1206
 9395TIP3    H249601   4.054   0.028  11.967 -0.4226  1.0446  0.4687
 9396TIP3   OH249602   1.825   0.366   0.715 -0.2704 -0.4548 -0.3277
 9396TIP3    H149603   1.737   0.328   0.721 -0.1804 -0.4841  1.3398
 9396TIP3    H249604   1.881   0.303   0.762  0.3813  0.2609 -0.1309
 9397TIP3   OH249605   3.670   1.502   1.675 -0.1860  0.1468 -0.4273
 9397TIP3    H149606   3.576   1.486   1.670 -0.0665 -0.8535  0.1226
 9397TIP3    H249607   3.704   1.467   1.593 -0.3380  0.9018 -0.8157
 9398TIP3   OH249608   1.992   0.077  16.021 -0.0308  0.4947  0.5323
 9398TIP3    H149609   2.004   0.163  16.063 -2.0395  0.2930  1.6473
 9398TIP3    H249610   1.948   0.097  15.938 -0.7385  0.5572  0.9105
 9399TIP3   OH249611   4.315   6.093  13.347 -0.1657 -0.1161  0.1590
 9399TIP3    H149612   4.262   6.016  13.368 -2.8572  1.4827 -0.3639
 9399TIP3    H249613   4.343   6.127  13.432  0.7656 -1.4335  0.4079
 9400TIP3   OH249614   4.568   4.652   4.153  0.2773  0.2817 -0.0991
 9400TIP3    H149615   4.584   4.706   4.075 -1.0983  0.4615 -0.2731
 9400TIP3    H249616   4.504   4.702   4.204 -0.1671 -0.6740  0.2939
 9401TIP3   OH249617   3.252   2.431   6.056 -0.2307 -0.1491  0.3337
 9401TIP3    H149618   3.286   2.421   6.146 -0.1652  0.1261  0.3423
 9401TIP3    H249619   3.316   2.385   6.002  1.6368  2.4950  0.0654
 9402TIP3   OH249620   2.536   1.936  11.538  0.2345 -0.0194  0.3228
 9402TIP3    H149621   2.490   1.874  11.595  1.6454 -2.2060 -0.7831
 9402TIP3    H249622   2.609   1.886  11.502  0.5336  1.8518 -1.9011
 9403TIP3   OH249623   2.180   3.665   1.345 -0.1482  0.1380  0.5941
 9403TIP3    H149624   2.155   3.704   1.261 -0.1895  2.3698  1.5835
 9403TIP3    H249625   2.253   3.607   1.323 -1.3368 -0.7902 -1.2366
 9404TIP3   OH249626   1.523   6.111  12.990 -0.4262  0.0700 -0.2946
 9404TIP3    H149627   1.451   6.164  13.024 -1.8258 -1.3450 -0.9141
 9404TIP3    H249628   1.563   6.071  13.067 -1.6698 -0.7668 -0.0542
 9405TIP3   OH249629   0.799   1.994  15.155 -0.1878 -0.8329  0.2917
 9405TIP3    H149630   0.835   2.043  15.081 -2.8648 -0.9912 -1.2529
 9405TIP3    H249631   0.796   1.903  15.125 -1.1277 -0.9372  0.6707
 9406TIP3   OH249632   3.607   3.285   2.583 -0.5222  0.0160 -0.1546
 9406TIP3    H149633   3.535   3.275   2.522 -0.3243  1.5331 -0.6633
 9406TIP3    H249634   3.633   3.376   2.576 -0.5549  0.2862  2.2771
 9407TIP3   OH249635   4.337   0.380   2.501  0.7262  0.2222  0.4237
 9407TIP3    H149636   4.293   0.309   2.453  0.3772  1.4221 -1.1070
 9407TIP3    H249637   4.406   0.336   2.550  0.2283 -1.2382 -0.1141
 9408TIP3   OH249638   2.745   6.264   0.798 -0.0748 -0.1661  0.3277
 9408TIP3    H149639   2.791   6.182   0.812 -0.0507 -0.6115 -1.8901
 9408TIP3    H249640   2.814   6.329   0.784 -0.0628  0.5155  2.9939
 9409TIP3   OH249641   4.586   0.666  14.331  0.1432 -0.4560  0.2771
 9409TIP3    H149642   4.610   0.580  14.297  1.2809  0.1556 -0.5383
 9409TIP3    H249643   4.608   0.727  14.260 -3.4630  0.2747 -0.4316
 9410TIP3   OH249644   2.146   1.491   2.851 -0.2321 -0.3271 -0.8590
 9410TIP3    H149645   2.052   1.506   2.864 -0.3682 -1.5030 -0.3602
 9410TIP3    H249646   2.152   1.439   2.771  0.0354  0.1705 -1.1657
 9411TIP3   OH249647   4.606   5.905  15.555 -0.0060 -0.7169 -0.7445
 9411TIP3    H149648   4.679   5.920  15.616 -1.4451 -1.7214  1.3602
 9411TIP3    H249649   4.637   5.835  15.497  0.9598 -0.6246 -0.3510
 9412TIP3   OH249650   0.755   3.148   5.430 -0.0069  0.0744  0.7158
 9412TIP3    H149651   0.840   3.155   5.387 -0.0040  1.1767  0.8703
 9412TIP3    H249652   0.693   3.185   5.368 -0.6347 -2.0842 -0.0277
 9413TIP3   OH249653   3.623   3.074   5.487  0.2717 -0.2156 -0.1182
 9413TIP3    H149654   3.653   3.130   5.416 -2.5343  1.0935 -0.4234
 9413TIP3    H249655   3.618   2.986   5.449 -1.5549  0.5336 -1.7415
 9414TIP3   OH249656   1.386   1.881  13.419  0.6716  0.2897  0.6377
 9414TIP3    H149657   1.392   1.843  13.507  1.4897  0.7235  0.7828
 9414TIP3    H249658   1.362   1.972  13.433  0.4370  0.2665  0.3908
 9415TIP3   OH249659   2.065   0.469  11.684 -0.3077  0.0695 -0.5238
 9415TIP3    H149660   2.120   0.435  11.613 -0.3465 -0.1159 -0.4661
 9415TIP3    H249661   2.088   0.562  11.690  2.1665 -0.5648  1.4423
 9416TIP3   OH249662   6.127   6.011   5.316 -0.1327 -0.4964 -0.2470
 9416TIP3    H149663   6.175   5.977   5.392 -0.7198  0.2081  0.4638
 9416TIP3    H249664   6.156   6.101   5.308  0.1234 -0.6420 -1.0426
 9417TIP3   OH249665   0.630   4.065  15.371 -0.8499 -0.0310  0.1118
 9417TIP3    H149666   0.599   4.154  15.354  0.1172  0.8741  2.5863
 9417TIP3    H249667   0.725   4.070  15.355 -0.6691 -0.3770  1.0353
 9418TIP3   OH249668   5.737   4.640  14.993  0.6730 -0.0427  0.1114
 9418TIP3    H149669   5.768   4.622  15.082 -1.6101  0.6805  1.1298
 9418TIP3    H249670   5.645   4.614  14.994 -0.0234  2.1105 -1.3455
 9419TIP3   OH249671   1.440   2.537  17.040  0.4342  0.0152  0.3729
 9419TIP3    H149672   1.369   2.473  17.050 -1.5306  1.9998 -0.1767
 9419TIP3    H249673   1.399   2.614  17.001  2.7528  1.5527  0.7269
 9420TIP3   OH249674   6.671   4.305  14.620 -0.6350 -0.0440  0.2565
 9420TIP3    H149675   6.690   4.396  14.643 -0.9211  0.1345 -0.2064
 9420TIP3    H249676   6.757   4.268  14.599 -0.1878 -0.5424  2.6802
 9421TIP3   OH249677   6.075   4.418  16.423  0.4002  0.1707  0.1714
 9421TIP3    H149678   6.006   4.405  16.359 -0.1081 -0.3541  0.8035
 9421TIP3    H249679   6.047   4.495  16.473 -1.3775 -1.7960  2.4395
 9422TIP3   OH249680   5.312   2.259  14.199 -0.2135  0.7838  0.2123
 9422TIP3    H149681   5.221   2.229  14.202 -0.2616  0.8022 -0.6475
 9422TIP3    H249682   5.364   2.179  14.202 -0.2289  0.8114  1.4454
 9423TIP3   OH249683   3.642   3.742  14.676  0.2913  0.5134 -0.4277
 9423TIP3    H149684   3.555   3.746  14.716  1.0725 -0.3734  1.5197
 9423TIP3    H249685   3.626   3.745  14.582 -1.6570  2.8362 -0.0997
 9424TIP3   OH249686   2.924   6.138  11.282 -0.2364 -0.7309 -0.0932
 9424TIP3    H149687   2.957   6.050  11.261  3.8734  0.2152  1.4263
 9424TIP3    H249688   2.976   6.197  11.227  0.7626  0.9152  2.4082
 9425TIP3   OH249689   0.859   6.283   5.303  0.0764 -0.0419  0.3220
 9425TIP3    H149690   0.843   6.367   5.346  0.0482 -0.5543  1.3487
 9425TIP3    H249691   0.777   6.234   5.314 -0.0436 -0.0648 -0.6114
 9426TIP3   OH249692   1.616   4.281  11.537  0.4807 -0.0877  0.0981
 9426TIP3    H149693   1.624   4.371  11.504 -0.9984 -0.5727 -1.7664
 9426TIP3    H249694   1.525   4.275  11.567  0.2026 -1.2862 -0.9276
 9427TIP3   OH249695   1.868   6.348  13.176 -0.2148  0.1581  0.7398
 9427TIP3    H149696   1.837   6.314  13.092 -0.0661 -2.7082  1.7403
 9427TIP3    H249697   1.939   6.407  13.153 -1.6473  1.2604 -1.2159
 9428TIP3   OH249698   1.984   4.612  13.030  0.6209  1.1059  0.7312
 9428TIP3    H149699   2.024   4.556  12.963  2.4480  0.8376  1.9571
 9428TIP3    H249700   1.890   4.598  13.020  0.8209  1.0371 -1.7048
 9429TIP3   OH249701   2.856   4.697   6.467 -0.1934  0.0272 -0.6196
 9429TIP3    H149702   2.773   4.651   6.478 -0.3401  0.5258  0.4605
 9429TIP3    H249703   2.909   4.671   6.542 -0.1668  1.3432 -0.1539
 9430TIP3   OH249704   0.471   3.347  14.115  0.6443 -0.4583 -0.3227
 9430TIP3    H149705   0.464   3.275  14.052  2.6319 -0.9739 -0.0104
 9430TIP3    H249706   0.532   3.315  14.181  0.5423  1.0322  0.5300
 9431TIP3   OH249707   3.247   2.171   3.485 -0.1321  0.0862  0.6540
 9431TIP3    H149708   3.272   2.096   3.431 -1.4210  0.6136 -0.7311
 9431TIP3    H249709   3.309   2.240   3.461 -0.1378  0.0473  0.5272
 9432TIP3   OH249710   1.764   3.331  13.496 -0.0922  0.4413 -0.1101
 9432TIP3    H149711   1.717   3.271  13.555 -0.5894 -0.2996 -1.2241
 9432TIP3    H249712   1.745   3.298  13.408  0.0517  1.9360 -0.7372
 9433TIP3   OH249713   6.139   1.868   1.153 -0.1136  0.6016  0.0014
 9433TIP3    H149714   6.075   1.798   1.141  0.5313 -0.1343  0.7481
 9433TIP3    H249715   6.169   1.889   1.065 -0.3111 -0.0586 -0.2246
 9434TIP3   OH249716   2.232   4.070  11.920  0.9278  0.0463 -0.6070
 9434TIP3    H149717   2.226   4.033  12.008 -0.6682  1.4572 -0.0785
 9434TIP3    H249718   2.295   4.141  11.928  1.7232 -0.6022 -0.9262
 9435TIP3   OH249719   0.169   4.406  10.720 -0.0926 -0.0744 -0.2361
 9435TIP3    H149720   0.133   4.458  10.649 -1.1973  0.2615  0.5369
 9435TIP3    H249721   0.260   4.436  10.729 -0.7247  1.8010  0.2436
 9436TIP3   OH249722   6.197   5.914  11.131  0.0059  0.2782  0.7870
 9436TIP3    H149723   6.179   5.823  11.156 -0.3059 -0.4088 -1.7237
 9436TIP3    H249724   6.286   5.912  11.095 -1.0234  0.3211 -1.9450
 9437TIP3   OH249725   5.520   2.022   1.034 -0.1758 -0.2829  0.2195
 9437TIP3    H149726   5.443   2.058   1.077  0.4639  2.4187 -0.6899
 9437TIP3    H249727   5.562   2.098   0.993  1.2990 -2.1233 -1.9028
 9438TIP3   OH249728   3.954   4.099  13.744  0.2438  0.7663  0.0054
 9438TIP3    H149729   3.929   4.098  13.652 -0.9820  0.3021  0.3178
 9438TIP3    H249730   4.004   4.018  13.756 -1.7228 -0.4610  0.2684
 9439TIP3   OH249731   3.392   2.423   6.288  0.4436 -0.2021  0.1321
 9439TIP3    H149732   3.328   2.462   6.348 -0.4188 -0.2560 -0.7402
 9439TIP3    H249733   3.468   2.406   6.344 -0.1665  0.1682  1.1183
 9440TIP3   OH249734   4.237   1.236  12.579  0.2134 -0.3401  0.3430
 9440TIP3    H149735   4.272   1.242  12.490  0.5251 -1.4019  0.3814
 9440TIP3    H249736   4.315   1.236  12.635  0.0250  0.1779  0.6105
 9441TIP3   OH249737   0.829   4.099   2.697  0.2009 -0.2600  0.1721
 9441TIP3    H149738   0.806   4.054   2.616 -0.4410  1.7076 -0.8085
 9441TIP3    H249739   0.912   4.143   2.677 -0.3645  0.9011  0.2580
 9442TIP3   OH249740   6.450   0.018  15.481  0.1487 -0.1130 -0.0522
 9442TIP3    H149741   6.544   0.002  15.478  0.2382  0.1484  0.9652
 9442TIP3    H249742   6.440   0.090  15.543 -0.6643  0.3682 -0.7272
 9443TIP3   OH249743   2.864   1.289   6.226 -0.3258 -0.2375  0.0119
 9443TIP3    H149744   2.889   1.275   6.318  0.6558 -2.7204 -0.5437
 9443TIP3    H249745   2.850   1.383   6.219  1.1802  0.2476  2.3292
 9444TIP3   OH249746   0.457   0.420   0.589 -0.0338 -0.1904  0.3260
 9444TIP3    H149747   0.495   0.498   0.629  1.0861 -0.1033 -0.8767
 9444TIP3    H249748   0.374   0.408   0.636  0.4491  0.8642  1.5138
 9445TIP3   OH249749   3.036   1.589   1.828  0.0954 -0.4739  0.0282
 9445TIP3    H149750   2.940   1.586   1.828  0.1085 -2.2807  1.7124
 9445TIP3    H249751   3.057   1.666   1.882 -0.3384  0.9065 -1.6562
 9446TIP3   OH249752   2.369   1.670   5.362 -0.0983  0.2440  0.2772
 9446TIP3    H149753   2.425   1.624   5.424  1.4897  0.5272 -0.8896
 9446TIP3    H249754   2.373   1.762   5.389  0.3156  0.3173 -0.0217
 9447TIP3   OH249755   0.804   4.137  15.731 -0.6080  0.8263  0.5410
 9447TIP3    H149756   0.864   4.210  15.723  0.2389  0.1215  0.2738
 9447TIP3    H249757   0.730   4.160  15.675  0.6326  0.5169 -1.3370
 9448TIP3   OH249758   2.522   1.615   0.775  0.1558 -0.1609  0.1709
 9448TIP3    H149759   2.514   1.524   0.744  0.0782 -0.8487  2.0831
 9448TIP3    H249760   2.543   1.607   0.868  1.2114  1.7938  0.1516
 9449TIP3   OH249761   3.754   3.917  16.664  0.0869 -0.3542 -0.0550
 9449TIP3    H149762   3.813   3.856  16.708  0.8522  0.1126 -0.4105
 9449TIP3    H249763   3.751   3.886  16.573 -0.1243 -0.3098 -0.0635
 9450TIP3   OH249764   1.316   4.955   3.601 -0.3142  0.4670  0.1842
 9450TIP3    H149765   1.343   5.046   3.612  0.3464  0.3917 -0.7172
 9450TIP3    H249766   1.262   4.937   3.678  1.5592  0.8533  1.6507
 9451TIP3   OH249767   3.570   4.736   2.856 -0.2327  0.3624 -0.0843
 9451TIP3    H149768   3.589   4.668   2.920 -2.1106  1.0626  1.3440
 9451TIP3    H249769   3.495   4.702   2.807  1.2706 -0.2179 -2.0471
 9452TIP3   OH249770   4.562   4.201   0.154 -0.3089  0.3207  0.6225
 9452TIP3    H149771   4.492   4.237   0.208  0.2432  0.9489  0.9298
 9452TIP3    H249772   4.607   4.278   0.119 -0.3506 -0.0723 -0.3423
 9453TIP3   OH249773   3.551   2.061   5.526 -0.1792  0.3738  0.0053
 9453TIP3    H149774   3.468   2.035   5.485  0.1854 -1.2100  0.2044
 9453TIP3    H249775   3.617   2.011   5.479  0.4252 -0.1163  1.3224
 9454TIP3   OH249776   1.656   3.049  14.869  0.6599 -0.3302  0.2863
 9454TIP3    H149777   1.632   2.988  14.939 -0.0587 -1.3832 -0.8435
 9454TIP3    H249778   1.690   3.126  14.915 -1.2943 -0.3290  1.8527
 9455TIP3   OH249779   1.857   2.404  16.561  0.0165 -0.4167  0.3995
 9455TIP3    H149780   1.865   2.323  16.510  2.0207 -0.6460  0.9704
 9455TIP3    H249781   1.918   2.392  16.634 -0.0789  1.3722  0.8190
 9456TIP3   OH249782   0.121   5.069  12.525 -0.8837  0.0560  0.0480
 9456TIP3    H149783   0.126   5.031  12.612 -3.3180  0.0667  0.2664
 9456TIP3    H249784   0.035   5.111  12.522 -1.3652 -0.8950 -2.7116
 9457TIP3   OH249785   1.317   3.776   1.671 -0.5485  0.2731  0.1440
 9457TIP3    H149786   1.376   3.727   1.728  0.0658  2.1262  1.1969
 9457TIP3    H249787   1.229   3.750   1.699 -0.2521  0.8864  1.7514
 9458TIP3   OH249788   2.626   3.055  12.087  0.0923  0.2067  0.1968
 9458TIP3    H149789   2.557   3.108  12.047  0.3128  0.1822 -0.2121
 9458TIP3    H249790   2.632   2.977  12.033  0.4639  0.2220  0.2142
 9459TIP3   OH249791   0.671   5.137   4.478  0.4966  0.7041  0.0034
 9459TIP3    H149792   0.623   5.062   4.513  1.8875 -1.4365 -2.3185
 9459TIP3    H249793   0.763   5.115   4.492  0.9554  2.6972  0.4883
 9460TIP3   OH249794   0.114   3.131   3.683 -0.2618 -0.3813  0.6610
 9460TIP3    H149795   0.164   3.124   3.764 -1.1729 -1.9720  1.1182
 9460TIP3    H249796   0.175   3.101   3.615  0.7043  1.5162  0.6150
 9461TIP3   OH249797   3.588   3.049   3.343 -0.0755 -0.6929  0.0021
 9461TIP3    H149798   3.561   2.993   3.416 -1.1623 -1.9402 -1.2939
 9461TIP3    H249799   3.512   3.051   3.285  1.0217 -0.3866 -1.4844
 9462TIP3   OH249800   3.562   4.668  14.118  0.0537  0.0904 -0.8115
 9462TIP3    H149801   3.472   4.634  14.114  0.2080 -0.3243 -0.8005
 9462TIP3    H249802   3.592   4.645  14.206 -0.1548  1.0774 -0.4670
 9463TIP3   OH249803   2.812   0.382   4.968 -0.2519  0.1869 -0.5958
 9463TIP3    H149804   2.775   0.438   5.036 -2.8315  0.8825 -2.4011
 9463TIP3    H249805   2.825   0.441   4.894  1.1890 -0.8070 -1.1612
 9464TIP3   OH249806   2.996   2.902  10.702  0.0511  0.2064 -0.9378
 9464TIP3    H149807   3.078   2.888  10.654  1.6042  2.6458  0.7724
 9464TIP3    H249808   2.994   2.833  10.768  0.7059  0.0771 -1.0439
 9465TIP3   OH249809   1.970   3.672   6.163 -0.4673 -0.1286  0.6609
 9465TIP3    H149810   1.997   3.762   6.184 -0.3990 -0.5149  2.3615
 9465TIP3    H249811   2.053   3.625   6.151 -0.5001  0.3076 -1.6805
 9466TIP3   OH249812   6.640   0.911  17.226 -0.0182 -0.0204  0.5943
 9466TIP3    H149813   6.716   0.869  17.266  0.1201 -0.8632 -0.5251
 9466TIP3    H249814   6.677   0.964  17.155 -0.5957 -1.8115 -1.0933
 9467TIP3   OH249815   6.120   6.058   4.939  0.0206  0.0190 -0.0890
 9467TIP3    H149816   6.102   6.148   4.966 -0.7441 -0.3234  0.5945
 9467TIP3    H249817   6.037   6.029   4.900  0.0190 -0.6273  0.3871
 9468TIP3   OH249818   4.395   0.609  12.827  0.2306 -1.1443 -0.3254
 9468TIP3    H149819   4.454   0.552  12.875 -0.2335 -1.0585  0.3564
 9468TIP3    H249820   4.450   0.649  12.759  1.0736 -0.6961  0.5946
 9469TIP3   OH249821   1.617   4.516  11.416 -0.5131 -0.1387 -0.3849
 9469TIP3    H149822   1.649   4.471  11.338  0.6480  1.4178 -0.8318
 9469TIP3    H249823   1.558   4.584  11.383 -0.6953 -0.0187  0.1616
 9470TIP3   OH249824   5.436   3.726  16.359  0.0531 -0.5499  0.6958
 9470TIP3    H149825   5.387   3.808  16.358  1.8023  0.5529 -0.6243
 9470TIP3    H249826   5.391   3.671  16.424 -0.8726  1.6222  1.9758
 9471TIP3   OH249827   3.710   0.101   2.656  0.2617  0.2071 -0.4103
 9471TIP3    H149828   3.774   0.134   2.720 -0.1277 -0.8676  0.5774
 9471TIP3    H249829   3.761   0.044   2.599  0.6623  1.3662 -1.2482
 9472TIP3   OH249830   0.302   3.925  13.867  0.1274  0.0112 -0.0481
 9472TIP3    H149831   0.217   3.963  13.887  0.1481 -0.9104  2.0968
 9472TIP3    H249832   0.283   3.851  13.809 -0.4257  0.3649 -0.3206
 9473TIP3   OH249833   5.916   4.628  14.670  0.5328 -0.2084  0.4694
 9473TIP3    H149834   5.828   4.590  14.662  0.5487 -0.8050  2.6566
 9473TIP3    H249835   5.900   4.719  14.696  0.5564  0.6911 -2.3280
 9474TIP3   OH249836   1.567   4.689   1.420 -0.0716  0.0784  0.0844
 9474TIP3    H149837   1.590   4.602   1.387 -1.2058  0.1278 -0.9199
 9474TIP3    H249838   1.593   4.749   1.351 -0.1571  0.4449  0.3665
 9475TIP3   OH249839   2.218   3.299   5.667 -0.4830  0.2838  0.4013
 9475TIP3    H149840   2.289   3.237   5.647 -1.4594 -1.3124  1.6513
 9475TIP3    H249841   2.198   3.283   5.759 -2.5674  0.6127  0.0375
 9476TIP3   OH249842   3.206   1.265   5.319  0.1650  0.1991  0.1420
 9476TIP3    H149843   3.258   1.186   5.332  0.7473  0.5874  0.2018
 9476TIP3    H249844   3.149   1.268   5.395 -1.1883 -1.1536 -0.7500
 9477TIP3   OH249845   0.571   0.988   3.755 -0.5651 -0.5668  0.0950
 9477TIP3    H149846   0.553   1.080   3.775 -0.9153 -0.7692  0.7459
 9477TIP3    H249847   0.485   0.951   3.733 -0.2452 -0.4383 -1.5162
 9478TIP3   OH249848   0.738   3.756   5.257  0.4479  0.2148 -0.2820
 9478TIP3    H149849   0.813   3.760   5.316 -0.4768  0.5185  0.9072
 9478TIP3    H249850   0.677   3.821   5.290 -1.9097 -2.4409  1.0708
 9479TIP3   OH249851   4.860   6.457  15.403 -0.4900 -0.0273  1.0065
 9479TIP3    H149852   4.823   6.394  15.465 -0.3312 -2.0258 -0.8030
 9479TIP3    H249853   4.930   6.500  15.452 -0.4379 -1.4680  2.2784
 9480TIP3   OH249854   0.894   4.112  13.155  0.4074 -0.7013 -0.1767
 9480TIP3    H149855   0.961   4.111  13.086  0.2414 -0.0361 -0.3619
 9480TIP3    H249856   0.881   4.205  13.173  0.5709 -0.8722  0.8841
 9481TIP3   OH249857   3.913   5.116   1.366  0.0521 -0.2904  0.1954
 9481TIP3    H149858   3.823   5.084   1.358  0.2002 -0.4245 -1.0521
 9481TIP3    H249859   3.956   5.089   1.285  1.2516 -0.3007  0.8119
 9482TIP3   OH249860   1.944   3.171  17.294 -0.2667 -0.0557 -0.4497
 9482TIP3    H149861   1.950   3.077  17.313 -1.6203  0.3558  2.4379
 9482TIP3    H249862   1.851   3.186  17.278 -0.4636  1.1246  1.5067
 9483TIP3   OH249863   0.808   5.943  12.193  0.6822 -0.0870  0.2751
 9483TIP3    H149864   0.880   5.889  12.224  0.5951  0.1064  0.8197
 9483TIP3    H249865   0.834   6.033  12.214  0.6462  0.0512 -0.2601
 9484TIP3   OH249866   6.350   1.803  11.081  0.2779 -0.0613 -0.2789
 9484TIP3    H149867   6.317   1.887  11.048 -0.8900 -1.2197 -2.2204
 9484TIP3    H249868   6.444   1.806  11.065 -0.0099  0.1606 -2.0530
 9485TIP3   OH249869   6.601   5.919   5.914  0.5532  0.5581  0.4576
 9485TIP3    H149870   6.687   5.881   5.895  0.0087 -0.7588  0.5110
 9485TIP3    H249871   6.583   5.893   6.004 -0.0520  0.5136  0.3304
 9486TIP3   OH249872   1.220   4.832  15.040  0.0178  0.1503  0.8155
 9486TIP3    H149873   1.141   4.799  15.082 -2.7953  2.4373 -2.1883
 9486TIP3    H249874   1.248   4.761  14.982  1.2709 -1.2679  2.9947
 9487TIP3   OH249875   1.993   4.672   2.615  0.3587  0.0774 -0.0679
 9487TIP3    H149876   1.957   4.744   2.667 -0.6606  0.4461 -1.2370
 9487TIP3    H249877   1.916   4.627   2.580  1.0036 -0.4202 -0.8863
 9488TIP3   OH249878   4.464   5.441   4.138 -0.4985 -0.3010  0.5298
 9488TIP3    H149879   4.382   5.422   4.092 -0.1523 -0.6173  0.0389
 9488TIP3    H249880   4.451   5.529   4.174 -0.6160  0.1154 -0.5074
 9489TIP3   OH249881   3.809   2.025  17.107  0.3624 -0.4823  0.5211
 9489TIP3    H149882   3.809   2.120  17.099 -0.6765 -0.4894  0.2122
 9489TIP3    H249883   3.717   2.000  17.097  0.8413 -1.6911 -1.8925
 9490TIP3   OH249884   2.172   6.778   0.029 -0.4043  0.7975  0.7374
 9490TIP3    H149885   2.222   6.827   0.094  0.6391  1.0574 -0.2332
 9490TIP3    H249886   2.187   6.824  -0.054 -2.5698  1.1128  0.4439
 9491TIP3   OH249887   5.485   5.357   4.674 -0.2734 -0.5168 -0.1441
 9491TIP3    H149888   5.574   5.375   4.643 -1.1866 -0.7167 -3.2809
 9491TIP3    H249889   5.464   5.271   4.637 -1.2963 -1.1291  1.7494
 9492TIP3   OH249890   0.231   5.157   0.079 -0.6618 -0.2896 -0.2690
 9492TIP3    H149891   0.319   5.134   0.050 -0.3078 -0.3439  0.7904
 9492TIP3    H249892   0.175   5.089   0.043 -0.0489 -1.1031  0.2747
 9493TIP3   OH249893   0.220   6.240   1.357  0.7551 -0.3894 -0.5874
 9493TIP3    H149894   0.165   6.168   1.325  0.5011 -0.9286  0.9973
 9493TIP3    H249895   0.187   6.317   1.311 -0.0477 -1.0089 -1.0947
 9494TIP3   OH249896   4.055   0.286  11.752 -0.2498 -0.3228 -0.0139
 9494TIP3    H149897   4.046   0.200  11.793  1.9461 -1.0418 -0.8630
 9494TIP3    H249898   4.078   0.345  11.824 -0.9520 -0.6010  0.4450
 9495TIP3   OH249899   5.835   3.848  16.629  0.3967  0.3030  0.0713
 9495TIP3    H149900   5.746   3.849  16.596  0.5365 -3.3204 -0.7876
 9495TIP3    H249901   5.887   3.891  16.560 -0.5190  1.8751  0.3051
 9496TIP3   OH249902   2.581   5.409  15.234  0.1475  0.1421  0.2603
 9496TIP3    H149903   2.533   5.336  15.195  1.8891 -1.2440  0.5563
 9496TIP3    H249904   2.606   5.377  15.321  1.6411  0.7536  0.0889
 9497TIP3   OH249905   0.419   1.662  16.109  0.3814  0.3520 -0.2038
 9497TIP3    H149906   0.428   1.669  16.204 -0.4165  1.0278 -0.1616
 9497TIP3    H249907   0.359   1.733  16.086  0.0250 -0.2381 -1.1291
 9498TIP3   OH249908   5.716   5.708  15.245 -0.0458  0.2691  0.1257
 9498TIP3    H149909   5.809   5.731  15.255  0.0157  1.8878 -2.8310
 9498TIP3    H249910   5.712   5.615  15.265  2.4388 -0.0761 -0.6079
 9499TIP3   OH249911   4.634   3.603   3.420  0.3794  0.5391 -0.0538
 9499TIP3    H149912   4.632   3.680   3.476 -1.3326  1.1584 -0.9101
 9499TIP3    H249913   4.543   3.589   3.393  0.8519 -0.9334 -1.0531
 9500TIP3   OH249914   0.323   6.485  14.359 -0.3097 -0.5370 -0.0695
 9500TIP3    H149915   0.235   6.513  14.337  0.3752  0.3755 -1.9056
 9500TIP3    H249916   0.335   6.403  14.311 -0.5133 -1.2471  1.0603
 9501TIP3   OH249917   5.582   0.690  13.176 -0.1034  0.0553  0.5658
 9501TIP3    H149918   5.610   0.653  13.092 -0.6964  0.5648  0.1246
 9501TIP3    H249919   5.649   0.754  13.198  0.6049 -0.8268  1.0236
 9502TIP3   OH249920   3.291   2.114  12.352  0.0083 -0.3659  0.3488
 9502TIP3    H149921   3.314   2.140  12.263 -2.9612  0.7932 -0.1918
 9502TIP3    H249922   3.270   2.020  12.345  1.4453 -0.6968  0.2340
 9503TIP3   OH249923   3.271   1.211   2.107  0.3961  0.2282 -0.3564
 9503TIP3    H149924   3.198   1.177   2.056 -3.1311  1.4882  3.2770
 9503TIP3    H249925   3.296   1.291   2.062 -1.7915  0.7166 -0.8487
 9504TIP3   OH249926   3.237   5.338  16.201  0.3267 -0.0631 -0.5180
 9504TIP3    H149927   3.255   5.396  16.127  0.7667  0.6742  0.1599
 9504TIP3    H249928   3.276   5.254  16.175  2.1798  0.6961 -0.3462
 9505TIP3   OH249929   4.445   3.026   3.355  0.2542 -0.7248  0.1234
 9505TIP3    H149930   4.383   2.966   3.397 -1.1014 -0.7966 -1.8660
 9505TIP3    H249931   4.453   3.099   3.417 -1.0806 -1.1554  0.8396
 9506TIP3   OH249932   1.415   6.097   2.992  0.2376  0.1497  0.3527
 9506TIP3    H149933   1.439   6.182   3.028  1.1090  0.1823 -0.2835
 9506TIP3    H249934   1.329   6.112   2.951  0.2655  0.6607  0.4746
 9507TIP3   OH249935   0.506   1.728  15.345 -0.1316  0.8593 -0.1118
 9507TIP3    H149936   0.556   1.649  15.325 -3.2611 -0.7108 -2.7450
 9507TIP3    H249937   0.512   1.738  15.440  3.5378 -0.1552 -0.0910
 9508TIP3   OH249938   3.171   0.100  14.567  0.3316 -0.1563 -0.1251
 9508TIP3    H149939   3.083   0.061  14.567 -0.3435  1.1003  2.3175
 9508TIP3    H249940   3.173   0.156  14.490 -0.2793 -1.6488 -1.2635
 9509TIP3   OH249941   4.290   3.596  16.666 -0.2532  0.2674 -0.4071
 9509TIP3    H149942   4.343   3.516  16.667 -1.0524 -0.3317  2.0532
 9509TIP3    H249943   4.289   3.624  16.757 -0.3501  2.8890 -1.1548
 9510TIP3   OH249944   2.317   2.913  11.072  0.4989 -0.2617  0.7221
 9510TIP3    H149945   2.289   2.821  11.066  1.2302 -0.4424 -0.1023
 9510TIP3    H249946   2.286   2.953  10.991  1.2576 -0.0846  0.5145
 9511TIP3   OH249947   1.298   3.696  15.180 -0.0287 -0.5194  0.3687
 9511TIP3    H149948   1.211   3.736  15.185  0.4239  0.7653 -1.1868
 9511TIP3    H249949   1.292   3.634  15.107  0.6464  0.4022 -0.4929
 9512TIP3   OH249950   1.399   6.144  14.897 -0.2118 -0.3037  0.3821
 9512TIP3    H149951   1.449   6.225  14.888 -0.5618 -0.1675 -0.4625
 9512TIP3    H249952   1.342   6.159  14.972 -0.0338  0.1081  0.4346
 9513TIP3   OH249953   3.059   5.542   2.199 -0.2312 -0.2024 -0.2786
 9513TIP3    H149954   2.972   5.513   2.226 -0.1555 -2.5086 -2.1684
 9513TIP3    H249955   3.052   5.636   2.188 -2.5162 -0.3579 -0.4771
 9514TIP3   OH249956   1.664   6.779  15.404 -0.0330 -0.3409  0.3285
 9514TIP3    H149957   1.604   6.761  15.332  0.6533 -0.6668 -0.1797
 9514TIP3    H249958   1.730   6.710  15.398  1.1042  0.7346  0.0640
 9515TIP3   OH249959   3.065   1.604   2.948 -0.5712  0.1771  0.3602
 9515TIP3    H149960   3.094   1.513   2.956  0.8681  0.6836  1.2025
 9515TIP3    H249961   3.073   1.623   2.854  2.8931  0.5601  0.6076
 9516TIP3   OH249962   3.273   1.273   0.065 -0.1190  0.0535  0.6159
 9516TIP3    H149963   3.287   1.259   0.159 -0.6261 -0.2348  0.6504
 9516TIP3    H249964   3.217   1.350   0.060  1.3245  1.1492  0.4780
 9517TIP3   OH249965   5.802   6.134  13.264  0.2510 -0.2052 -0.1514
 9517TIP3    H149966   5.794   6.185  13.183  1.9045  0.6839  0.1923
 9517TIP3    H249967   5.713   6.106  13.284 -0.4379  0.9815 -1.3903
 9518TIP3   OH249968   3.038   4.520  11.925 -0.0102  0.2721  0.5675
 9518TIP3    H149969   2.960   4.516  11.980  0.3011  0.4626  1.0284
 9518TIP3    H249970   3.006   4.498  11.837 -0.2043 -1.7764  1.1075
 9519TIP3   OH249971   3.238   0.033  11.003  0.5677  0.2194  0.1959
 9519TIP3    H149972   3.319  -0.012  10.981  0.4616 -0.4086  1.0474
 9519TIP3    H249973   3.176  -0.038  11.024 -0.2435  0.6803 -0.5783
 9520TIP3   OH249974   3.730   0.561   3.933  0.0367  0.8749  0.2794
 9520TIP3    H149975   3.635   0.552   3.931  0.1616 -1.3095 -2.9066
 9520TIP3    H249976   3.748   0.647   3.896 -0.6516  1.1920  0.6698
 9521TIP3   OH249977   2.044   2.461   1.360  0.1342 -0.2675  0.4885
 9521TIP3    H149978   2.091   2.544   1.355  0.0221 -0.0061  2.7074
 9521TIP3    H249979   2.030   2.436   1.269  0.8852  1.7304 -0.2356
 9522TIP3   OH249980   5.721   0.048   0.747  0.0666 -0.4629 -0.2917
 9522TIP3    H149981   5.673   0.000   0.814 -1.8578  0.2561 -1.0929
 9522TIP3    H249982   5.655   0.070   0.681  1.9186 -1.5451 -2.6823
 9523TIP3   OH249983   3.947   6.298   3.271  0.1471  0.0887  0.0615
 9523TIP3    H149984   3.886   6.368   3.249 -0.8089 -0.5322  0.6508
 9523TIP3    H249985   4.002   6.288   3.193 -1.8112 -0.6741 -1.2923
 9524TIP3   OH249986   2.507   5.123   2.093 -0.3183 -0.4743 -0.1569
 9524TIP3    H149987   2.464   5.093   2.014  2.0430 -0.1440 -1.6695
 9524TIP3    H249988   2.480   5.215   2.103 -0.1886 -0.3489 -0.9300
 9525TIP3   OH249989   3.669   0.455  17.305  0.0680  0.3859  0.0264
 9525TIP3    H149990   3.731   0.413  17.245 -0.0550 -0.9636  0.8073
 9525TIP3    H249991   3.677   0.548  17.287  1.1496  0.1077 -1.0100
 9526TIP3   OH249992   1.004   0.836   0.399  0.5233 -0.6083  0.0263
 9526TIP3    H149993   0.928   0.863   0.347 -0.0550 -0.5243  0.9020
 9526TIP3    H249994   1.019   0.909   0.459  2.2129  0.0255 -1.0982
 9527TIP3   OH249995   2.180   2.158   3.333 -0.1888  0.3734  0.8592
 9527TIP3    H149996   2.159   2.113   3.415  1.7037  0.0708  1.2173
 9527TIP3    H249997   2.114   2.126   3.271 -0.7835 -0.4873  1.8940
 9528TIP3   OH249998   3.892   2.569  14.539  0.2696 -0.2351 -0.3431
 9528TIP3    H149999   3.938   2.597  14.460 -0.6711  3.1934  0.1536
 9528TIP3    H250000   3.898   2.644  14.598 -2.6056 -1.0972  1.2362
 9529TIP3   OH250001   2.901   3.649   3.262  0.2283 -0.2938 -0.2003
 9529TIP3    H150002   2.974   3.708   3.242 -0.5368  0.7784  0.0570
 9529TIP3    H250003   2.894   3.652   3.357  0.1354 -0.7584 -0.1917
 9530TIP3   OH250004   3.472   1.309   4.931 -0.0591 -0.4185 -0.0150
 9530TIP3    H150005   3.432   1.226   4.959  0.0629 -0.6144 -0.4172
 9530TIP3    H250006   3.415   1.341   4.862  0.9394 -1.1490 -1.2223
 9531TIP3   OH250007   2.018   1.124  16.844  0.8810 -0.0338  0.3203
 9531TIP3    H150008   2.058   1.145  16.759  0.9607 -0.8932  0.1292
 9531TIP3    H250009   1.948   1.062  16.822  2.5185 -2.3061  1.0731
 9532TIP3   OH250010   3.604   6.082  11.913 -0.6937  0.3439 -0.5726
 9532TIP3    H150011   3.616   6.004  11.859  1.5590 -1.2643  2.0316
 9532TIP3    H250012   3.670   6.143  11.881 -1.4325  0.6349 -1.5968
 9533TIP3   OH250013   3.105   5.866  15.403  0.2038  0.1050  0.6719
 9533TIP3    H150014   3.175   5.904  15.350 -1.1703  1.5737 -0.1685
 9533TIP3    H250015   3.044   5.829  15.340 -1.0250  1.0844  1.2499
 9534TIP3   OH250016   3.100   2.079  17.267 -0.1587 -0.6369  0.7227
 9534TIP3    H150017   3.190   2.113  17.266 -0.1468 -0.6311 -0.5632
 9534TIP3    H250018   3.053   2.135  17.205 -0.1828 -2.7772 -1.3388
 9535TIP3   OH250019   6.696   1.060   1.531  0.0773  0.0454 -0.1682
 9535TIP3    H150020   6.712   1.036   1.622  1.4245 -0.0161 -0.3972
 9535TIP3    H250021   6.601   1.057   1.521 -0.4104  3.1416  2.0683
 9536TIP3   OH250022   3.591   3.444  13.870  0.6511  0.1772  0.1032
 9536TIP3    H150023   3.581   3.379  13.940  0.2663  1.4648  1.2902
 9536TIP3    H250024   3.679   3.479  13.881  0.6668  0.2364 -0.1923
 9537TIP3   OH250025   5.631   4.820  16.378  0.3136  0.1117 -0.2415
 9537TIP3    H150026   5.670   4.904  16.354 -1.1883  0.7323 -0.6720
 9537TIP3    H250027   5.593   4.787  16.297 -1.5533  0.4160  0.4531
 9538TIP3   OH250028   2.048   0.217   1.850  0.0393 -0.4061 -0.4973
 9538TIP3    H150029   1.989   0.151   1.812  2.4241 -2.2702 -1.1806
 9538TIP3    H250030   2.083   0.264   1.775 -0.8124  0.9891 -0.0657
 9539TIP3   OH250031   1.508   3.112   4.971 -0.2728  0.6621  1.0036
 9539TIP3    H150032   1.526   3.073   4.886  0.4118 -1.5580  2.0666
 9539TIP3    H250033   1.419   3.147   4.964  0.1547  1.4450 -0.9015
 9540TIP3   OH250034   3.369   3.204  16.180 -0.1425  0.0301  0.0197
 9540TIP3    H150035   3.276   3.218  16.196 -0.0943  2.6197 -1.4446
 9540TIP3    H250036   3.373   3.161  16.095 -0.0075  1.9091 -0.9683
 9541TIP3   OH250037   3.754   5.462   2.447  0.0521  0.2600  0.6203
 9541TIP3    H150038   3.745   5.542   2.395  0.6355  0.2556  0.5029
 9541TIP3    H250039   3.845   5.465   2.478 -0.3590  0.4167  1.8788
 9542TIP3   OH250040   3.599   6.502   1.581  0.1616 -0.1188 -1.1198
 9542TIP3    H150041   3.557   6.566   1.638 -0.5060  0.3778 -2.1524
 9542TIP3    H250042   3.585   6.418   1.626  0.3042  0.3322 -0.1921
 9543TIP3   OH250043   2.082   5.410   0.487  0.5785  0.5389 -0.3617
 9543TIP3    H150044   2.010   5.461   0.526  1.5658 -0.1410  2.6028
 9543TIP3    H250045   2.042   5.325   0.467  0.3905  0.3656  0.6978
 9544TIP3   OH250046   6.110   4.209  14.125  0.2244 -0.2861  0.0960
 9544TIP3    H150047   6.042   4.178  14.064 -0.6907 -2.2253  1.9704
 9544TIP3    H250048   6.065   4.270  14.182  0.5313 -0.1304  0.1731
 9545TIP3   OH250049   2.719   2.391   5.573  0.2423 -0.0007  0.1257
 9545TIP3    H150050   2.649   2.407   5.637 -0.8971  1.0519 -1.3119
 9545TIP3    H250051   2.694   2.309   5.530 -0.3888  0.6078 -0.7003
 9546TIP3   OH250052   4.595   0.247   2.550 -0.2806  0.5500 -0.3710
 9546TIP3    H150053   4.669   0.303   2.571  0.8776 -0.4712 -1.5531
 9546TIP3    H250054   4.625   0.158   2.571 -1.8859  0.2815  0.9749
 9547TIP3   OH250055   2.235   3.596   6.223 -0.2773  0.2289  0.1957
 9547TIP3    H150056   2.252   3.672   6.279 -0.2225  0.5381 -0.2291
 9547TIP3    H250057   2.270   3.522   6.271  0.7380  0.6300  0.1053
 9548TIP3   OH250058   4.710   0.468   4.713 -0.1603 -0.2263 -0.3068
 9548TIP3    H150059   4.640   0.514   4.667  0.4782  0.5689 -0.5103
 9548TIP3    H250060   4.677   0.456   4.802 -1.3595 -1.6735 -0.9007
 9549TIP3   OH250061   1.063   0.284  15.916 -0.5336 -0.5682  0.3163
 9549TIP3    H150062   1.018   0.369  15.910  0.9759  0.2304 -0.2788
 9549TIP3    H250063   1.027   0.233  15.844 -2.4516 -0.9783  1.4866
 9550TIP3   OH250064   0.533   1.914  14.272  0.2551 -0.1646  0.1846
 9550TIP3    H150065   0.616   1.879  14.302  0.3710  0.4390  0.5816
 9550TIP3    H250066   0.556   1.990  14.219 -0.0889  1.0804  1.7605
 9551TIP3   OH250067   5.836   1.315   5.637  0.1276  0.0681  0.1010
 9551TIP3    H150068   5.854   1.321   5.543 -1.2735  1.1321 -0.1326
 9551TIP3    H250069   5.918   1.283   5.675  1.2094  1.0441 -1.2888
 9552TIP3   OH250070   3.702   2.058   6.000  0.7071 -0.4865  0.2751
 9552TIP3    H150071   3.678   2.037   5.910  0.7751  0.0709  0.1265
 9552TIP3    H250072   3.784   2.011   6.014  0.9435 -0.1948 -0.1114
 9553TIP3   OH250073   5.215   6.054  12.060  0.0316 -0.6917 -0.3455
 9553TIP3    H150074   5.292   6.103  12.031 -1.3500  0.7744 -1.7004
 9553TIP3    H250075   5.186   6.099  12.139 -0.3664 -0.2406 -0.7456
 9554TIP3   OH250076   5.588   5.676   0.378 -0.3551 -0.1701  0.4090
 9554TIP3    H150077   5.526   5.608   0.406  0.4230 -0.9897  0.1757
 9554TIP3    H250078   5.644   5.633   0.315  0.9035  0.3707  1.1228
 9555TIP3   OH250079   0.802   2.725   6.255 -0.0955  0.5159 -0.0575
 9555TIP3    H150080   0.772   2.635   6.242  1.9783 -0.0406 -1.5997
 9555TIP3    H250081   0.759   2.754   6.335 -1.8663 -1.3670 -0.2563
 9556TIP3   OH250082   6.383   2.374   4.124  0.0970  0.4544  0.2189
 9556TIP3    H150083   6.428   2.290   4.122  2.0105  1.4193 -0.3664
 9556TIP3    H250084   6.413   2.416   4.205  0.1341  1.0591 -0.0982
 9557TIP3   OH250085   2.023   5.056  14.822  0.1993  0.3336 -0.3748
 9557TIP3    H150086   2.021   5.110  14.901  1.2543  2.1104 -1.4969
 9557TIP3    H250087   1.970   5.104  14.759 -0.2931 -0.8598 -0.9007
 9558TIP3   OH250088   0.338   4.262  13.711 -0.0523 -0.2397 -0.1749
 9558TIP3    H150089   0.339   4.357  13.728 -1.5968 -0.1602 -0.4055
 9558TIP3    H250090   0.424   4.232  13.740 -0.7242  0.6806  3.2347
 9559TIP3   OH250091   1.556   4.658   1.086 -0.2901 -0.2175 -0.3765
 9559TIP3    H150092   1.463   4.652   1.066 -0.2428 -1.2995 -0.3460
 9559TIP3    H250093   1.569   4.600   1.161  0.6721 -1.4322 -1.4176
 9560TIP3   OH250094   0.351   0.947  16.066 -0.2045  0.1327 -0.2112
 9560TIP3    H150095   0.344   0.958  15.972 -2.4739  1.3384  0.0173
 9560TIP3    H250096   0.287   0.879  16.088  0.2867 -0.1272  0.4746
 9561TIP3   OH250097   1.646   4.973  14.802 -0.1707  0.7030 -0.1252
 9561TIP3    H150098   1.694   4.898  14.837 -0.0370  1.0597  0.4669
 9561TIP3    H250099   1.617   4.944  14.716 -1.8200 -0.7644  0.8505
 9562TIP3   OH250100   1.145   3.385   3.961 -0.8481 -0.6708 -0.5427
 9562TIP3    H150101   1.167   3.320   4.027 -0.5344  0.3048  0.3398
 9562TIP3    H250102   1.168   3.469   4.001 -0.9903 -0.0317 -1.7547
 9563TIP3   OH250103   6.381   4.954  16.134  0.2120  0.5342  0.1199
 9563TIP3    H150104   6.326   4.954  16.213 -2.5755 -0.1381 -1.6632
 9563TIP3    H250105   6.420   5.042  16.132 -2.1678  1.6898  0.6633
 9564TIP3   OH250106   5.004   3.310  14.147 -0.0215  0.0962  0.1914
 9564TIP3    H150107   5.021   3.259  14.069 -1.9108  1.2560 -1.0670
 9564TIP3    H250108   5.071   3.379  14.146  0.1935 -0.1192 -0.1949
 9565TIP3   OH250109   5.926   5.196   1.773 -0.0945  0.4119  0.0927
 9565TIP3    H150110   5.910   5.152   1.856  1.3412 -0.5877 -0.1335
 9565TIP3    H250111   6.007   5.157   1.740  0.0241  1.6610 -1.1884
 9566TIP3   OH250112   2.719   1.074  17.119  0.2424 -0.1062 -0.2716
 9566TIP3    H150113   2.696   0.981  17.126 -2.2077  0.5152  1.3958
 9566TIP3    H250114   2.724   1.090  17.025  0.4340 -1.8701 -0.5975
 9567TIP3   OH250115   5.716   4.883   2.009  0.1282 -0.1280  0.2568
 9567TIP3    H150116   5.758   4.923   2.086  2.4958  0.1440 -1.0933
 9567TIP3    H250117   5.660   4.952   1.974  0.3375  0.3144  0.7748
 9568TIP3   OH250118   1.432   2.129   5.423  0.5148 -0.0073 -0.2237
 9568TIP3    H150119   1.407   2.074   5.497 -0.2113  0.4133 -0.1451
 9568TIP3    H250120   1.492   2.194   5.460  0.5794 -0.1315 -0.1129
 9569TIP3   OH250121   2.673   0.508   0.299  0.5409 -0.5986  0.1326
 9569TIP3    H150122   2.730   0.585   0.296 -0.0273 -0.1498  0.7135
 9569TIP3    H250123   2.667   0.480   0.208 -0.1100  0.6873 -0.2503
 9570TIP3   OH250124   3.922   0.422   4.362 -0.2271  0.3444  0.0970
 9570TIP3    H150125   3.841   0.452   4.403 -1.3918 -2.3164 -0.0519
 9570TIP3    H250126   3.931   0.331   4.391  2.2762  0.2946 -0.5975
 9571TIP3   OH250127   4.003   2.897   2.113  0.0959  0.4464  0.1649
 9571TIP3    H150128   4.021   2.905   2.207  2.0652  2.4386 -0.2875
 9571TIP3    H250129   3.912   2.926   2.104 -0.0193  0.5353  1.4300
 9572TIP3   OH250130   2.507   5.587  10.472 -0.3776  0.8950 -0.2084
 9572TIP3    H150131   2.423   5.548  10.492 -0.2222 -0.0206 -1.2127
 9572TIP3    H250132   2.546   5.528  10.407  0.7221  1.6785 -0.2978
 9573TIP3   OH250133   1.434   4.376   3.782  0.1607 -0.4730  0.3967
 9573TIP3    H150134   1.419   4.319   3.858  0.9501 -0.9165  0.2356
 9573TIP3    H250135   1.529   4.389   3.780  0.0088  0.7205  0.3208
 9574TIP3   OH250136   0.204   2.677  14.246  0.0316  0.3976 -0.3039
 9574TIP3    H150137   0.147   2.622  14.193  1.1076 -1.1968  0.1479
 9574TIP3    H250138   0.260   2.616  14.293  1.0298  1.8725  0.4941
 9575TIP3   OH250139   0.394   2.283  14.658 -0.2404 -0.5195 -0.4392
 9575TIP3    H150140   0.314   2.329  14.682  0.3290 -0.4477  1.5135
 9575TIP3    H250141   0.462   2.351  14.660  0.0082 -0.7182 -1.3773
 9576TIP3   OH250142   6.614   3.806   1.395 -0.3611  0.0128 -0.1762
 9576TIP3    H150143   6.699   3.779   1.431 -1.0300 -1.2506  0.5155
 9576TIP3    H250144   6.549   3.767   1.454 -1.4468  0.0296 -1.3122
 9577TIP3   OH250145   5.594   3.000   2.699  0.1211  0.2151  0.0062
 9577TIP3    H150146   5.565   3.000   2.608  0.0375  0.8549  0.0322
 9577TIP3    H250147   5.585   2.908   2.727 -0.8412  0.1957 -0.3149
 9578TIP3   OH250148   2.693   4.322   5.978  0.2561  0.3913  0.2840
 9578TIP3    H150149   2.659   4.409   5.999 -2.8695 -0.2983 -1.3209
 9578TIP3    H250150   2.788   4.332   5.978  0.0591  3.2429  2.2732
 9579TIP3   OH250151   1.778   4.667  15.465 -0.2179  0.1810  0.2709
 9579TIP3    H150152   1.825   4.598  15.419  1.7585  1.1534  0.7148
 9579TIP3    H250153   1.779   4.741  15.403 -0.5194  0.4391  0.5727
 9580TIP3   OH250154   0.473   2.276   2.619 -0.1232 -0.8122 -0.2900
 9580TIP3    H150155   0.423   2.253   2.698 -0.9205 -0.7190 -0.7520
 9580TIP3    H250156   0.469   2.371   2.615 -0.9853 -0.8643 -0.9963
 9581TIP3   OH250157   2.661   2.089   5.490  0.5613 -0.2071 -0.2830
 9581TIP3    H150158   2.713   2.060   5.415 -0.4173 -0.7888 -0.7606
 9581TIP3    H250159   2.719   2.077   5.566  0.9837 -1.2332 -0.7534
 9582TIP3   OH250160   5.558   2.241   4.475 -0.1495 -0.0844 -0.1036
 9582TIP3    H150161   5.614   2.292   4.534 -1.4311  1.5918 -0.2554
 9582TIP3    H250162   5.584   2.270   4.387  0.2615 -0.9631 -0.2797
 9583TIP3   OH250163   0.648   1.217   3.952  0.0270  0.3056 -0.1521
 9583TIP3    H150164   0.581   1.272   3.992  0.9270  0.6448  0.9536
 9583TIP3    H250165   0.703   1.189   4.026  0.3596 -1.0002 -0.8650
 9584TIP3   OH250166   4.243   4.322   1.857  0.1854  0.0871  0.0782
 9584TIP3    H150167   4.338   4.327   1.871 -0.0041  0.2207  1.4579
 9584TIP3    H250168   4.210   4.276   1.935 -0.6153 -2.3222 -1.5688
 9585TIP3   OH250169   4.948   2.467   3.063  0.3617  0.0841  0.0471
 9585TIP3    H150170   4.936   2.441   2.972 -2.7369  0.6587  0.1667
 9585TIP3    H250171   4.889   2.541   3.075  2.3663  1.4960  1.9857
 9586TIP3   OH250172   3.790   4.841   6.267 -0.0996 -0.3256 -0.5388
 9586TIP3    H150173   3.758   4.906   6.206  1.8381  1.7116  0.4681
 9586TIP3    H250174   3.882   4.828   6.242  0.2125 -0.8362  0.7737
 9587TIP3   OH250175   3.272   6.743  14.787 -0.2056 -0.2437 -0.5614
 9587TIP3    H150176   3.222   6.779  14.714 -2.0317  0.0829  0.7761
 9587TIP3    H250177   3.229   6.777  14.865  3.3424  1.6917  0.7645
 9588TIP3   OH250178   2.103   5.341   3.415  0.1621 -0.1811  0.1793
 9588TIP3    H150179   2.140   5.255   3.433  0.2085  0.1731  1.9967
 9588TIP3    H250180   2.148   5.399   3.476 -1.0613  0.8335  0.1463
 9589TIP3   OH250181   0.999   2.416  12.170 -0.3849 -0.0907  0.0404
 9589TIP3    H150182   0.954   2.402  12.254 -1.6604  0.9093 -0.4375
 9589TIP3    H250183   0.929   2.412  12.105  0.6774 -1.4544 -1.0630
 9590TIP3   OH250184   0.072   1.213   2.998  0.2605 -0.1553  1.0328
 9590TIP3    H150185   0.095   1.281   2.935  0.7043  0.0847  1.4548
 9590TIP3    H250186   0.037   1.260   3.074  0.8053 -0.3760  1.4279
 9591TIP3   OH250187   3.884   4.431  11.183  0.4085  0.1264 -0.1785
 9591TIP3    H150188   3.799   4.440  11.139 -0.6664 -0.7004  1.6217
 9591TIP3    H250189   3.908   4.520  11.208  0.3306  0.4270 -1.1377
 9592TIP3   OH250190   4.598   5.180  16.380  0.2588  0.3329  0.4053
 9592TIP3    H150191   4.633   5.259  16.421 -1.1184  1.4323 -0.4520
 9592TIP3    H250192   4.566   5.210  16.294  1.0855 -1.4687 -0.5849
 9593TIP3   OH250193   2.714   5.851   1.295  1.1627  0.7410 -0.1480
 9593TIP3    H150194   2.718   5.940   1.331 -1.4722  0.7880  0.1992
 9593TIP3    H250195   2.625   5.821   1.314  1.8504 -1.8474 -0.6193
 9594TIP3   OH250196   0.811   4.186  10.916  0.0429  0.5440 -0.1027
 9594TIP3    H150197   0.843   4.228  10.995 -1.4660 -0.1808  0.9318
 9594TIP3    H250198   0.890   4.163  10.867  1.1484 -0.8701  2.1763
 9595TIP3   OH250199   5.919   5.252  12.863 -1.1056  0.3864  0.0077
 9595TIP3    H150200   5.836   5.287  12.896 -1.1988  1.7143 -1.5064
 9595TIP3    H250201   5.940   5.307  12.788  0.4613 -0.8010 -0.4809
 9596TIP3   OH250202   2.173   0.914   3.455  0.7224 -0.2531  0.3740
 9596TIP3    H150203   2.232   0.839   3.448  1.0165 -0.0165  0.3081
 9596TIP3    H250204   2.224   0.988   3.422  0.3055 -0.0904  0.0866
 9597TIP3   OH250205   6.440   2.999  14.630 -0.2130 -0.2831  0.2604
 9597TIP3    H150206   6.486   2.954  14.700 -0.7211  0.9317  1.4201
 9597TIP3    H250207   6.506   3.012  14.562  0.3384 -1.3063  0.5775
 9598TIP3   OH250208   4.529   4.134   4.339 -0.9502  0.6934 -0.2049
 9598TIP3    H150209   4.492   4.201   4.282 -1.1912 -0.7784 -1.8584
 9598TIP3    H250210   4.623   4.152   4.339 -1.0422  1.2022 -0.4033
 9599TIP3   OH250211   4.492   0.918  12.969 -0.3361  0.4858 -0.1922
 9599TIP3    H150212   4.576   0.886  13.001  0.8729  1.7383 -1.9856
 9599TIP3    H250213   4.468   0.856  12.900  0.2891  1.4274 -1.2760
 9600TIP3   OH250214   3.623   5.177  12.804 -0.2190  0.0426  0.1731
 9600TIP3    H150215   3.717   5.165  12.816 -0.2122 -2.1848 -1.6018
 9600TIP3    H250216   3.583   5.108  12.855 -0.6734 -1.3963 -2.0092
 9601TIP3   OH250217   0.588   5.181  16.863 -0.1853 -0.1647  0.0335
 9601TIP3    H150218   0.608   5.179  16.769 -1.1940  0.9960 -0.2356
 9601TIP3    H250219   0.582   5.275  16.883 -2.5978 -0.3829  0.6550
 9602TIP3   OH250220   4.058   5.042   0.814  0.0660 -0.0182  0.4332
 9602TIP3    H150221   4.123   4.979   0.846 -0.2221 -0.2644  0.5368
 9602TIP3    H250222   4.001   4.991   0.756  0.1791  0.2777  0.0605
 9603TIP3   OH250223   1.697   1.465  11.634  0.2138  0.1899  0.1091
 9603TIP3    H150224   1.630   1.408  11.597 -0.5857  1.1301  0.0653
 9603TIP3    H250225   1.663   1.554  11.620  0.2902  0.6160  2.3151
 9604TIP3   OH250226   2.302   2.562  15.488  0.1901 -0.6271  0.3582
 9604TIP3    H150227   2.345   2.575  15.572  0.7214 -0.6547  0.0970
 9604TIP3    H250228   2.358   2.500  15.441  0.8374  0.6672 -0.6691
 9605TIP3   OH250229   0.272   3.759   1.330  0.6828  0.4001  0.0643
 9605TIP3    H150230   0.238   3.718   1.410 -1.9064  0.8780 -0.6984
 9605TIP3    H250231   0.338   3.822   1.362 -0.7885  1.1044  1.9343
 9606TIP3   OH250232   5.716   4.447   1.498  0.3277 -0.3396  0.3444
 9606TIP3    H150233   5.804   4.411   1.488  0.3133  0.0777 -1.6513
 9606TIP3    H250234   5.658   4.373   1.481  0.2521 -0.6471  1.7912
 9607TIP3   OH250235   1.324   4.354   1.033  0.0212  0.3176  0.0016
 9607TIP3    H150236   1.386   4.400   0.976 -0.1091 -1.2033 -1.4438
 9607TIP3    H250237   1.374   4.280   1.068 -0.5578 -0.0828 -0.0020
 9608TIP3   OH250238   4.207   4.678   4.980  0.4352  0.0388 -0.2338
 9608TIP3    H150239   4.191   4.608   4.917 -2.1829 -0.2327  0.5865
 9608TIP3    H250240   4.301   4.674   4.998  0.4994 -2.7987 -0.7462
 9609TIP3   OH250241   2.628   3.609   2.980 -0.4532  0.3494 -0.0060
 9609TIP3    H150242   2.650   3.603   2.887 -0.4648  1.3431 -0.0859
 9609TIP3    H250243   2.702   3.569   3.026 -0.9607 -1.1602 -0.4811
 9610TIP3   OH250244   0.207   3.521  14.146  0.1353 -0.3802 -0.1225
 9610TIP3    H150245   0.289   3.568  14.159  0.3066 -0.5614 -0.5243
 9610TIP3    H250246   0.188   3.532  14.052  0.4085 -1.4747 -0.3199
 9611TIP3   OH250247   6.366   2.404   3.721 -0.1367  0.2020 -0.4269
 9611TIP3    H150248   6.290   2.366   3.765 -1.4052  3.8371  0.9227
 9611TIP3    H250249   6.441   2.374   3.772 -0.9415 -1.0940  0.0416
 9612TIP3   OH250250   6.617   2.253   4.719  0.1552  0.2667 -0.0821
 9612TIP3    H150251   6.679   2.221   4.654  1.7144  1.4313  0.7519
 9612TIP3    H250252   6.666   2.255   4.801 -1.6772 -0.9387  1.1446
 9613TIP3   OH250253   2.202   5.469  14.472  0.5132  0.0644 -0.7011
 9613TIP3    H150254   2.265   5.515  14.527  2.2257  0.5991 -2.9672
 9613TIP3    H250255   2.223   5.376  14.483 -1.5754 -0.2160  2.2416
 9614TIP3   OH250256   4.740   4.387   2.274 -0.1587 -0.0131  0.5485
 9614TIP3    H150257   4.708   4.429   2.354  0.2371 -1.3816  1.4629
 9614TIP3    H250258   4.766   4.460   2.217  4.4737  1.2006  3.6444
 9615TIP3   OH250259   2.864   2.078  14.971  0.4454 -0.8790  0.4877
 9615TIP3    H150260   2.927   2.148  14.988  0.3190 -0.3326 -1.1181
 9615TIP3    H250261   2.917   1.999  14.963  0.6581 -0.8622  1.6031
 9616TIP3   OH250262   1.531   0.635  12.244  0.0843 -0.2017  0.3060
 9616TIP3    H150263   1.514   0.730  12.244 -0.2815 -0.2562 -0.8695
 9616TIP3    H250264   1.505   0.607  12.332 -0.5884  0.6531  0.4015
 9617TIP3   OH250265   3.954   5.015   3.927  0.1221 -0.1446 -0.2814
 9617TIP3    H150266   4.012   4.981   3.995  0.3381  0.0516 -0.3619
 9617TIP3    H250267   3.909   4.939   3.892 -1.2118 -0.0775  1.1896
 9618TIP3   OH250268   4.574   0.767  13.688  0.1845 -0.0428  0.6867
 9618TIP3    H150269   4.519   0.718  13.627  0.3717 -0.4295  0.8243
 9618TIP3    H250270   4.513   0.805  13.751 -0.2825  2.3914 -1.0941
 9619TIP3   OH250271   5.169   1.398   3.790 -0.4466  0.2521  0.3238
 9619TIP3    H150272   5.156   1.432   3.879  1.0969  3.0618 -0.4038
 9619TIP3    H250273   5.085   1.412   3.747 -1.5477 -2.0980  1.5389
 9620TIP3   OH250274   2.442   3.680  12.301  0.5069 -0.2604 -0.7999
 9620TIP3    H150275   2.350   3.654  12.303 -0.0670  1.6408  1.0117
 9620TIP3    H250276   2.462   3.694  12.209 -0.7077 -1.6894 -1.2969
 9621TIP3   OH250277   5.742   0.598  11.600  0.4969  0.3892  0.1848
 9621TIP3    H150278   5.824   0.641  11.623  0.2077  0.4588  1.1673
 9621TIP3    H250279   5.733   0.610  11.506  1.1893  1.1142  0.2031
 9622TIP3   OH250280   6.698   6.248   1.486 -0.4996  0.6529  0.6317
 9622TIP3    H150281   6.678   6.231   1.395  1.1788 -1.2174  0.5552
 9622TIP3    H250282   6.657   6.176   1.534  0.1621  0.6174  1.1577
 9623TIP3   OH250283   3.769   3.085  10.852 -0.3169  0.4824  0.7334
 9623TIP3    H150284   3.819   3.166  10.856 -0.5465  0.6472  0.3338
 9623TIP3    H250285   3.829   3.023  10.810 -1.0772  1.1818 -1.5130
 9624TIP3   OH250286   5.944   0.719  11.909  0.0115  0.4318 -0.0974
 9624TIP3    H150287   5.900   0.798  11.880  0.6201  2.1898  3.2877
 9624TIP3    H250288   6.034   0.729  11.879 -0.1305  0.5207 -0.5032
 9625TIP3   OH250289   4.029   5.774  12.034  0.3434  0.0040 -0.0719
 9625TIP3    H150290   4.119   5.748  12.017  0.9197  0.2962  2.2627
 9625TIP3    H250291   3.981   5.692  12.039  0.8947 -0.2755  0.7503
 9626TIP3   OH250292   6.771   0.315   0.423  0.0935  0.0052 -0.2988
 9626TIP3    H150293   6.739   0.258   0.353  1.5601 -2.5441  0.9658
 9626TIP3    H250294   6.852   0.352   0.389  0.3320 -0.4992 -0.2826
 9627TIP3   OH250295   0.070   5.098   4.775  0.2337  0.2209 -0.0143
 9627TIP3    H150296   0.023   5.181   4.765 -2.2441 -0.6235  2.9997
 9627TIP3    H250297   0.016   5.033   4.731 -0.6639 -0.4931  2.0006
 9628TIP3   OH250298   4.473   5.579  17.107 -0.1554  0.4391  0.7954
 9628TIP3    H150299   4.476   5.489  17.072  0.5851  1.0123 -0.7231
 9628TIP3    H250300   4.552   5.586  17.160  1.5932  1.1367 -1.7143
 9629TIP3   OH250301   6.296   0.319   1.800  0.0107  0.2888 -0.4381
 9629TIP3    H150302   6.275   0.413   1.799 -0.7676  0.1285  0.2538
 9629TIP3    H250303   6.257   0.285   1.719 -0.2113  0.4547 -0.4014
 9630TIP3   OH250304   0.732   3.207   0.780  0.0844 -0.0193  0.3571
 9630TIP3    H150305   0.769   3.163   0.857 -1.0779  0.7321  1.4026
 9630TIP3    H250306   0.726   3.139   0.713  2.5185 -0.3456  0.3976
 9631TIP3   OH250307   3.157   4.109  14.159 -0.7195 -0.2820 -0.0538
 9631TIP3    H150308   3.093   4.043  14.131  1.6138 -2.7797  0.0643
 9631TIP3    H250309   3.168   4.093  14.252 -0.1043  0.2579 -0.0275
 9632TIP3   OH250310   5.591   1.821   2.969 -0.0914  0.9671 -0.1341
 9632TIP3    H150311   5.558   1.821   3.059 -0.2936  0.3675 -0.2010
 9632TIP3    H250312   5.536   1.756   2.924  0.1651  1.0912 -0.6302
 9633TIP3   OH250313   5.677   1.400   1.359 -0.1713  0.1298  0.3511
 9633TIP3    H150314   5.613   1.446   1.414  0.4779  0.0147  1.2291
 9633TIP3    H250315   5.732   1.469   1.322  0.5491  0.1026  1.3432
 9634TIP3   OH250316   1.964   6.118   4.604 -0.3298  0.2416 -0.4400
 9634TIP3    H150317   1.871   6.099   4.617 -0.9006  1.9289 -1.6063
 9634TIP3    H250318   1.981   6.194   4.660  0.1378  0.4245 -0.8222
 9635TIP3   OH250319   2.969   2.733   0.775 -0.5343  0.8028 -0.7280
 9635TIP3    H150320   2.990   2.715   0.866 -0.6913  2.4006 -0.3467
 9635TIP3    H250321   3.000   2.656   0.727 -1.5639 -0.6284  0.7958
 9636TIP3   OH250322   6.164   4.495  13.890  0.3043  0.1851  0.4746
 9636TIP3    H150323   6.088   4.482  13.946 -0.9329  3.3175 -0.2533
 9636TIP3    H250324   6.237   4.457  13.938 -1.1758  0.1615  2.8264
 9637TIP3   OH250325   5.800   5.521   5.036  0.1088 -0.0134  0.2453
 9637TIP3    H150326   5.770   5.566   4.958  0.1425  0.1605  0.3310
 9637TIP3    H250327   5.895   5.538   5.039  0.7407 -2.6587 -1.4192
 9638TIP3   OH250328   4.453   4.586   3.553  0.0591  0.3019 -0.3912
 9638TIP3    H150329   4.420   4.500   3.578  1.2538 -0.4270 -1.1999
 9638TIP3    H250330   4.395   4.615   3.482 -1.5256  1.0648  1.1491
 9639TIP3   OH250331   5.141   2.696  16.874 -0.0322  0.5103  0.5556
 9639TIP3    H150332   5.191   2.626  16.916  0.9235  1.4594  1.0405
 9639TIP3    H250333   5.050   2.667  16.879  0.3029 -0.4706  1.1753
 9640TIP3   OH250334   4.955   3.528   3.869  0.5443  1.2261 -0.4563
 9640TIP3    H150335   4.903   3.602   3.901  1.0583  0.6277  1.9722
 9640TIP3    H250336   4.996   3.560   3.789 -0.7615  2.8951 -0.5218
 9641TIP3   OH250337   2.771   5.149   6.199 -0.1724  0.0858 -0.0471
 9641TIP3    H150338   2.856   5.184   6.225  0.1079 -1.8076  1.9013
 9641TIP3    H250339   2.765   5.065   6.244 -3.3526  0.4235  0.3921
 9642TIP3   OH250340   5.309   3.059  15.895 -0.5827 -0.4000  0.0688
 9642TIP3    H150341   5.227   3.109  15.899  0.4596  1.9342 -3.5137
 9642TIP3    H250342   5.288   2.983  15.841 -0.1009  1.3019 -2.7319
 9643TIP3   OH250343   1.413   5.638   4.660  0.3932 -0.7239  0.1310
 9643TIP3    H150344   1.317   5.639   4.654  0.4481 -0.4993 -0.9090
 9643TIP3    H250345   1.431   5.664   4.751 -0.5300 -1.1250  0.4464
 9644TIP3   OH250346   6.251   4.067   5.537 -0.5963 -0.5791  0.1730
 9644TIP3    H150347   6.196   3.995   5.567 -1.2049 -0.6020 -0.9320
 9644TIP3    H250348   6.195   4.145   5.544 -0.0571 -0.2561  1.0338
 9645TIP3   OH250349   0.648   5.639  10.577  0.2745  0.3074  0.4120
 9645TIP3    H150350   0.694   5.710  10.621 -0.3139  0.8133  0.2366
 9645TIP3    H250351   0.713   5.600  10.519  0.0067  2.3255 -1.3721
 9646TIP3   OH250352   4.231   5.869   2.202 -0.1257  0.1454 -0.2554
 9646TIP3    H150353   4.273   5.951   2.179 -1.2226  0.6707 -0.4743
 9646TIP3    H250354   4.183   5.888   2.283 -2.0714  0.3672 -1.3753
 9647TIP3   OH250355   3.188   3.955   5.976 -0.4022 -0.1566  0.1060
 9647TIP3    H150356   3.127   4.028   5.982 -2.5404 -1.9517  1.9315
 9647TIP3    H250357   3.135   3.877   5.990  2.0178 -1.9902 -0.1663
 9648TIP3   OH250358   4.924   0.348   2.321  0.8365 -0.5183  0.0820
 9648TIP3    H150359   4.882   0.269   2.287  0.2193 -0.0056 -0.3692
 9648TIP3    H250360   4.865   0.381   2.388  0.7266 -0.0392 -0.2443
 9649TIP3   OH250361   3.982   1.721  12.679  0.0300  0.0832  0.1280
 9649TIP3    H150362   3.919   1.734  12.749  1.1179  1.1772  0.9431
 9649TIP3    H250363   4.018   1.808  12.662  1.0465 -0.4506 -0.5780
 9650TIP3   OH250364   0.384   3.398  10.434  0.3614 -0.1767  0.4864
 9650TIP3    H150365   0.313   3.398  10.499 -0.1618  0.0698 -0.0789
 9650TIP3    H250366   0.425   3.312  10.444 -0.1077 -0.3796  0.7241
 9651TIP3   OH250367   2.317   0.793  14.455 -0.1528 -0.4076  0.3242
 9651TIP3    H150368   2.393   0.802  14.397  0.0251 -1.1743  0.4279
 9651TIP3    H250369   2.347   0.826  14.539  0.6854 -2.4149  0.8612
 9652TIP3   OH250370   6.755   2.035   5.233  0.0628  0.1984 -0.0621
 9652TIP3    H150371   6.710   2.009   5.313 -0.4528 -0.1305 -0.4524
 9652TIP3    H250372   6.777   1.952   5.190  2.3376  0.2933  0.8043
 9653TIP3   OH250373   3.557   4.545   1.600 -0.4574 -0.2115  0.1690
 9653TIP3    H150374   3.614   4.577   1.670  1.0543 -1.0943 -0.6216
 9653TIP3    H250375   3.603   4.470   1.563 -1.3917  0.0082 -1.5435
 9654TIP3   OH250376   6.302   4.724   1.197  0.2217  0.3543  0.2654
 9654TIP3    H150377   6.307   4.637   1.156 -2.6935  0.0981  0.2699
 9654TIP3    H250378   6.280   4.706   1.288  0.4595  1.0956  0.4753
 9655TIP3   OH250379   3.727   5.819   4.703 -0.0467 -0.1219  0.2828
 9655TIP3    H150380   3.655   5.834   4.642  1.7201 -1.3375 -2.2871
 9655TIP3    H250381   3.779   5.899   4.700 -0.7502  0.4127  1.4619
 9656TIP3   OH250382   5.546   6.378  13.324  0.4509  0.2690  0.3314
 9656TIP3    H150383   5.470   6.424  13.289  0.0623 -0.3100  0.3818
 9656TIP3    H250384   5.542   6.394  13.419 -0.2683 -0.6817  0.4778
 9657TIP3   OH250385   2.139   3.632  12.327 -0.2688  0.3927 -0.4656
 9657TIP3    H150386   2.128   3.565  12.395 -1.1049 -0.7766 -1.6848
 9657TIP3    H250387   2.058   3.682  12.329 -0.2952  0.3553 -0.5996
 9658TIP3   OH250388   5.667   4.867  13.016  0.2181 -0.1257  0.2744
 9658TIP3    H150389   5.657   4.962  13.007 -0.8319 -0.2334  0.1484
 9658TIP3    H250390   5.678   4.835  12.926  0.5625 -0.1330  0.3159
 9659TIP3   OH250391   3.457   1.417  14.386  0.0851 -0.3707 -0.2378
 9659TIP3    H150392   3.540   1.386  14.350  0.5172  1.9960 -1.5056
 9659TIP3    H250393   3.390   1.377  14.331  0.4095 -1.3902  0.0780
 9660TIP3   OH250394   3.229   4.904  13.642 -0.0295  0.0889  0.5407
 9660TIP3    H150395   3.232   4.821  13.690  1.3932  0.4625  1.1752
 9660TIP3    H250396   3.318   4.939  13.650 -0.3211  1.1749 -0.6129
 9661TIP3   OH250397   2.161   6.313   4.434 -0.6447  0.2148 -0.1668
 9661TIP3    H150398   2.133   6.279   4.349 -0.3487  1.4900 -0.7969
 9661TIP3    H250399   2.244   6.269   4.452 -0.0325  0.9169 -1.1932
 9662TIP3   OH250400   0.230   6.541  16.463  0.1563  0.1886  0.1489
 9662TIP3    H150401   0.153   6.596  16.447  0.7302  1.0869  0.3704
 9662TIP3    H250402   0.240   6.489  16.384 -1.7231 -1.2681  0.8003
 9663TIP3   OH250403   3.388   4.984   0.984 -0.0296  0.0227  0.1461
 9663TIP3    H150404   3.338   4.906   0.962  1.1964 -0.6409 -0.3401
 9663TIP3    H250405   3.479   4.963   0.962  0.3091  1.6615 -0.2155
 9664TIP3   OH250406   3.982   4.561   2.807  0.3728 -0.1553 -0.3236
 9664TIP3    H150407   4.057   4.502   2.809  0.4262 -0.1218 -1.0347
 9664TIP3    H250408   3.929   4.534   2.882  1.0767 -0.1965  0.1654
 9665TIP3   OH250409   0.663   1.841   2.520  0.0653  0.3859  0.7042
 9665TIP3    H150410   0.739   1.807   2.473 -0.5259  0.9233 -0.6804
 9665TIP3    H250411   0.642   1.923   2.476 -2.1797 -0.4420  0.1270
 9666TIP3   OH250412   2.980   4.292  13.822  0.1654 -0.3732 -0.6922
 9666TIP3    H150413   3.025   4.350  13.884 -1.0397 -0.0370 -0.1048
 9666TIP3    H250414   3.002   4.328  13.736  2.1013 -1.0270 -0.5074
 9667TIP3   OH250415   5.415   1.631  15.263 -0.5333 -0.9427  0.1019
 9667TIP3    H150416   5.373   1.599  15.343  1.1706 -0.0999  1.3982
 9667TIP3    H250417   5.385   1.722  15.255 -0.1926 -0.8282  0.1418
 9668TIP3   OH250418   4.209   5.424  16.681  0.9761  0.2490  0.1155
 9668TIP3    H150419   4.278   5.399  16.620 -0.5486  1.8748 -2.4494
 9668TIP3    H250420   4.127   5.406  16.634 -0.2679  1.7362  1.5893
 9669TIP3   OH250421   2.273   2.732   2.201  0.2557  0.0526  0.4727
 9669TIP3    H150422   2.314   2.791   2.264  0.6133 -0.7678  1.0152
 9669TIP3    H250423   2.315   2.647   2.215  1.2353  0.1079 -1.7026
 9670TIP3   OH250424   4.459   6.383   4.959 -0.1342 -0.4559 -0.3115
 9670TIP3    H150425   4.400   6.425   5.022 -2.4849  0.2567 -2.8136
 9670TIP3    H250426   4.534   6.442   4.953 -2.4133  2.4875 -2.1953
 9671TIP3   OH250427   5.263   3.669   1.381 -0.1455  0.7605  0.1656
 9671TIP3    H150428   5.201   3.630   1.319 -1.4359  3.2759 -0.2535
 9671TIP3    H250429   5.208   3.702   1.453  0.9004  1.3604  0.7185
 9672TIP3   OH250430   4.343   1.637   4.811 -0.0286 -0.0175 -0.0546
 9672TIP3    H150431   4.427   1.676   4.833  0.7773 -0.5488 -1.9820
 9672TIP3    H250432   4.282   1.710   4.807  0.4033  0.4176  1.0036
 9673TIP3   OH250433   3.492   3.677  11.402 -0.2456 -0.0280  0.2063
 9673TIP3    H150434   3.428   3.649  11.336  0.8224  1.1104 -1.4033
 9673TIP3    H250435   3.559   3.610  11.400  0.5863  0.7867 -1.1135
 9674TIP3   OH250436   0.685   0.626   1.255 -0.1226 -0.4048 -0.1074
 9674TIP3    H150437   0.773   0.655   1.279 -0.8048  1.1183  0.7618
 9674TIP3    H250438   0.666   0.555   1.317  1.6167 -2.9974 -2.3300
 9675TIP3   OH250439   6.008   5.974   3.868  0.1895  0.1420 -0.1619
 9675TIP3    H150440   6.056   5.894   3.848 -0.1018  0.1367 -0.8838
 9675TIP3    H250441   6.038   5.999   3.955  0.4760 -0.6076 -0.0376
 9676TIP3   OH250442   3.849   3.638   2.302  0.1539  0.6858 -0.4664
 9676TIP3    H150443   3.851   3.558   2.356  0.1233  0.2359 -1.1193
 9676TIP3    H250444   3.869   3.607   2.214 -0.2106  1.3561 -0.7850
 9677TIP3   OH250445   2.021   2.319  16.815 -0.1714 -0.0615  0.3505
 9677TIP3    H150446   2.083   2.366  16.872  0.9943 -0.3866 -0.6141
 9677TIP3    H250447   2.060   2.232  16.804 -0.0044  0.2177 -1.5041
 9678TIP3   OH250448   6.749   3.039  13.646  0.1001 -0.3319 -0.4319
 9678TIP3    H150449   6.659   3.068  13.657 -0.3750 -1.7299 -0.4045
 9678TIP3    H250450   6.758   2.965  13.706  1.1458 -0.4586 -0.7204
 9679TIP3   OH250451   4.414   4.954   0.213 -0.2405  0.2727 -0.1612
 9679TIP3    H150452   4.506   4.979   0.215 -0.3003  0.5514 -0.6924
 9679TIP3    H250453   4.405   4.889   0.283  0.5069 -0.2827 -0.5759
 9680TIP3   OH250454   2.349   5.488   5.640 -0.0563 -0.9108 -0.2761
 9680TIP3    H150455   2.409   5.531   5.578 -0.2955 -0.2912 -0.0890
 9680TIP3    H250456   2.291   5.558   5.669 -0.5101 -1.3859 -0.0196
 9681TIP3   OH250457   4.611   0.502  16.052 -0.3745 -0.1164  0.6748
 9681TIP3    H150458   4.527   0.485  16.009 -0.1122  0.2083  0.0091
 9681TIP3    H250459   4.669   0.434  16.017 -0.1975  0.0536  0.6397
 9682TIP3   OH250460   3.698   1.930  11.394 -0.3071 -0.6041  0.4841
 9682TIP3    H150461   3.784   1.888  11.387  0.7354  1.4629  0.2519
 9682TIP3    H250462   3.639   1.870  11.348  1.1571 -1.6456 -0.1372
 9683TIP3   OH250463   4.184   4.667  12.236  0.1574 -0.1928 -0.2340
 9683TIP3    H150464   4.170   4.587  12.185  1.8082 -1.9307  1.8857
 9683TIP3    H250465   4.269   4.699  12.208  1.0775 -1.1598  1.3245
 9684TIP3   OH250466   5.731   4.433   0.656 -0.5317  0.4752 -0.2846
 9684TIP3    H150467   5.746   4.509   0.711  1.0845  1.9164 -2.5463
 9684TIP3    H250468   5.737   4.466   0.566  0.7555 -2.3732 -1.3785
 9685TIP3   OH250469   5.583   5.238  11.759  0.4223 -0.0813  0.0569
 9685TIP3    H150470   5.648   5.168  11.769 -0.3606 -0.6587  1.5012
 9685TIP3    H250471   5.507   5.194  11.722 -0.0767 -0.0170  0.9805
 9686TIP3   OH250472   2.512   0.567  12.114 -0.5292 -0.1680  0.0551
 9686TIP3    H150473   2.509   0.552  12.020  0.7624  0.0337 -0.0389
 9686TIP3    H250474   2.503   0.662  12.123 -1.1591 -0.2329  0.1788
 9687TIP3   OH250475   6.625   4.030   2.300  0.2247  0.2419  0.0852
 9687TIP3    H150476   6.603   4.055   2.210 -1.0122 -3.0271 -0.6867
 9687TIP3    H250477   6.698   3.968   2.290  0.2677  0.0666  1.3463
 9688TIP3   OH250478   3.142   1.443   0.823  0.0247 -0.7671  0.5860
 9688TIP3    H150479   3.118   1.353   0.845 -2.5740 -0.3095  0.0203
 9688TIP3    H250480   3.164   1.440   0.730  0.2412 -0.8834  0.6425
 9689TIP3   OH250481   2.266   5.864  12.950  0.7677 -0.1450  0.2451
 9689TIP3    H150482   2.333   5.904  12.895 -0.6589  0.5905 -1.0135
 9689TIP3    H250483   2.300   5.777  12.970  0.9567 -0.7855 -2.5710
 9690TIP3   OH250484   0.448   2.314  15.932 -0.0129  0.3821 -0.0982
 9690TIP3    H150485   0.466   2.404  15.959  0.0466  0.6248 -0.9164
 9690TIP3    H250486   0.478   2.309  15.841  0.2141 -0.5374  0.0128
 9691TIP3   OH250487   5.936   5.112  14.390  0.1948 -0.1282  0.7391
 9691TIP3    H150488   5.875   5.179  14.420  0.4668  1.1469 -1.2812
 9691TIP3    H250489   6.021   5.140  14.425 -0.1571 -1.3301  2.6822
 9692TIP3   OH250490   2.413   2.201   5.133 -0.7185  0.6637  0.4736
 9692TIP3    H150491   2.377   2.254   5.062 -0.3334  0.5877  0.2246
 9692TIP3    H250492   2.372   2.115   5.121 -0.7390  0.6816  0.4127
 9693TIP3   OH250493   1.369   2.347  11.451 -0.5260 -0.5448  0.1704
 9693TIP3    H150494   1.362   2.272  11.509 -3.6746 -0.9600 -0.5672
 9693TIP3    H250495   1.367   2.423  11.509 -0.7570 -0.9794  0.7321
 9694TIP3   OH250496   0.436   6.492   4.929  0.0876 -0.0824  0.1526
 9694TIP3    H150497   0.358   6.458   4.884  1.1783 -0.2081 -1.7436
 9694TIP3    H250498   0.454   6.428   4.998  0.0192 -1.4631 -1.0752
 9695TIP3   OH250499   1.603   2.505  11.727 -0.2573 -0.4160  0.8466
 9695TIP3    H150500   1.520   2.457  11.729  0.3337 -1.5649 -0.2925
 9695TIP3    H250501   1.625   2.520  11.818 -1.5495 -0.3665  1.1735
 9696TIP3   OH250502   2.000   4.872  13.086 -0.1715  0.2336  0.0094
 9696TIP3    H150503   1.995   4.776  13.089 -0.0671  0.2475  1.4495
 9696TIP3    H250504   1.911   4.901  13.106 -0.0955  0.4417  0.0473
 9697TIP3   OH250505   6.432   0.216  14.216 -0.3729  0.1061 -0.1751
 9697TIP3    H150506   6.394   0.188  14.133  0.8945  1.7829 -1.3776
 9697TIP3    H250507   6.501   0.153  14.233  0.1452  0.4273 -1.0331
 9698TIP3   OH250508   2.887   2.153  15.877  0.5029  0.3626 -0.7132
 9698TIP3    H150509   2.873   2.126  15.968 -2.0154  0.6869 -0.9205
 9698TIP3    H250510   2.968   2.204  15.880  0.4110  0.5039  1.3716
 9699TIP3   OH250511   1.967   6.398  15.571 -0.5055 -0.1870  0.0604
 9699TIP3    H150512   2.012   6.349  15.640  0.0260 -0.4108 -0.4362
 9699TIP3    H250513   2.010   6.484  15.572  0.7177 -0.7589 -1.1547
 9700TIP3   OH250514   2.516   1.834  14.504  0.0830  0.4798 -0.3552
 9700TIP3    H150515   2.572   1.879  14.441 -1.3396  0.0509 -2.0193
 9700TIP3    H250516   2.572   1.768  14.544  1.3316  1.5614 -0.2517
 9701TIP3   OH250517   4.212   3.610  14.618 -0.2134  0.2657  0.0026
 9701TIP3    H150518   4.191   3.703  14.610 -2.3137 -0.3001 -2.5876
 9701TIP3    H250519   4.154   3.578  14.687 -1.2805  0.5024 -0.7440
 9702TIP3   OH250520   6.750   5.899   2.958  0.1248 -0.4025  0.2880
 9702TIP3    H150521   6.752   5.983   3.005 -0.5127  0.6093 -1.3908
 9702TIP3    H250522   6.839   5.865   2.966  0.3975  0.4306  0.9850
 9703TIP3   OH250523   3.167   3.257   0.027  0.8214 -0.0397  0.5071
 9703TIP3    H150524   3.247   3.298   0.061  1.3287 -0.7253  0.1638
 9703TIP3    H250525   3.130   3.210   0.101 -0.7153  2.3789  1.4044
 9704TIP3   OH250526   2.431   4.218   4.258  0.3074  0.2156 -0.3042
 9704TIP3    H150527   2.500   4.153   4.252  2.2492  1.8119  2.4509
 9704TIP3    H250528   2.426   4.240   4.352 -1.7881  2.3952 -0.8073
 9705TIP3   OH250529   3.004   5.499   3.451 -0.3300  1.0600  0.1402
 9705TIP3    H150530   3.040   5.426   3.400 -0.6590  1.2479 -0.3684
 9705TIP3    H250531   2.966   5.458   3.528  1.9894  0.9442  1.3105
 9706TIP3   OH250532   4.406   4.382  15.070  0.4167 -0.1800 -0.1427
 9706TIP3    H150533   4.434   4.444  15.138  1.2470  0.4862 -1.0620
 9706TIP3    H250534   4.393   4.436  14.992  0.1943 -1.0379 -0.7153
 9707TIP3   OH250535   4.167   0.624   1.982 -0.4309  0.7595 -0.5583
 9707TIP3    H150536   4.235   0.681   2.017 -0.5861 -0.1308  1.3215
 9707TIP3    H250537   4.154   0.655   1.892  0.8497  2.3882 -0.2394
 9708TIP3   OH250538   4.153   6.085  11.160  0.4617 -0.0499 -0.3782
 9708TIP3    H150539   4.172   6.179  11.166 -0.6844  0.1543  0.3781
 9708TIP3    H250540   4.124   6.072  11.070 -1.0562  0.6809 -0.0275
 9709TIP3   OH250541   3.314   2.160  16.019 -0.4321  0.2036 -0.3168
 9709TIP3    H150542   3.349   2.187  16.104  0.8149 -0.6679 -0.5257
 9709TIP3    H250543   3.273   2.075  16.036 -0.5693  0.2342 -0.4935
 9710TIP3   OH250544   0.924   4.270   1.690  0.0301 -0.5069  0.1481
 9710TIP3    H150545   0.970   4.209   1.747  1.1228 -0.1567 -0.3347
 9710TIP3    H250546   0.936   4.356   1.731 -0.2171 -0.4161  0.0337
 9711TIP3   OH250547   4.366   1.562   3.375  0.4274  0.0558 -0.7646
 9711TIP3    H150548   4.446   1.586   3.421  1.0158 -0.4768 -1.4943
 9711TIP3    H250549   4.363   1.467   3.379 -0.6325  0.1062  0.0089
 9712TIP3   OH250550   3.067   6.489  16.476  0.1048 -0.3570 -0.3707
 9712TIP3    H150551   3.097   6.427  16.542  1.6468 -0.4345 -1.1052
 9712TIP3    H250552   3.113   6.464  16.396 -1.2712  0.1034 -1.3544
 9713TIP3   OH250553   4.896   4.012  13.188 -0.6642  0.6513  0.1797
 9713TIP3    H150554   4.921   4.042  13.101 -1.5049  0.5163 -0.1107
 9713TIP3    H250555   4.833   4.076  13.219 -0.9878  0.2528  0.3551
 9714TIP3   OH250556   6.314   3.482  15.262  0.0970  0.2179  0.2698
 9714TIP3    H150557   6.347   3.393  15.249 -1.0368 -0.4455  1.6504
 9714TIP3    H250558   6.226   3.481  15.225  0.6575  1.2654 -1.1780
 9715TIP3   OH250559   0.401   4.184   1.830  0.3788  0.5329  0.8947
 9715TIP3    H150560   0.350   4.265   1.844  0.5954  0.5938  1.3422
 9715TIP3    H250561   0.481   4.214   1.788  0.2936  0.5072  0.7153
 9716TIP3   OH250562   6.706   4.468   2.821  0.3345 -0.1277  0.1520
 9716TIP3    H150563   6.727   4.376   2.803  1.0050  0.3145 -1.4887
 9716TIP3    H250564   6.790   4.509   2.840  0.7108  0.9911 -3.3191
 9717TIP3   OH250565   5.510   4.066  12.342  0.1708 -0.4713  0.2431
 9717TIP3    H150566   5.545   3.990  12.387 -0.0057  0.1029  1.3979
 9717TIP3    H250567   5.509   4.135  12.409  0.5433  0.6044 -0.8280
 9718TIP3   OH250568   0.014   0.987   3.349 -0.0153  0.0445  0.3346
 9718TIP3    H150569   0.010   0.934   3.269  0.3938  0.4450  0.0445
 9718TIP3    H250570   0.042   0.926   3.417 -1.8395 -0.6692  0.5099
 9719TIP3   OH250571   5.196   1.361  11.014  0.1418  0.3355 -0.1304
 9719TIP3    H150572   5.260   1.334  10.948  2.7974 -0.5194  2.5539
 9719TIP3    H250573   5.213   1.454  11.027 -1.1859  0.7939 -1.3474
 9720TIP3   OH250574   5.124   3.536   5.279  0.2092 -0.1665 -0.6637
 9720TIP3    H150575   5.096   3.472   5.344  1.4191  0.1792  0.2447
 9720TIP3    H250576   5.220   3.536   5.286  0.2465  1.6702 -0.6778
 9721TIP3   OH250577   5.481   5.678   5.863  0.2176  0.6589  0.1735
 9721TIP3    H150578   5.388   5.690   5.878 -0.5147 -3.0714 -0.3958
 9721TIP3    H250579   5.521   5.691   5.949 -1.0758  0.4691  0.8273
 9722TIP3   OH250580   2.460   0.449   3.046 -0.4386 -0.2733  0.0102
 9722TIP3    H150581   2.419   0.370   3.011 -0.4065 -0.0776 -0.4850
 9722TIP3    H250582   2.554   0.430   3.045 -0.0798  0.8838 -3.1954
 9723TIP3   OH250583   4.795   2.976  13.737 -0.2564  0.3380  0.2550
 9723TIP3    H150584   4.812   3.011  13.824 -0.7531  1.1159  0.0478
 9723TIP3    H250585   4.728   2.909  13.750 -0.3914  0.5136  0.4568
 9724TIP3   OH250586   3.940   0.778  15.867 -0.5100 -0.4919  0.5611
 9724TIP3    H150587   3.881   0.753  15.938 -0.1156 -0.9819  0.7232
 9724TIP3    H250588   4.027   0.782  15.908 -0.1661 -1.5078 -0.0467
 9725TIP3   OH250589   5.191   2.602  14.861 -0.3048  0.6692 -0.0703
 9725TIP3    H150590   5.136   2.539  14.815 -2.0006  2.1931 -0.2197
 9725TIP3    H250591   5.205   2.672  14.798 -0.2116  1.4177  0.7630
 9726TIP3   OH250592   6.626   4.457  16.291  0.2205  0.6688  0.0927
 9726TIP3    H150593   6.582   4.528  16.338  2.3901  1.9370  0.3501
 9726TIP3    H250594   6.698   4.431  16.349 -1.4431 -3.0293  0.8473
 9727TIP3   OH250595   1.407   5.344  14.660  0.0751 -0.0797  0.3678
 9727TIP3    H150596   1.390   5.290  14.737  0.7667  0.7002  1.0981
 9727TIP3    H250597   1.363   5.299  14.588 -0.9715 -0.5882  1.2969
 9728TIP3   OH250598   3.183   2.785   4.698 -0.3856 -0.1049  0.1476
 9728TIP3    H150599   3.161   2.697   4.668  0.8698 -0.4917  0.2741
 9728TIP3    H250600   3.103   2.835   4.687 -1.0617 -1.2067 -0.1467
 9729TIP3   OH250601   2.674   4.783  15.843 -0.1585 -0.1885 -0.1013
 9729TIP3    H150602   2.628   4.722  15.901 -0.2941  0.1908  0.1876
 9729TIP3    H250603   2.616   4.858  15.835  0.0298 -0.0738 -0.4263
 9730TIP3   OH250604   3.274   4.769  14.754  0.2536 -0.8058  0.1513
 9730TIP3    H150605   3.315   4.854  14.772 -0.0831 -0.9764  1.9313
 9730TIP3    H250606   3.233   4.744  14.837 -4.5618 -0.1184 -1.7268
 9731TIP3   OH250607   0.505   3.270   2.191  0.4151  0.2895 -0.2656
 9731TIP3    H150608   0.437   3.330   2.161  0.3819 -0.0448 -0.8952
 9731TIP3    H250609   0.585   3.300   2.146  0.5345  0.2694 -0.0662
 9732TIP3   OH250610   6.079   3.846  13.124 -1.0177 -0.1395 -0.1917
 9732TIP3    H150611   6.136   3.890  13.187 -0.7420 -1.0021  0.1729
 9732TIP3    H250612   6.074   3.755  13.154 -1.3360 -0.4413 -1.0964
 9733TIP3   OH250613   6.524   1.928   2.839 -0.1602  0.1602  0.2397
 9733TIP3    H150614   6.522   1.965   2.927  1.1087 -0.1801  0.4252
 9733TIP3    H250615   6.543   1.835   2.852 -0.3039  0.0383 -0.3833
 9734TIP3   OH250616   2.419   4.400  14.995 -0.1378  0.6823 -0.1773
 9734TIP3    H150617   2.393   4.487  15.028 -1.4295  0.3519 -0.2729
 9734TIP3    H250618   2.422   4.345  15.074 -1.8280  0.2309 -0.3915
 9735TIP3   OH250619   3.763   0.342  12.679  0.1051 -0.3664  0.1650
 9735TIP3    H150620   3.815   0.377  12.751  1.2174 -0.0093 -0.7846
 9735TIP3    H250621   3.695   0.408  12.664  1.5400  0.9420 -0.9081
 9736TIP3   OH250622   4.478   3.907   6.319 -0.2156  0.1367 -0.2978
 9736TIP3    H150623   4.410   3.872   6.377 -0.3615 -0.3497 -0.7520
 9736TIP3    H250624   4.451   3.997   6.303 -0.8096 -0.0806 -0.5458
 9737TIP3   OH250625   3.953   5.430   1.836 -0.1629  0.3374  0.5226
 9737TIP3    H150626   3.984   5.508   1.790 -0.7983 -0.0968 -0.7007
 9737TIP3    H250627   3.913   5.464   1.916 -0.4475  1.2805  0.0032
 9738TIP3   OH250628   5.373   3.415  15.371 -0.2137 -0.6085  0.3959
 9738TIP3    H150629   5.466   3.433  15.364  0.1600 -2.3465  0.4830
 9738TIP3    H250630   5.350   3.370  15.290 -0.8724 -0.6722  0.6070
 9739TIP3   OH250631   1.810   2.427  12.988 -0.1624  0.0042  0.5630
 9739TIP3    H150632   1.848   2.479  12.918 -1.7172  0.3872 -0.0481
 9739TIP3    H250633   1.880   2.418  13.052  0.3567  2.3570  0.4255
 9740TIP3   OH250634   3.287   0.337   3.185  0.1672 -0.3562  0.0917
 9740TIP3    H150635   3.357   0.284   3.224 -0.4272  0.9099  3.1213
 9740TIP3    H250636   3.333   0.406   3.137  1.2007  1.1626  2.9995
 9741TIP3   OH250637   0.115   2.935   0.781 -0.0280 -0.9056 -0.0986
 9741TIP3    H150638   0.088   2.995   0.712 -1.8514 -1.3068  0.2129
 9741TIP3    H250639   0.077   2.851   0.755  0.4766 -1.3801  0.6705
 9742TIP3   OH250640   2.664   5.190   4.247 -0.4899 -0.2322  0.4273
 9742TIP3    H150641   2.719   5.208   4.170 -1.1481 -1.7481 -0.4525
 9742TIP3    H250642   2.721   5.141   4.306  0.2663  1.6302  1.3207
 9743TIP3   OH250643   4.036   6.040   6.423  0.9349 -0.2085  0.3653
 9743TIP3    H150644   4.116   6.002   6.458 -0.3104 -0.8576  2.7601
 9743TIP3    H250645   3.977   5.965   6.412  0.2845  0.3815 -0.2567
 9744TIP3   OH250646   5.513   0.488  14.986  0.1600 -0.1926 -0.0340
 9744TIP3    H150647   5.526   0.449  14.899  0.6314  0.6487 -0.3641
 9744TIP3    H250648   5.418   0.498  14.994  0.1605  0.7955 -0.9686
 9745TIP3   OH250649   3.697   0.227  13.066  0.1055  0.2321 -0.0824
 9745TIP3    H150650   3.778   0.197  13.025 -0.8004 -0.5255 -1.3864
 9745TIP3    H250651   3.711   0.321  13.079  1.4863 -0.0170  0.4660
 9746TIP3   OH250652   5.115   6.705   0.542 -0.0369  0.2683 -0.0579
 9746TIP3    H150653   5.068   6.625   0.567  1.9726 -0.6412  1.0669
 9746TIP3    H250654   5.049   6.774   0.548 -1.4648 -1.0662  0.4890
 9747TIP3   OH250655   2.206   4.577   5.018  0.1039  0.3273  0.0993
 9747TIP3    H150656   2.209   4.671   5.001 -2.2027  0.4132 -0.2415
 9747TIP3    H250657   2.135   4.566   5.081 -0.2815 -1.2447 -0.5465
 9748TIP3   OH250658   0.112   5.995   3.425 -0.3177 -0.4554 -0.2277
 9748TIP3    H150659   0.193   5.961   3.386  0.1736  0.6591 -0.2126
 9748TIP3    H250660   0.042   5.953   3.375  0.2851  0.2646 -1.7432
 9749TIP3   OH250661   3.210   0.985  15.511 -0.0269 -0.1456 -0.9616
 9749TIP3    H150662   3.300   1.018  15.515  0.2882 -1.0598 -0.0661
 9749TIP3    H250663   3.204   0.946  15.424  0.4411 -0.0526 -1.0415
 9750TIP3   OH250664   0.092   3.460  11.515 -0.2656  0.5260 -0.0605
 9750TIP3    H150665   0.089   3.492  11.424 -2.4454  2.8223  0.6916
 9750TIP3    H250666   0.136   3.531  11.563 -2.0580  0.8746  1.1354
 9751TIP3   OH250667   4.067   3.642   5.364 -0.0146  0.3625  0.9474
 9751TIP3    H150668   4.004   3.572   5.347 -1.1678  1.1260  1.9375
 9751TIP3    H250669   4.152   3.605   5.339 -1.0071 -0.0814 -2.1850
 9752TIP3   OH250670   5.362   1.833  16.987 -0.5095 -0.6240  0.0288
 9752TIP3    H150671   5.389   1.851  16.897 -0.0963 -1.4823 -0.0259
 9752TIP3    H250672   5.337   1.919  17.022  3.0492  0.4560  0.3519
 9753TIP3   OH250673   5.183   1.455  17.228  0.6146 -0.2077  0.0193
 9753TIP3    H150674   5.218   1.501  17.305  0.4872  3.5450 -1.9671
 9753TIP3    H250675   5.113   1.400  17.263 -0.5733  2.6146  2.4980
 9754TIP3   OH250676   6.317   5.930   1.484 -0.5860 -0.7248 -0.3005
 9754TIP3    H150677   6.229   5.967   1.473 -0.3886 -0.1021  0.1625
 9754TIP3    H250678   6.323   5.863   1.416 -0.9298  0.1625 -1.2436
 9755TIP3   OH250679   5.024   0.660  13.894 -0.1297 -0.3958 -0.6432
 9755TIP3    H150680   5.078   0.694  13.966  1.8403 -3.5676 -0.4593
 9755TIP3    H250681   5.063   0.697  13.815 -1.2491  1.7309 -0.2817
 9756TIP3   OH250682   0.855   0.676  12.178  0.2252  0.1629  0.3852
 9756TIP3    H150683   0.834   0.655  12.087  0.5256  2.8711 -0.4038
 9756TIP3    H250684   0.951   0.673  12.182  0.2460  0.7806  0.3986
 9757TIP3   OH250685   3.231   2.058  11.348  0.2787 -0.4896 -0.4550
 9757TIP3    H150686   3.155   2.090  11.397  0.3739 -1.8162  0.6283
 9757TIP3    H250687   3.197   2.037  11.262 -0.2722  0.2452 -0.4306
 9758TIP3   OH250688   6.072   6.596   2.427  0.5883 -0.8330  0.9666
 9758TIP3    H150689   5.978   6.582   2.414 -0.0141  1.4467  2.1668
 9758TIP3    H250690   6.101   6.637   2.345 -0.2296  1.3282  1.6786
 9759TIP3   OH250691   5.185   4.748   4.619 -0.1285  0.4151  0.2102
 9759TIP3    H150692   5.174   4.661   4.580  0.6272 -0.3709  1.6804
 9759TIP3    H250693   5.128   4.804   4.567  0.5869 -0.6213 -1.8221
 9760TIP3   OH250694   5.929   2.037   4.479  0.7025  0.4830 -0.2579
 9760TIP3    H150695   5.937   2.124   4.440  0.1859  1.6139  1.9602
 9760TIP3    H250696   6.012   2.025   4.525  1.6258 -1.1601 -2.2218
 9761TIP3   OH250697   4.868   1.752  13.959  0.2457  0.3121  0.7586
 9761TIP3    H150698   4.820   1.680  14.000  0.4119 -0.9991 -1.2130
 9761TIP3    H250699   4.940   1.710  13.913  1.2509  1.9121  0.7769
 9762TIP3   OH250700   4.151   1.107   0.942 -0.4279  0.1682  0.7764
 9762TIP3    H150701   4.221   1.171   0.931 -0.0146 -0.3995 -0.0450
 9762TIP3    H250702   4.087   1.150   0.998  0.2994  0.9248  1.0455
 9763TIP3   OH250703   5.200   3.287   0.796  0.0681 -0.0725 -0.0046
 9763TIP3    H150704   5.279   3.287   0.850  0.6449  0.9000 -0.8145
 9763TIP3    H250705   5.232   3.276   0.707 -0.7157  0.2307 -0.3311
 9764TIP3   OH250706   4.425   0.454   1.783 -0.3684  0.8449  0.3194
 9764TIP3    H150707   4.339   0.475   1.748  0.1883  0.9787 -1.0100
 9764TIP3    H250708   4.487   0.487   1.718  0.6333 -1.2972  0.1029
 9765TIP3   OH250709   3.798   0.644  16.528  0.5092  0.5696  0.0680
 9765TIP3    H150710   3.797   0.564  16.580 -3.2424 -0.2122 -0.8829
 9765TIP3    H250711   3.843   0.708  16.582 -1.4245 -0.6968  3.4937
 9766TIP3   OH250712   0.246   0.945  15.565 -0.3194  0.1324  0.1883
 9766TIP3    H150713   0.332   0.985  15.563 -0.9036  1.4164 -1.3071
 9766TIP3    H250714   0.198   0.994  15.632  0.2442 -0.9933  1.4768
 9767TIP3   OH250715   5.639   3.481  15.354 -0.3665  0.1497  0.1946
 9767TIP3    H150716   5.719   3.533  15.354 -0.8275  0.9027 -1.0172
 9767TIP3    H250717   5.642   3.432  15.272 -0.8861 -0.2281  0.3955
 9768TIP3   OH250718   4.891   6.360  12.034 -0.1354 -0.1502 -0.0516
 9768TIP3    H150719   4.857   6.271  12.040 -1.2416  0.2757  0.4588
 9768TIP3    H250720   4.865   6.401  12.117 -1.3425  1.1837 -1.0320
 9769TIP3   OH250721   5.745   6.565  11.221  0.4332  0.7718 -0.8108
 9769TIP3    H150722   5.759   6.543  11.129  1.1365  0.2265 -0.5783
 9769TIP3    H250723   5.832   6.582  11.256  0.4420 -1.1433  0.2695
 9770TIP3   OH250724   5.024   5.759   5.769 -0.0914  0.1645  0.1340
 9770TIP3    H150725   5.058   5.692   5.710  0.2379 -1.1712  1.7642
 9770TIP3    H250726   5.043   5.842   5.725 -0.4944 -0.7659 -1.9462
 9771TIP3   OH250727   2.245   3.582   0.599  0.0835 -0.1188 -0.1177
 9771TIP3    H150728   2.182   3.510   0.591 -0.1854  0.0206  0.6318
 9771TIP3    H250729   2.325   3.540   0.632 -0.1773 -0.0384  0.6479
 9772TIP3   OH250730   2.371   4.688  15.310 -0.6363  0.3102 -0.1650
 9772TIP3    H150731   2.450   4.645  15.276 -1.5570 -1.2245 -0.4229
 9772TIP3    H250732   2.405   4.765  15.356  1.0211 -0.3430 -0.2069
 9773TIP3   OH250733   6.005   6.037  12.334 -0.2075  0.4727 -0.3131
 9773TIP3    H150734   6.036   6.049  12.424  0.2916  1.3504 -0.5956
 9773TIP3    H250735   5.913   6.065  12.337  0.1110  1.5447 -0.3041
 9774TIP3   OH250736   3.215   2.507  11.790  0.2709  0.2809 -0.0321
 9774TIP3    H150737   3.169   2.426  11.811 -1.4989  0.6245 -2.1719
 9774TIP3    H250738   3.284   2.480  11.729  1.3506  0.1015  1.2252
 9775TIP3   OH250739   1.694   3.703  15.730  0.2216 -0.0960  0.2400
 9775TIP3    H150740   1.676   3.652  15.651 -0.8954  0.4784  0.1098
 9775TIP3    H250741   1.651   3.654  15.801 -0.5756  0.4869  0.1643
 9776TIP3   OH250742   2.080   0.108  12.556  0.5607 -0.2017  0.2453
 9776TIP3    H150743   2.170   0.075  12.551  0.5395 -0.2420  0.1458
 9776TIP3    H250744   2.088   0.191  12.603  1.0102  1.1628 -2.1191
 9777TIP3   OH250745   1.108   6.266   0.436  0.0992 -0.2798  0.3449
 9777TIP3    H150746   1.027   6.221   0.412  0.4950 -0.9654  0.2741
 9777TIP3    H250747   1.094   6.292   0.527 -0.0872 -0.6609  0.4279
 9778TIP3   OH250748   1.047   5.092   2.034 -0.3256 -0.2200  0.1380
 9778TIP3    H150749   0.987   5.033   1.989  0.6869  0.1116 -1.7777
 9778TIP3    H250750   1.084   5.040   2.105  0.2475 -1.8115 -1.2539
 9779TIP3   OH250751   2.601   1.255   4.424 -0.1576 -0.4889 -0.1982
 9779TIP3    H150752   2.645   1.218   4.501  0.1975 -1.2353 -0.7473
 9779TIP3    H250753   2.539   1.187   4.397  2.0474 -1.7277 -2.5430
 9780TIP3   OH250754   0.208   6.428   0.447  0.4996 -0.2506  0.0910
 9780TIP3    H150755   0.264   6.378   0.506  1.1238 -0.7443 -0.9002
 9780TIP3    H250756   0.181   6.504   0.499  1.3428 -0.4697  0.8792
 9781TIP3   OH250757   1.223   3.440  11.055  0.1029 -0.0363 -0.6273
 9781TIP3    H150758   1.216   3.526  11.014 -0.4610  0.5678  0.6978
 9781TIP3    H250759   1.161   3.386  11.006 -0.6227  0.6866 -0.5262
 9782TIP3   OH250760   3.481   4.129   0.846 -0.4578  0.0257 -0.0849
 9782TIP3    H150761   3.523   4.048   0.818  0.3454  0.2552  0.3990
 9782TIP3    H250762   3.544   4.197   0.824 -0.8575  0.4510  0.0749
 9783TIP3   OH250763   3.252   2.519  17.301  0.2676  0.2021 -0.9202
 9783TIP3    H150764   3.257   2.424  17.296 -0.8326  0.0646  0.2194
 9783TIP3    H250765   3.225   2.537  17.391 -0.6333  1.5439 -1.4339
 9784TIP3   OH250766   3.638   2.586   1.068 -0.1013 -0.2930 -0.2378
 9784TIP3    H150767   3.613   2.519   1.004  0.2656  0.2249 -0.9303
 9784TIP3    H250768   3.722   2.619   1.037 -0.0458  0.1467  0.3692
 9785TIP3   OH250769   1.056   3.496  14.191 -0.3593 -0.0637  0.3377
 9785TIP3    H150770   1.067   3.582  14.151  1.1948 -0.3810  0.0258
 9785TIP3    H250771   1.045   3.514  14.284  3.3966  0.4220  0.8456
 9786TIP3   OH250772   5.077   3.721  13.630  0.6476  0.1023 -0.0498
 9786TIP3    H150773   5.076   3.707  13.725 -1.3771  0.9237  0.1031
 9786TIP3    H250774   5.017   3.794  13.616  1.6618  0.6431 -1.8980
 9787TIP3   OH250775   2.922   2.154  10.759 -0.1565 -0.4811  0.4843
 9787TIP3    H150776   2.997   2.094  10.757 -0.0851 -0.3983  0.6328
 9787TIP3    H250777   2.961   2.241  10.759 -0.2821 -0.4094 -0.7296
 9788TIP3   OH250778   3.902   2.206  10.892 -0.0364 -0.8555  0.1519
 9788TIP3    H150779   3.994   2.218  10.869 -0.3063 -0.4705 -0.7593
 9788TIP3    H250780   3.862   2.171  10.813 -0.9839  0.4953 -0.0028
 9789TIP3   OH250781   6.727   4.517   2.173 -0.0343  0.2793 -0.1974
 9789TIP3    H150782   6.678   4.485   2.249  0.7624 -0.4288  0.0388
 9789TIP3    H250783   6.711   4.612   2.172  0.4825  0.4001  1.2581
 9790TIP3   OH250784   6.472   4.945   1.602 -0.1956 -0.3408  0.4901
 9790TIP3    H150785   6.488   4.980   1.515 -3.4564 -0.3315 -0.2473
 9790TIP3    H250786   6.434   5.018   1.651 -2.3342 -1.4101  0.5259
 9791TIP3   OH250787   0.050   2.401  14.038  0.2111 -0.3795  0.0079
 9791TIP3    H150788   0.027   2.346  13.963 -1.2076 -1.8717  1.4321
 9791TIP3    H250789   0.125   2.357  14.078 -1.4383 -1.9450  1.6373
 9792TIP3   OH250790   3.867   3.346  12.567  0.0528  0.1118  0.4403
 9792TIP3    H150791   3.925   3.390  12.630  2.3846 -0.2849 -1.3138
 9792TIP3    H250792   3.859   3.257  12.600  1.9385 -0.3243 -0.1817
 9793TIP3   OH250793   2.344   0.425  10.983  0.5848  0.0210  0.2228
 9793TIP3    H150794   2.359   0.503  11.037  1.0332  0.4162 -0.4470
 9793TIP3    H250795   2.276   0.376  11.029  0.9826  0.3234  1.1580
 9794TIP3   OH250796   5.094   5.539   1.303 -0.3216  0.3430 -0.5000
 9794TIP3    H150797   5.059   5.451   1.310  0.0170  0.2667  0.2955
 9794TIP3    H250798   5.148   5.550   1.381  0.2205  0.9918 -0.9521
 9795TIP3   OH250799   3.028   5.479   1.770 -0.4583  0.6440  0.0105
 9795TIP3    H150800   2.983   5.427   1.836  0.4936 -0.7412 -0.3867
 9795TIP3    H250801   2.959   5.507   1.710 -0.8781 -0.9887 -0.2895
 9796TIP3   OH250802   2.118   1.617  12.236 -0.5360  0.2213 -0.1297
 9796TIP3    H150803   2.133   1.527  12.207 -1.4910 -0.4146  1.2597
 9796TIP3    H250804   2.122   1.612  12.332 -0.3727  1.7118 -0.0383
 9797TIP3   OH250805   6.669   2.560  15.486 -0.0719  0.5180 -0.3746
 9797TIP3    H150806   6.583   2.530  15.515  0.5061 -1.1669 -0.2784
 9797TIP3    H250807   6.731   2.517  15.545  1.0268 -1.4827 -2.7419
 9798TIP3   OH250808   1.701   3.142  11.734  0.1765  0.1227  0.4770
 9798TIP3    H150809   1.673   3.121  11.823 -0.3726 -0.1358  0.2550
 9798TIP3    H250810   1.656   3.224  11.713 -4.4588 -2.5095 -1.5489
 9799TIP3   OH250811   0.744   0.604   2.051 -0.0622 -0.1662  0.1934
 9799TIP3    H150812   0.816   0.592   1.988  0.5125  1.7386  0.4283
 9799TIP3    H250813   0.666   0.576   2.004  0.6443 -0.9382 -0.5581
 9800TIP3   OH250814   4.353   3.137   5.890  0.0754 -0.1744 -0.2980
 9800TIP3    H150815   4.347   3.221   5.937 -0.8664 -0.3233 -0.1295
 9800TIP3    H250816   4.354   3.071   5.959 -0.1989 -0.3422 -0.4523
 9801TIP3   OH250817   5.726   3.278  14.826  0.0564  0.3644  0.3223
 9801TIP3    H150818   5.656   3.226  14.788 -0.1140  0.0041  1.1139
 9801TIP3    H250819   5.681   3.344  14.879  0.2686  1.3005 -0.6122
 9802TIP3   OH250820   2.774   1.162   0.711 -0.0828  0.1051 -0.6398
 9802TIP3    H150821   2.774   1.176   0.617 -1.6260 -0.3419 -0.7285
 9802TIP3    H250822   2.706   1.096   0.726  0.2896 -0.0043  0.7636
 9803TIP3   OH250823   5.722   0.626  11.321 -0.0030 -0.1251 -0.3752
 9803TIP3    H150824   5.670   0.704  11.341  0.2120 -0.1430  0.2855
 9803TIP3    H250825   5.678   0.587  11.246 -1.8210 -0.8902  0.9809
 9804TIP3   OH250826   3.612   0.032  16.730 -0.2214  0.9897 -0.3269
 9804TIP3    H150827   3.562   0.061  16.654 -0.8154  2.4859  0.5857
 9804TIP3    H250828   3.557   0.053  16.805  1.6503  2.5776  0.7083
 9805TIP3   OH250829   0.416   6.568  12.739 -0.0291  0.2529 -0.3104
 9805TIP3    H150830   0.406   6.483  12.783  0.1197 -0.2451 -1.2041
 9805TIP3    H250831   0.479   6.551  12.668 -1.1193  0.7270 -1.4446
 9806TIP3   OH250832   4.886   6.402   1.612 -0.0361 -0.0328 -0.6478
 9806TIP3    H150833   4.899   6.479   1.556  0.6553  0.4307  0.1341
 9806TIP3    H250834   4.943   6.417   1.687  1.0404 -1.8498 -1.0249
 9807TIP3   OH250835   2.097   6.615   4.764 -0.6566 -0.5474 -0.1489
 9807TIP3    H150836   2.177   6.655   4.797 -2.2328  0.6096  2.6079
 9807TIP3    H250837   2.126   6.536   4.719  2.0002 -0.1971  0.8021
 9808TIP3   OH250838   4.462   5.930  14.218 -0.4035  0.0063 -0.1056
 9808TIP3    H150839   4.535   5.890  14.265 -0.6912 -1.2752 -0.7048
 9808TIP3    H250840   4.398   5.860  14.209 -1.4892  0.9685 -0.0570
 9809TIP3   OH250841   6.554   0.379   6.404  0.2126  0.9512 -0.7205
 9809TIP3    H150842   6.621   0.312   6.412 -3.0107 -2.3475  2.4714
 9809TIP3    H250843   6.568   0.436   6.480 -0.7796 -0.0298  0.2259
 9810TIP3   OH250844   3.754   6.602   1.350  0.5838  0.4152 -0.5570
 9810TIP3    H150845   3.688   6.566   1.409 -1.0380  1.8945 -1.3895
 9810TIP3    H250846   3.762   6.536   1.281 -0.4848  0.4737 -0.7543
 9811TIP3   OH250847   6.435   5.360   2.546  0.8192  0.5006  0.1730
 9811TIP3    H150848   6.416   5.396   2.633 -0.1715  2.4460 -0.7777
 9811TIP3    H250849   6.350   5.338   2.510  1.0530  1.2499 -0.9010
 9812TIP3   OH250850   6.739   2.107  11.643  0.1243 -0.7058 -0.0867
 9812TIP3    H150851   6.660   2.060  11.618 -0.0986 -1.9142  2.5969
 9812TIP3    H250852   6.732   2.191  11.599 -1.3085 -1.7767 -2.0383
 9813TIP3   OH250853   6.760   5.261   4.143  0.4359  0.3256  0.5561
 9813TIP3    H150854   6.813   5.186   4.115 -0.8104  0.0808 -1.3606
 9813TIP3    H250855   6.816   5.337   4.130  1.4730 -0.1634  1.8609
 9814TIP3   OH250856   3.422   0.671   4.475  0.2121 -0.1377 -0.3415
 9814TIP3    H150857   3.487   0.688   4.406  2.4076 -1.9801  1.1491
 9814TIP3    H250858   3.467   0.694   4.556  0.0385 -3.7847  0.9578
 9815TIP3   OH250859   5.832   2.013  10.902 -0.3824  0.6355  0.3204
 9815TIP3    H150860   5.743   2.038  10.924 -1.6462 -1.1488 -2.3307
 9815TIP3    H250861   5.878   2.096  10.889 -2.0165  1.5742  0.3196
 9816TIP3   OH250862   3.614   4.919   5.814  0.2239  0.0670 -0.3990
 9816TIP3    H150863   3.645   4.981   5.748  1.7897 -1.2283 -0.9510
 9816TIP3    H250864   3.645   4.955   5.897  0.9840  0.1067 -0.6965
 9817TIP3   OH250865   5.925   2.459   0.775  0.1513 -0.5566 -0.2329
 9817TIP3    H150866   6.000   2.408   0.744  1.2324  0.4417  0.6389
 9817TIP3    H250867   5.939   2.547   0.739 -0.5174 -0.3159  0.0745
 9818TIP3   OH250868   3.498   5.172   4.391  0.3668 -0.6753  0.0937
 9818TIP3    H150869   3.478   5.103   4.328  2.1191  0.2559 -1.5946
 9818TIP3    H250870   3.594   5.172   4.397  0.3725  1.1014  0.6089
 9819TIP3   OH250871   2.749   4.840   0.518  0.3701 -0.2332  0.1102
 9819TIP3    H150872   2.800   4.921   0.509 -0.8015  0.6720  1.3811
 9819TIP3    H250873   2.684   4.859   0.585 -0.6246 -1.8974 -0.3268
 9820TIP3   OH250874   6.594   3.729   5.986 -0.0191  0.2460 -0.4449
 9820TIP3    H150875   6.558   3.681   5.911 -0.9051 -0.0193  0.1324
 9820TIP3    H250876   6.686   3.705   5.989 -0.2106 -0.5448 -0.8290
 9821TIP3   OH250877   0.889   1.082   4.079 -0.4203  0.4983  0.3375
 9821TIP3    H150878   0.931   1.148   4.135  1.4498  0.8118 -1.3188
 9821TIP3    H250879   0.942   1.003   4.091 -1.3572 -0.0849  0.6859
 9822TIP3   OH250880   6.414   4.138   6.157  0.3912  0.2061 -0.6013
 9822TIP3    H150881   6.467   4.217   6.144 -0.5469  1.0346  0.4787
 9822TIP3    H250882   6.326   4.170   6.176 -0.3228 -1.1325 -1.4510
 9823TIP3   OH250883   4.178   1.576  16.624  0.1248 -0.2878  0.1174
 9823TIP3    H150884   4.149   1.663  16.594  1.0796 -0.9189 -2.8964
 9823TIP3    H250885   4.117   1.555  16.695 -0.0140  2.9030  1.1284
 9824TIP3   OH250886   1.368   5.058   3.273  0.0898 -0.7582  0.3506
 9824TIP3    H150887   1.308   5.103   3.332 -0.3660  1.9002 -1.9407
 9824TIP3    H250888   1.448   5.111   3.273  0.9689 -2.0236  0.3359
 9825TIP3   OH250889   2.798   1.176  12.383  0.2876 -0.0184 -0.4809
 9825TIP3    H150890   2.763   1.096  12.424 -0.2314 -0.1503 -1.1674
 9825TIP3    H250891   2.893   1.166  12.390  0.2331 -0.7528 -0.6612
 9826TIP3   OH250892   5.620   3.512  14.953  0.2215 -0.1926 -0.0386
 9826TIP3    H150893   5.571   3.571  14.896  0.0347 -0.0321  0.2847
 9826TIP3    H250894   5.704   3.556  14.967 -0.0956  0.2245  0.5833
 9827TIP3   OH250895   1.766   0.124  16.838 -0.7261 -0.7335  0.2607
 9827TIP3    H150896   1.850   0.164  16.818 -0.8980 -0.0962  0.7948
 9827TIP3    H250897   1.720   0.122  16.754 -0.1538 -1.1614 -0.0480
 9828TIP3   OH250898   5.856   6.616  14.923  0.0044  0.3716 -0.1082
 9828TIP3    H150899   5.908   6.676  14.977 -0.6711 -0.1279  1.1137
 9828TIP3    H250900   5.843   6.539  14.978  0.2723 -0.6344 -1.4081
 9829TIP3   OH250901   6.099   4.683   4.802 -0.0149 -0.2286  0.0928
 9829TIP3    H150902   6.113   4.709   4.893  2.2531 -2.1311  0.3693
 9829TIP3    H250903   6.134   4.757   4.751 -1.0999  0.7542  0.7179
 9830TIP3   OH250904   6.143   0.766   0.604  0.1042 -0.8116 -0.2038
 9830TIP3    H150905   6.199   0.754   0.680  1.7206  1.6972 -0.8744
 9830TIP3    H250906   6.105   0.680   0.587  1.0590 -1.8066  2.3563
 9831TIP3   OH250907   1.395   0.330  12.420 -0.2847 -0.0923  0.1549
 9831TIP3    H150908   1.436   0.392  12.481 -0.2683  0.4940 -0.4401
 9831TIP3    H250909   1.346   0.270  12.477 -0.5796  0.6694  0.7381
 9832TIP3   OH250910   2.224   0.942  16.927 -0.0033  0.0754  0.2930
 9832TIP3    H150911   2.157   1.010  16.932  0.3722  0.6057 -1.3105
 9832TIP3    H250912   2.179   0.862  16.956 -0.8950  0.7011  0.6745
 9833TIP3   OH250913   0.257   4.530   1.527 -0.0009  0.3719 -0.4300
 9833TIP3    H150914   0.245   4.455   1.585  0.6731  0.1882 -0.5066
 9833TIP3    H250915   0.192   4.518   1.458 -1.1120  0.8311  0.5043
 9834TIP3   OH250916   6.691   6.691  16.114  0.0040  0.1765 -0.2512
 9834TIP3    H150917   6.624   6.738  16.066 -0.7483 -0.4259  0.1888
 9834TIP3    H250918   6.766   6.750  16.114 -0.3672  0.6741 -1.1334
 9835TIP3   OH250919   4.749   0.647   3.759  0.0953  0.4276 -0.1806
 9835TIP3    H150920   4.789   0.621   3.841  0.5724 -0.4879 -0.6804
 9835TIP3    H250921   4.812   0.707   3.719 -0.8398  2.1467  0.8053
 9836TIP3   OH250922   4.233   1.746   3.203  0.1710  0.2620  0.2044
 9836TIP3    H150923   4.147   1.704   3.214  0.1925  0.7343  2.9499
 9836TIP3    H250924   4.292   1.694   3.258  0.9914  1.7234  0.7594
 9837TIP3   OH250925   2.714   0.193   2.956 -0.4537 -0.0022  0.1389
 9837TIP3    H150926   2.644   0.173   2.893  0.0461  1.4269 -0.9324
 9837TIP3    H250927   2.749   0.108   2.981  0.3653 -0.6075 -2.7502
 9838TIP3   OH250928   5.288   3.582   4.894 -0.0489 -0.0673  0.5346
 9838TIP3    H150929   5.224   3.647   4.923  0.9030 -0.0234  2.7525
 9838TIP3    H250930   5.356   3.583   4.962  1.6299 -1.0776 -1.0209
 9839TIP3   OH250931   5.848   2.954   5.552 -0.2700 -0.0443 -0.1335
 9839TIP3    H150932   5.839   2.859   5.558  0.6080 -0.0803  1.1534
 9839TIP3    H250933   5.798   2.988   5.626 -0.2284  0.4651 -0.3320
 9840TIP3   OH250934   5.936   5.760  11.970 -0.4211  0.5686  0.3003
 9840TIP3    H150935   6.012   5.707  11.993  0.2549  2.0218  1.6285
 9840TIP3    H250936   5.930   5.754  11.875  0.7926 -0.3077  0.2558
 9841TIP3   OH250937   0.343   4.050   6.107  0.1538 -0.1414 -0.7868
 9841TIP3    H150938   0.361   4.033   6.199 -0.2113 -0.1218 -0.7100
 9841TIP3    H250939   0.406   3.994   6.060 -0.4413 -1.0531 -0.5306
 9842TIP3   OH250940   3.778   5.052  10.458  0.3774 -0.5308 -0.6646
 9842TIP3    H150941   3.699   5.015  10.420 -1.0200  0.2772  1.2849
 9842TIP3    H250942   3.783   5.140  10.422 -0.4173 -0.0991  0.2318
 9843TIP3   OH250943   4.685   4.935  11.090  0.2292  0.5174 -0.0075
 9843TIP3    H150944   4.657   5.008  11.146 -1.4012 -0.9670  1.2320
 9843TIP3    H250945   4.623   4.934  11.018  0.1112  0.2248  0.0975
 9844TIP3   OH250946   6.661   3.922  14.570  0.6385  0.0566  0.8337
 9844TIP3    H150947   6.709   3.952  14.493 -0.5742 -0.9152 -0.3382
 9844TIP3    H250948   6.602   3.994  14.591 -0.4774 -0.4450 -0.4330
 9845TIP3   OH250949   5.450   0.383   3.580 -0.2294 -0.2759 -0.3512
 9845TIP3    H150950   5.503   0.368   3.501  1.2638 -1.3190  0.7786
 9845TIP3    H250951   5.459   0.477   3.597  1.3352 -0.4212 -0.1939
 9846TIP3   OH250952   4.951   3.321   5.891  0.0082 -0.4779 -0.6228
 9846TIP3    H150953   4.887   3.250   5.890  1.2330 -1.7382  1.9680
 9846TIP3    H250954   4.901   3.399   5.916 -0.7396 -1.1408 -0.0292
 9847TIP3   OH250955   1.543   5.379   1.257 -1.0274  0.3999 -0.0190
 9847TIP3    H150956   1.514   5.331   1.335 -0.1252  0.5722  0.4468
 9847TIP3    H250957   1.598   5.316   1.210  0.2277  0.9772  0.6377
 9848TIP3   OH250958   4.562   3.094   3.764 -0.6007 -0.2523  0.2230
 9848TIP3    H150959   4.642   3.148   3.766  0.5589 -1.9285  1.1619
 9848TIP3    H250960   4.545   3.081   3.671  0.7306 -0.5749  0.0039
 9849TIP3   OH250961   2.205   0.615  14.287  0.4056  0.1125  0.9588
 9849TIP3    H150962   2.236   0.696  14.328 -1.7415  0.8951  1.1658
 9849TIP3    H250963   2.110   0.617  14.299 -0.4191  0.2711 -3.7639
 9850TIP3   OH250964   5.976   3.404   3.501  0.4780  0.2185 -0.2962
 9850TIP3    H150965   5.942   3.374   3.585  0.0704  0.2617 -0.4442
 9850TIP3    H250966   5.945   3.494   3.493 -0.3412 -0.1099 -0.9492
 9851TIP3   OH250967   3.891   5.991   0.571 -0.1635  0.5413 -0.0701
 9851TIP3    H150968   3.858   6.050   0.504  0.4081  1.9979  0.8988
 9851TIP3    H250969   3.986   5.992   0.561 -0.1686 -2.2376 -1.6637
 9852TIP3   OH250970   4.625   5.922  16.651 -0.4057  0.0764 -0.0116
 9852TIP3    H150971   4.599   5.968  16.571 -0.8386 -0.5292 -0.2276
 9852TIP3    H250972   4.713   5.888  16.631  0.1116  1.1738  0.3136
 9853TIP3   OH250973   3.974   4.446   2.064  0.0384 -0.2937  0.1048
 9853TIP3    H150974   4.008   4.407   2.145  1.7079  1.6871  0.4617
 9853TIP3    H250975   3.918   4.518   2.094  1.2033  0.8810 -0.4526
 9854TIP3   OH250976   6.626   4.009   6.797 -0.0640  0.8093  0.2887
 9854TIP3    H150977   6.686   4.057   6.740 -1.7389  2.2332 -0.3449
 9854TIP3    H250978   6.679   3.987   6.874  1.7957  0.2424 -1.0926
 9855TIP3   OH250979   6.756   6.036   4.516 -0.0491  0.1494  0.2745
 9855TIP3    H150980   6.779   6.040   4.424 -0.5118  1.5070  0.2018
 9855TIP3    H250981   6.814   5.969   4.552 -0.9518 -1.5784 -1.2906
 9856TIP3   OH250982   6.304   2.031   2.347 -0.1203 -0.1138  0.0972
 9856TIP3    H150983   6.390   2.017   2.307 -0.5899 -0.4765 -0.8242
 9856TIP3    H250984   6.265   1.944   2.349  0.3176 -0.3278  2.4485
 9857TIP3   OH250985   5.393   2.784  13.511  0.2214 -0.6823 -0.0819
 9857TIP3    H150986   5.394   2.715  13.577 -0.4137  0.0332  0.7003
 9857TIP3    H250987   5.304   2.783  13.475 -0.4907  1.0853  1.4549
 9858TIP3   OH250988   5.845   3.246  13.283  0.4123 -0.1294  0.8495
 9858TIP3    H150989   5.773   3.295  13.242  1.0893  0.2774  0.1115
 9858TIP3    H250990   5.804   3.198  13.354 -1.0153 -1.6577 -0.9066
 9859TIP3   OH250991   2.316   1.678  14.762 -0.0900 -0.0772 -0.4979
 9859TIP3    H150992   2.266   1.672  14.681 -1.3356  1.2949  0.1195
 9859TIP3    H250993   2.317   1.588  14.796 -0.7579 -0.4111 -1.3250
 9860TIP3   OH250994   6.652   5.902   3.317 -0.5997  0.1129 -0.4482
 9860TIP3    H150995   6.652   5.822   3.264 -2.3787  0.3000 -0.7761
 9860TIP3    H250996   6.654   5.870   3.407  0.3266 -0.2460 -0.5792
 9861TIP3   OH250997   4.896   2.136   1.129  0.7815  0.6556 -0.0426
 9861TIP3    H150998   4.893   2.044   1.155 -0.0725  0.3253 -1.1834
 9861TIP3    H250999   4.874   2.134   1.035  0.9209  2.0100 -0.1182
 9862TIP3   OH251000   1.158   0.689   5.296 -0.3011  0.0637 -0.5086
 9862TIP3    H151001   1.130   0.740   5.220 -0.6678  0.1824 -0.2943
 9862TIP3    H251002   1.173   0.601   5.262  0.9887  0.4545 -1.0240
 9863TIP3   OH251003   5.570   4.804   5.665 -0.3640 -0.0970 -0.6325
 9863TIP3    H151004   5.586   4.888   5.622 -0.4816 -0.3089 -1.0945
 9863TIP3    H251005   5.475   4.795   5.667 -0.5570  1.2691  2.3291
 9864TIP3   OH251006   2.185   4.947   4.439 -0.2291 -0.0078  0.2006
 9864TIP3    H151007   2.274   4.973   4.462 -0.1822  0.1358 -0.1399
 9864TIP3    H251008   2.129   4.996   4.500 -0.0231 -1.1262  1.3376
 9865TIP3   OH251009   2.043   4.779  11.841  0.5591  0.7860  0.3238
 9865TIP3    H151010   2.065   4.713  11.906 -1.3641  0.8577  1.1244
 9865TIP3    H251011   2.098   4.854  11.861  0.5110  0.5358  1.4194
 9866TIP3   OH251012   1.016   4.794  15.207 -0.2234  0.4314  0.1438
 9866TIP3    H151013   0.956   4.810  15.134 -0.2753 -1.0842 -0.1848
 9866TIP3    H251014   0.960   4.795  15.285 -0.6408 -0.6060 -0.1259
 9867TIP3   OH251015   4.246   1.093  16.364  0.3632 -0.0068 -0.3148
 9867TIP3    H151016   4.240   1.167  16.305  0.4090  0.9226  0.8167
 9867TIP3    H251017   4.308   1.033  16.322 -0.1635  0.2818 -1.5460
 9868TIP3   OH251018   3.592   4.220   3.096 -0.2085  0.7205 -0.3141
 9868TIP3    H151019   3.622   4.146   3.148  0.7196  0.8019 -0.7326
 9868TIP3    H251020   3.623   4.203   3.007  0.0637  1.6222 -0.4067
 9869TIP3   OH251021   3.410   5.068   3.521 -0.1378 -0.3108  0.0974
 9869TIP3    H151022   3.425   4.976   3.543 -0.1995 -0.8056 -1.7596
 9869TIP3    H251023   3.315   5.077   3.521 -0.1297 -0.2111  0.3780
 9870TIP3   OH251024   2.166   6.036  11.238 -0.0784  0.0888  0.5144
 9870TIP3    H151025   2.159   6.086  11.320 -1.6549  0.3558  0.2512
 9870TIP3    H251026   2.083   5.989  11.232  0.9408 -1.7549  0.2122
 9871TIP3   OH251027   2.948   6.760  11.409 -0.1295  0.4986  0.1702
 9871TIP3    H151028   2.947   6.668  11.437  0.5302  0.1575 -0.8767
 9871TIP3    H251029   2.928   6.757  11.315 -0.3735  1.4546  0.1788
 9872TIP3   OH251030   3.966   5.412  15.206 -0.4307 -0.0878  0.6869
 9872TIP3    H151031   4.028   5.376  15.141  0.8383  0.2699  1.6497
 9872TIP3    H251032   3.905   5.464  15.154  0.9701  0.7770 -0.1823
 9873TIP3   OH251033   3.259   3.882  14.003 -0.0710  0.2306  0.2431
 9873TIP3    H151034   3.217   3.968  14.014 -0.8843 -0.1851  0.4401
 9873TIP3    H251035   3.233   3.832  14.080 -1.5046 -0.9578 -0.9547
 9874TIP3   OH251036   1.112   1.745   5.950  0.0997 -0.3170 -0.7713
 9874TIP3    H151037   1.116   1.705   5.863 -1.0230  0.1890 -1.0755
 9874TIP3    H251038   1.136   1.837   5.935 -0.4439 -0.1426 -0.6287
 9875TIP3   OH251039   4.295   3.942  15.176  0.3253  0.6058 -0.1572
 9875TIP3    H151040   4.374   3.891  15.193 -0.3620 -0.3553  0.3220
 9875TIP3    H251041   4.286   3.942  15.081 -0.4859 -1.5433 -0.1257
 9876TIP3   OH251042   0.775   2.805  16.079  0.3989 -0.1153  0.1690
 9876TIP3    H151043   0.723   2.787  16.001 -0.0761 -1.3979  0.7488
 9876TIP3    H251044   0.853   2.751  16.070  0.2631 -0.4013  0.6488
 9877TIP3   OH251045   2.684   4.223   2.222 -0.6897  0.2498  0.0827
 9877TIP3    H151046   2.656   4.312   2.200 -0.8893 -0.1238 -1.2545
 9877TIP3    H251047   2.766   4.211   2.173 -1.7091 -0.9910 -1.3989
 9878TIP3   OH251048   1.129   1.803  13.658 -0.1665 -0.1765  0.0051
 9878TIP3    H151049   1.155   1.895  13.658 -0.0697 -0.1635 -1.7892
 9878TIP3    H251050   1.085   1.790  13.742 -0.8833  1.7105 -0.0307
 9879TIP3   OH251051   0.643   1.280  13.350  0.4643  0.0135  0.5434
 9879TIP3    H151052   0.615   1.362  13.309 -1.7392 -1.1488 -0.4600
 9879TIP3    H251053   0.590   1.274  13.430 -0.4888 -1.0826 -0.1415
 9880TIP3   OH251054   6.617   0.036   3.683  0.0757 -0.1324 -0.2577
 9880TIP3    H151055   6.613   0.012   3.591 -0.1182 -2.7900  0.3723
 9880TIP3    H251056   6.526   0.045   3.710  0.0894 -0.5474 -0.0616
 9881TIP3   OH251057   1.983   2.906   4.223 -0.4237  0.4154  0.3447
 9881TIP3    H151058   2.049   2.843   4.249  2.6384  1.5249 -3.8184
 9881TIP3    H251059   1.902   2.855   4.217  0.6405 -1.7255  2.5150
 9882TIP3   OH251060   3.605   5.056  15.291 -0.0924 -0.4290  0.5052
 9882TIP3    H151061   3.539   5.088  15.352  0.9731 -1.0733  2.0659
 9882TIP3    H251062   3.566   4.978  15.252 -0.7083 -0.1292  0.5107
 9883TIP3   OH251063   3.243   1.854   1.935 -0.0220 -0.0168 -0.1191
 9883TIP3    H151064   3.185   1.823   2.005  0.9838  0.2141  0.8466
 9883TIP3    H251065   3.185   1.903   1.877 -1.2008 -1.6534 -0.3947
 9884TIP3   OH251066   0.382   4.043   6.420 -0.3273 -0.3547  0.9275
 9884TIP3    H151067   0.367   3.995   6.501  0.4969  0.2573  1.4529
 9884TIP3    H251068   0.463   4.091   6.435 -0.4044  0.1194 -0.0959
 9885TIP3   OH251069   1.894   6.132   1.472  0.3130  0.0386 -0.0944
 9885TIP3    H151070   1.878   6.048   1.430 -1.2376  0.2082  0.1090
 9885TIP3    H251071   1.989   6.136   1.482  0.3907 -1.8910  0.3240
 9886TIP3   OH251072   1.059   1.254   3.625  0.0128  0.7041  0.1286
 9886TIP3    H151073   0.985   1.218   3.674 -0.0180 -0.5051 -0.7733
 9886TIP3    H251074   1.019   1.313   3.561  0.0945  2.8486  1.9305
 9887TIP3   OH251075   6.460   5.052  11.894  0.0915  0.5315  0.1166
 9887TIP3    H151076   6.419   5.133  11.923  0.4439  0.0979  1.9496
 9887TIP3    H251077   6.449   5.052  11.799 -1.8113  1.6688  0.2963
 9888TIP3   OH251078   5.886   1.656   5.513  0.1647  0.0718 -0.2572
 9888TIP3    H151079   5.852   1.736   5.472 -0.0340 -0.4992 -1.2311
 9888TIP3    H251080   5.844   1.653   5.599  0.1495  0.9897 -0.2220
 9889TIP3   OH251081   2.156   6.511  13.809 -0.4310 -0.2258 -0.0635
 9889TIP3    H151082   2.188   6.596  13.837  0.0784  0.0737 -1.4683
 9889TIP3    H251083   2.062   6.513  13.829 -0.0279 -0.2367  1.9984
 9890TIP3   OH251084   3.960   1.560   2.850  0.2548 -0.2443 -0.6739
 9890TIP3    H151085   3.927   1.558   2.940  1.4233 -0.9221 -0.2278
 9890TIP3    H251086   3.910   1.493   2.804  0.3193 -0.5816 -0.2644
 9891TIP3   OH251087   4.230   6.323   3.322 -0.5443  0.0737 -0.5458
 9891TIP3    H151088   4.234   6.418   3.321 -0.4302  0.0685 -0.5813
 9891TIP3    H251089   4.137   6.303   3.332 -0.5768  0.1881 -0.6171
 9892TIP3   OH251090   2.448   5.312  14.730  0.3364  0.1656 -0.1764
 9892TIP3    H151091   2.520   5.300  14.792  0.5369  0.8085 -0.2771
 9892TIP3    H251092   2.447   5.232  14.678  0.3343 -0.2654  0.4847
 9893TIP3   OH251093   4.565   1.230   0.735  0.1369 -0.9146  0.2503
 9893TIP3    H151094   4.490   1.172   0.743 -1.2718  0.6656 -0.8800
 9893TIP3    H251095   4.627   1.182   0.681 -0.9350 -1.4426 -0.5419
 9894TIP3   OH251096   3.164   5.159   5.530  0.0907  0.0622 -0.0327
 9894TIP3    H151097   3.173   5.072   5.569 -0.3746 -0.1775 -0.4415
 9894TIP3    H251098   3.214   5.153   5.449 -0.3757  0.0001 -0.3227
 9895TIP3   OH251099   4.191   0.342   6.796 -0.8667  0.1411 -0.3433
 9895TIP3    H151100   4.140   0.421   6.777 -2.1934 -0.6704 -0.2787
 9895TIP3    H251101   4.223   0.354   6.885 -0.6700  0.7885 -0.4935
 9896TIP3   OH251102   4.533   5.956  12.269 -0.6335 -0.5245  0.5318
 9896TIP3    H151103   4.594   5.983  12.200 -1.7545 -0.5279 -0.5059
 9896TIP3    H251104   4.463   6.022  12.266 -0.4732 -0.2675  1.9917
 9897TIP3   OH251105   1.446   4.722  15.271 -0.4094  0.2155  0.3941
 9897TIP3    H151106   1.374   4.776  15.237 -0.0877 -1.1195 -2.7320
 9897TIP3    H251107   1.520   4.742  15.213  0.0860 -2.5174 -0.0299
 9898TIP3   OH251108   4.837   4.841   4.144 -0.1011  0.4729  0.2090
 9898TIP3    H151109   4.923   4.834   4.101 -0.2479 -1.1544  0.1267
 9898TIP3    H251110   4.775   4.813   4.077 -0.4386 -0.9527  1.0820
 9899TIP3   OH251111   0.266   4.795  17.126  0.2548 -0.0577  0.3203
 9899TIP3    H151112   0.329   4.852  17.083 -0.9822  0.1684 -1.2989
 9899TIP3    H251113   0.316   4.718  17.152  1.2019  0.1064 -0.9308
 9900TIP3   OH251114   6.207   0.290  14.484  0.7318  0.3891  0.4633
 9900TIP3    H151115   6.283   0.236  14.503  0.5582  0.7176  2.2233
 9900TIP3    H251116   6.133   0.229  14.484  0.6761  0.4451  1.3643
 9901TIP3   OH251117   3.315   6.742  15.510 -0.4503 -0.3183  0.0153
 9901TIP3    H151118   3.345   6.757  15.421  1.0273  0.9981  0.6732
 9901TIP3    H251119   3.385   6.779  15.565 -1.3455 -1.0282  1.7130
 9902TIP3   OH251120   3.272   6.170   4.453  0.1638  0.1142  0.2526
 9902TIP3    H151121   3.298   6.133   4.537  1.0719 -1.0573 -0.5170
 9902TIP3    H251122   3.181   6.143   4.442  0.3608 -0.6262  0.3868
 9903TIP3   OH251123   4.267   6.037   3.528 -0.2230 -0.2260 -0.2271
 9903TIP3    H151124   4.304   6.060   3.443  1.8105  1.5818  1.0432
 9903TIP3    H251125   4.172   6.046   3.515  0.0320  0.1224 -2.2587
 9904TIP3   OH251126   1.787   6.086  16.169  0.8152 -0.0707  0.7200
 9904TIP3    H151127   1.785   6.163  16.226 -1.0192 -0.5171  1.3398
 9904TIP3    H251128   1.712   6.033  16.197  1.4914 -1.6540 -0.2938
 9905TIP3   OH251129   3.057   6.616   1.482  0.2023 -0.7119 -0.2628
 9905TIP3    H151130   3.035   6.660   1.400  0.9901  0.4276  0.1217
 9905TIP3    H251131   3.097   6.533   1.454  2.2284  0.4857 -1.1057
 9906TIP3   OH251132   5.355   1.195   1.285  0.3787 -0.0114  0.2298
 9906TIP3    H151133   5.352   1.136   1.210 -0.2206  0.3059 -0.0076
 9906TIP3    H251134   5.448   1.203   1.307  0.7510  1.2809 -1.6050
 9907TIP3   OH251135   2.139   1.069   0.439 -0.7448 -0.0317 -0.1486
 9907TIP3    H151136   2.216   1.038   0.487 -0.5828  0.7753  0.1246
 9907TIP3    H251137   2.107   0.991   0.392  0.6303 -0.2379 -0.8076
 9908TIP3   OH251138   0.600   0.676   0.498 -0.3682 -0.1905 -0.4438
 9908TIP3    H151139   0.660   0.604   0.517 -2.6688 -2.2626 -0.6128
 9908TIP3    H251140   0.603   0.685   0.403 -0.8581 -0.8069 -0.5225
 9909TIP3   OH251141   2.992   3.266  10.658 -0.7003 -0.0063  0.7925
 9909TIP3    H151142   2.923   3.210  10.694 -0.3048  0.4762  2.4063
 9909TIP3    H251143   3.043   3.208  10.602 -2.9278 -0.1559 -1.2265
 9910TIP3   OH251144   6.779   3.819  13.837 -0.0393 -0.7314  0.2566
 9910TIP3    H151145   6.777   3.858  13.749 -1.1713 -0.6337  0.3080
 9910TIP3    H251146   6.708   3.862  13.884  0.2158 -1.1648  1.0644
 9911TIP3   OH251147   6.306   0.700   3.632  0.5674  0.5165 -0.4202
 9911TIP3    H151148   6.377   0.747   3.588  0.5964  1.6549  0.7950
 9911TIP3    H251149   6.227   0.729   3.585  0.6740  1.1130 -0.2448
 9912TIP3   OH251150   1.551   3.558  14.355 -0.4148  0.3385  0.2511
 9912TIP3    H151151   1.628   3.588  14.307 -0.9384 -1.7603 -2.1339
 9912TIP3    H251152   1.571   3.467  14.377 -1.0946  0.6217  2.2101
 9913TIP3   OH251153   1.094   0.751  14.207 -0.4942 -0.1829 -0.0621
 9913TIP3    H151154   1.041   0.810  14.153  0.9548  0.9273 -0.3315
 9913TIP3    H251155   1.114   0.677  14.149 -0.0364  0.3786 -0.6332
 9914TIP3   OH251156   0.110   0.957   1.381  0.4176  0.0264  0.3002
 9914TIP3    H151157   0.180   0.925   1.437 -0.5951 -0.5966  1.2370
 9914TIP3    H251158   0.043   0.989   1.441  0.4480  1.9128 -0.5826
 9915TIP3   OH251159   0.652   4.934  11.851  0.1075  0.2483  0.3371
 9915TIP3    H151160   0.648   4.841  11.873  0.4054  0.5287  1.6726
 9915TIP3    H251161   0.627   4.979  11.932 -2.0002  1.3245 -0.8335
 9916TIP3   OH251162   0.889   6.235  13.315  0.1389  1.1407 -0.0423
 9916TIP3    H151163   0.800   6.240  13.281  0.0947 -2.1227 -0.7200
 9916TIP3    H251164   0.879   6.245  13.410 -1.2576 -0.8064  0.0906
 9917TIP3   OH251165   6.602   4.273   1.804  0.4009 -0.4698 -0.0173
 9917TIP3    H151166   6.602   4.344   1.739  1.5978 -0.9096 -0.5379
 9917TIP3    H251167   6.510   4.255   1.821 -0.0909 -1.8838 -3.3639
 9918TIP3   OH251168   4.320   5.274   0.074  0.2126 -1.2225 -0.3586
 9918TIP3    H151169   4.337   5.182   0.058  0.3986 -0.9529 -1.8628
 9918TIP3    H251170   4.369   5.320   0.006 -0.4616 -0.0561 -0.0927
 9919TIP3   OH251171   6.554   5.885   4.143 -0.4618 -0.1838  0.4512
 9919TIP3    H151172   6.550   5.842   4.229 -0.1534  0.4735  0.7973
 9919TIP3    H251173   6.646   5.908   4.131 -0.5018 -0.2705 -0.0605
 9920TIP3   OH251174   6.210   4.768   2.658 -0.1200  0.4324  0.1654
 9920TIP3    H151175   6.245   4.734   2.575  0.3049 -0.4108  0.6768
 9920TIP3    H251176   6.255   4.717   2.725 -0.8895  0.7085  0.9036
 9921TIP3   OH251177   0.131   5.303  14.373 -0.5283  0.2747  0.6732
 9921TIP3    H151178   0.060   5.239  14.380  1.9603 -2.7688  0.2740
 9921TIP3    H251179   0.127   5.333  14.282 -0.9073 -0.3476  0.4766
 9922TIP3   OH251180   0.302   6.471   1.200 -0.3705  0.2500  0.1545
 9922TIP3    H151181   0.360   6.502   1.270  0.5179 -0.8268 -0.0691
 9922TIP3    H251182   0.358   6.463   1.124 -0.5903 -1.6051  0.1364
 9923TIP3   OH251183   5.059   3.739  11.454 -0.7261  0.0321 -0.3763
 9923TIP3    H151184   5.039   3.702  11.540  2.0871  0.4384  0.5758
 9923TIP3    H251185   5.024   3.828  11.458  0.1977  0.3739  0.7748
 9924TIP3   OH251186   0.426   2.139   1.671  0.6352  0.2930  0.1508
 9924TIP3    H151187   0.508   2.098   1.642  0.1972 -0.9361  0.6050
 9924TIP3    H251188   0.452   2.195   1.744  1.4324  1.8536 -1.2659
 9925TIP3   OH251189   4.123   5.011  14.706  0.1461  0.1003 -0.1524
 9925TIP3    H151190   4.209   5.049  14.686 -0.2767  0.8672 -0.5711
 9925TIP3    H251191   4.061   5.081  14.685 -0.5764 -0.4200  0.2230
 9926TIP3   OH251192   2.986   3.900  14.102  0.0448 -0.0575  0.1627
 9926TIP3    H151193   2.978   3.810  14.070 -1.1675 -0.7149  2.1628
 9926TIP3    H251194   2.936   3.952  14.039  1.7254 -0.5355 -1.6859
 9927TIP3   OH251195   0.883   0.165   4.876 -0.1888 -0.3116  0.0283
 9927TIP3    H151196   0.891   0.231   4.944  2.3563  0.4052 -0.8575
 9927TIP3    H251197   0.873   0.082   4.924 -2.1028  0.4998  1.1570
 9928TIP3   OH251198   0.814   2.675   0.705 -0.3325 -0.1708  0.1188
 9928TIP3    H151199   0.862   2.593   0.698  1.1174  0.6881 -0.2111
 9928TIP3    H251200   0.765   2.681   0.622  0.3126 -0.2390 -0.2732
 9929TIP3   OH251201   3.004   3.824   0.386 -0.2195  0.8686 -0.4760
 9929TIP3    H151202   2.917   3.789   0.403  0.3794  0.4552  2.1453
 9929TIP3    H251203   2.991   3.918   0.375 -1.0922  0.6739 -1.2101
 9930TIP3   OH251204   2.714   1.023  14.191  0.0392  0.6812 -0.4037
 9930TIP3    H151205   2.674   1.090  14.136  0.9749  1.9776  0.4398
 9930TIP3    H251206   2.671   1.033  14.276 -1.3897 -1.2957 -0.8482
 9931TIP3   OH251207   6.765   5.776   1.250 -0.2780  0.4544  0.6331
 9931TIP3    H151208   6.827   5.718   1.206  0.0936 -1.0794  3.0427
 9931TIP3    H251209   6.688   5.776   1.193 -0.2387 -2.3192  0.4684
 9932TIP3   OH251210   1.168   2.913   3.452 -0.0165 -0.8346  0.1288
 9932TIP3    H151211   1.095   2.852   3.442 -0.1964 -1.0700  2.3404
 9932TIP3    H251212   1.159   2.973   3.378 -3.2023 -0.1060  0.9332
 9933TIP3   OH251213   5.642   6.483  12.246  0.4363 -0.0407 -0.4512
 9933TIP3    H151214   5.611   6.468  12.157 -0.5249 -1.2612  0.0576
 9933TIP3    H251215   5.608   6.409  12.296  1.4808  0.2929  0.8141
 9934TIP3   OH251216   1.700   5.740  16.775 -0.1553 -0.1924  0.1607
 9934TIP3    H151217   1.683   5.675  16.707 -0.3996 -0.3477  0.3700
 9934TIP3    H251218   1.754   5.695  16.839 -1.2157 -0.5240  0.8445
 9935TIP3   OH251219   3.893   0.512  10.660  0.6083 -0.7361  0.5846
 9935TIP3    H151220   3.911   0.592  10.611  1.0632 -1.0369  0.2476
 9935TIP3    H251221   3.804   0.487  10.634  0.1421  0.1096  1.3329
 9936TIP3   OH251222   6.005   3.866   1.206  0.2201  0.4703 -0.1944
 9936TIP3    H151223   6.047   3.803   1.148  0.8044  1.9965 -1.4628
 9936TIP3    H251224   5.943   3.913   1.150 -0.2821  0.9797  0.7622
 9937TIP3   OH251225   6.337   3.755  17.065 -0.0123 -0.1590  0.9143
 9937TIP3    H151226   6.348   3.703  16.986 -0.4635 -0.3333  0.9607
 9937TIP3    H251227   6.391   3.711  17.131  0.7543  0.2707  0.5796
 9938TIP3   OH251228   2.940   0.710   1.040 -1.0277  0.3426 -0.1470
 9938TIP3    H151229   2.880   0.779   1.068  0.2716  2.3094 -1.9000
 9938TIP3    H251230   2.897   0.671   0.964 -1.0720  0.2852 -0.0920
 9939TIP3   OH251231   3.569   5.881  17.308 -0.1407 -0.1491 -0.0460
 9939TIP3    H151232   3.489   5.831  17.292 -0.0076  0.0970 -1.6068
 9939TIP3    H251233   3.579   5.936  17.231  0.4606  1.3060  1.0280
 9940TIP3   OH251234   5.028   5.875   5.182 -0.2453  0.2419 -0.1286
 9940TIP3    H151235   4.933   5.883   5.174 -0.3715 -1.3350 -0.6148
 9940TIP3    H251236   5.053   5.814   5.112  1.1051  0.4670  0.1197
 9941TIP3   OH251237   1.473   3.062   1.806 -0.3766 -0.1571  0.2509
 9941TIP3    H151238   1.523   3.115   1.868 -0.6423 -0.1276  0.4441
 9941TIP3    H251239   1.488   2.972   1.833  0.3923 -0.2112 -0.3175
 9942TIP3   OH251240   4.565   0.583   0.951  0.1971 -0.5747  0.3118
 9942TIP3    H151241   4.551   0.552   0.861  0.0499 -2.8814  1.0646
 9942TIP3    H251242   4.660   0.592   0.958  0.2537 -0.9654  0.0966
 9943TIP3   OH251243   1.504   2.036   4.814  0.4674 -0.1491  0.4699
 9943TIP3    H151244   1.415   2.071   4.806  0.0352 -1.0606  1.1441
 9943TIP3    H251245   1.511   1.971   4.744  0.3446 -0.5864  0.8567
 9944TIP3   OH251246   1.814   5.535   5.260 -0.0357  0.6259  0.0893
 9944TIP3    H151247   1.749   5.605   5.271 -0.8324 -0.2615  1.2675
 9944TIP3    H251248   1.896   5.573   5.292 -0.2902  1.2647  0.0015
 9945TIP3   OH251249   3.628   4.134   4.666 -0.5672  0.3569  0.6863
 9945TIP3    H151250   3.545   4.178   4.649 -1.3940 -1.2442  0.4151
 9945TIP3    H251251   3.606   4.063   4.726  0.5970 -0.1122  0.5861
 9946TIP3   OH251252   3.545   6.452   2.308 -0.0788  0.0449  0.2402
 9946TIP3    H151253   3.594   6.468   2.228  0.2483  0.1069  0.4482
 9946TIP3    H251254   3.504   6.367   2.296 -1.5973  0.8713 -0.7725
 9947TIP3   OH251255   2.444   4.412  11.406 -0.1567 -0.1878 -0.5598
 9947TIP3    H151256   2.417   4.499  11.375 -1.6012 -1.0180 -1.7505
 9947TIP3    H251257   2.376   4.387  11.469  0.3755 -0.3808 -0.0516
 9948TIP3   OH251258   0.163   6.291  17.010  0.5443 -0.3598 -0.4154
 9948TIP3    H151259   0.080   6.319  16.970 -0.1617 -0.6021  0.8077
 9948TIP3    H251260   0.211   6.372  17.026  0.3205 -0.1753 -0.6749
 9949TIP3   OH251261   6.344   3.452   4.830  0.1384 -0.0791 -0.1237
 9949TIP3    H151262   6.281   3.429   4.761 -0.1435  2.2089 -0.7130
 9949TIP3    H251263   6.355   3.547   4.822  1.6049 -0.0281  1.7463
 9950TIP3   OH251264   4.585   0.077   3.021  0.0892  0.2202  0.3182
 9950TIP3    H151265   4.531   0.000   3.041 -0.6377  0.8328  0.7572
 9950TIP3    H251266   4.674   0.049   3.042  0.0071 -0.8990 -0.6777
 9951TIP3   OH251267   3.513   3.446  13.615 -0.2851 -0.5636 -0.0826
 9951TIP3    H151268   3.562   3.416  13.692 -0.8345 -0.4881  0.3025
 9951TIP3    H251269   3.421   3.429  13.636 -0.5459  0.5873 -0.1993
 9952TIP3   OH251270   4.423   6.265  15.012 -0.2223  0.8235 -0.7680
 9952TIP3    H151271   4.391   6.279  14.922 -0.2932  1.5041 -0.6439
 9952TIP3    H251272   4.515   6.239  15.000 -0.9542 -1.8450 -1.1610
 9953TIP3   OH251273   4.082   5.907  12.272  0.1096  0.6982  0.3835
 9953TIP3    H151274   4.044   5.855  12.201  0.1230 -0.7429  1.3820
 9953TIP3    H251275   4.149   5.851  12.310 -1.8493  0.1586  3.4077
 9954TIP3   OH251276   5.964   5.148  13.111  0.4827  0.2950  0.3043
 9954TIP3    H151277   5.921   5.176  13.031  0.2680  2.1549  1.0314
 9954TIP3    H251278   5.907   5.179  13.181  0.7283 -1.1934  1.2057
 9955TIP3   OH251279   6.087   0.874  13.138 -0.5630  0.2386  0.3200
 9955TIP3    H151280   6.097   0.782  13.163 -0.7240  0.2481  0.4272
 9955TIP3    H251281   6.007   0.875  13.085 -0.5434  0.3100  0.2919
 9956TIP3   OH251282   5.409   4.353  15.175 -0.7122  0.1001  0.1052
 9956TIP3    H151283   5.322   4.383  15.149 -0.9227  0.5472  1.2312
 9956TIP3    H251284   5.404   4.346  15.271  0.7626  1.0725  0.2921
 9957TIP3   OH251285   1.415   5.139  11.858  0.4466  0.4016 -0.5741
 9957TIP3    H151286   1.356   5.210  11.884 -2.9623 -1.9055 -1.3709
 9957TIP3    H251287   1.473   5.179  11.794 -0.0135  2.8845  0.4217
 9958TIP3   OH251288   2.738   2.860  13.713  0.0263 -0.3557 -0.1464
 9958TIP3    H151289   2.799   2.828  13.779  1.7018  1.5916 -0.6690
 9958TIP3    H251290   2.743   2.955  13.719 -2.8276 -0.0894 -0.3728
 9959TIP3   OH251291   5.607   3.158  13.422 -0.0726 -0.1224  0.1512
 9959TIP3    H151292   5.666   3.083  13.436  0.7882  0.6440  0.7551
 9959TIP3    H251293   5.550   3.130  13.351  0.9876 -0.9180 -0.4169
 9960TIP3   OH251294   2.510   0.841   0.408 -0.0003 -0.5921 -0.4195
 9960TIP3    H151295   2.423   0.831   0.445  0.0243 -0.9325 -0.4442
 9960TIP3    H251296   2.563   0.774   0.451  0.3245 -0.1893 -0.1840
 9961TIP3   OH251297   6.131   0.720   2.604  0.2916 -0.0794  0.4795
 9961TIP3    H151298   6.123   0.794   2.663  0.4091  1.1316 -0.9545
 9961TIP3    H251299   6.114   0.757   2.517  0.2598 -1.7572 -0.2694
 9962TIP3   OH251300   2.269   1.678   1.131  0.6207 -0.0641  0.5725
 9962TIP3    H151301   2.227   1.642   1.209  0.3071 -1.6526 -0.2785
 9962TIP3    H251302   2.288   1.769   1.153 -2.8739  0.6581  1.1975
 9963TIP3   OH251303   5.232   0.263  14.189 -0.5553  0.0915  0.2028
 9963TIP3    H151304   5.195   0.274  14.101 -0.8658  1.4336  0.4702
 9963TIP3    H251305   5.326   0.251  14.174 -0.4655  1.2046 -0.3045
 9964TIP3   OH251306   2.914   0.158   6.293  0.3460  0.1854  0.8796
 9964TIP3    H151307   2.970   0.108   6.233  0.8236 -0.5551  1.9188
 9964TIP3    H251308   2.965   0.238   6.311  0.0914  0.5310  0.1284
 9965TIP3   OH251309   4.110   0.916  12.811 -0.4601  0.6566  0.1737
 9965TIP3    H151310   4.070   0.965  12.739  0.6195  0.5753 -0.5044
 9965TIP3    H251311   4.203   0.938  12.806 -0.3523  0.5581  1.4844
 9966TIP3   OH251312   3.825   2.666   0.647 -0.2277 -0.1082 -0.2445
 9966TIP3    H151313   3.875   2.592   0.612  0.8568 -0.4045  1.7483
 9966TIP3    H251314   3.734   2.636   0.647  0.1269 -1.2223 -0.0045
 9967TIP3   OH251315   3.447   0.563   3.879 -0.0868 -0.6066  0.1728
 9967TIP3    H151316   3.367   0.613   3.864  0.1756 -0.1309  0.3357
 9967TIP3    H251317   3.475   0.536   3.791  0.6788  0.9623 -0.0987
 9968TIP3   OH251318   1.832   2.900  11.722  0.1029  0.0453  0.4942
 9968TIP3    H151319   1.752   2.849  11.731  0.2563 -0.1918  0.4997
 9968TIP3    H251320   1.802   2.991  11.722 -0.2793 -0.0705 -0.7407
 9969TIP3   OH251321   5.231   3.612  12.049  0.0594 -0.1568 -0.0581
 9969TIP3    H151322   5.270   3.690  12.088  1.9641 -0.3663 -1.4058
 9969TIP3    H251323   5.277   3.539  12.090  0.2362 -0.4627 -0.7907
 9970TIP3   OH251324   6.716   5.997  16.798  0.0606 -0.3548 -0.4935
 9970TIP3    H151325   6.716   6.093  16.807  2.6293 -0.2329 -1.0665
 9970TIP3    H251326   6.754   5.965  16.879 -0.0513 -0.8509 -0.6356
 9971TIP3   OH251327   1.900   1.450   5.213 -0.0158  0.3896  0.4322
 9971TIP3    H151328   1.833   1.503   5.170 -1.5445 -2.5018 -1.1210
 9971TIP3    H251329   1.957   1.420   5.142 -0.4719 -1.6430  0.8486
 9972TIP3   OH251330   5.416   5.194   5.433  0.0021  0.1997 -0.2218
 9972TIP3    H151331   5.427   5.289   5.421 -0.9912  0.2744 -0.6622
 9972TIP3    H251332   5.471   5.154   5.366 -0.0794  0.4828 -0.4605
 9973TIP3   OH251333   2.737   4.550   5.793 -0.1881  0.4345 -0.2140
 9973TIP3    H151334   2.708   4.622   5.849  0.5261  0.6525 -0.1106
 9973TIP3    H251335   2.665   4.537   5.732 -1.6687 -0.8303  1.6876
 9974TIP3   OH251336   1.505   6.202   0.157 -0.1152 -0.4579  0.1130
 9974TIP3    H151337   1.427   6.229   0.204 -0.2105 -1.8348  0.7967
 9974TIP3    H251338   1.578   6.240   0.207 -0.2798 -0.7533  0.5867
 9975TIP3   OH251339   1.519   2.233  14.066  0.2852  0.1821 -0.4130
 9975TIP3    H151340   1.593   2.288  14.092  0.2120 -0.4455  1.2866
 9975TIP3    H251341   1.553   2.178  13.996  0.7969  1.3269 -1.0976
 9976TIP3   OH251342   0.125   0.431   3.576 -0.2405 -0.0706 -0.1091
 9976TIP3    H151343   0.109   0.465   3.664  1.9850  0.4685  0.1620
 9976TIP3    H251344   0.102   0.503   3.518 -2.7318 -0.7782 -0.1207
 9977TIP3   OH251345   1.264   1.147   3.154  0.9080  0.2228  0.6814
 9977TIP3    H151346   1.290   1.166   3.064 -2.4231  1.1686 -0.2126
 9977TIP3    H251347   1.225   1.059   3.150  0.4962  0.3788  1.1101
 9978TIP3   OH251348   2.319   0.875   1.673  0.2677  0.0602 -0.5550
 9978TIP3    H151349   2.239   0.823   1.672  0.3080 -0.1223  1.3445
 9978TIP3    H251350   2.300   0.947   1.734  1.0205  0.9087 -1.2958
 9979TIP3   OH251351   4.148   0.079   3.266  0.3252 -0.1210  0.1274
 9979TIP3    H151352   4.053   0.086   3.254  0.2649 -1.2873 -0.1554
 9979TIP3    H251353   4.185   0.084   3.178  0.4624 -0.5651  0.1584
 9980TIP3   OH251354   2.897   3.289   5.221  0.0776  0.2363 -0.2630
 9980TIP3    H151355   2.937   3.215   5.267  0.5956  0.5477 -0.2068
 9980TIP3    H251356   2.910   3.364   5.280 -0.9284  0.2711 -0.0737
 9981TIP3   OH251357   3.572   0.039  15.922 -0.2408  0.1629 -0.0562
 9981TIP3    H151358   3.634  -0.032  15.939 -1.0103 -0.2773  1.0894
 9981TIP3    H251359   3.626   0.116  15.908  0.6760 -0.8383 -2.6080
 9982TIP3   OH251360   6.611   1.355  11.673  0.5140 -0.4451  0.1692
 9982TIP3    H151361   6.537   1.323  11.623 -0.4859  1.1184  0.5701
 9982TIP3    H251362   6.649   1.424  11.618  2.3272 -1.8720 -0.4747
 9983TIP3   OH251363   2.461   4.272   5.420  0.0268 -0.2436  0.3591
 9983TIP3    H151364   2.537   4.270   5.478  1.3786  5.1990 -0.6981
 9983TIP3    H251365   2.398   4.328   5.465 -0.2721  1.2912 -1.7965
 9984TIP3   OH251366   1.995   4.981  15.952  0.2256 -0.1605 -0.0385
 9984TIP3    H151367   1.986   4.946  15.863 -0.0793 -0.9298  0.2812
 9984TIP3    H251368   2.023   4.905  16.004  1.6546  0.5578  0.2944
 9985TIP3   OH251369   4.038   0.535  16.747  0.4264 -0.1196  0.2337
 9985TIP3    H151370   4.074   0.546  16.659 -0.6517  0.5245 -0.1491
 9985TIP3    H251371   4.030   0.441  16.758  0.6985 -0.2123 -0.3033
 9986TIP3   OH251372   5.230   4.610   5.810 -0.1853  0.2985 -0.0102
 9986TIP3    H151373   5.178   4.595   5.889 -0.3085  1.0761  0.0646
 9986TIP3    H251374   5.219   4.530   5.759  0.7382 -0.6448  1.2181
 9987TIP3   OH251375   0.438   6.040   6.153  0.3580  0.6301  0.4885
 9987TIP3    H151376   0.442   6.133   6.173  1.1912  0.9814 -1.0917
 9987TIP3    H251377   0.529   6.012   6.149  0.1550 -0.0073 -0.0062
 9988TIP3   OH251378   3.651   5.586  14.366  0.5798  0.3875  0.1868
 9988TIP3    H151379   3.601   5.589  14.284  4.0632 -0.4482 -2.2208
 9988TIP3    H251380   3.637   5.497  14.399  1.2049 -0.1957 -1.0346
 9989TIP3   OH251381   2.628   4.632   0.354 -0.5499  0.7291 -0.1325
 9989TIP3    H151382   2.588   4.710   0.315 -0.6299  0.0728 -1.3996
 9989TIP3    H251383   2.592   4.559   0.305 -1.6477 -0.2843  2.0156
 9990TIP3   OH251384   3.120   3.585   4.112  0.4280 -0.2612  0.4821
 9990TIP3    H151385   3.030   3.553   4.115 -0.2196  1.1908 -1.1685
 9990TIP3    H251386   3.116   3.662   4.054  2.6961 -0.0472  0.5053
 9991TIP3   OH251387   0.984   4.053   5.872 -0.8805 -0.5189  0.3874
 9991TIP3    H151388   0.928   4.128   5.851 -1.8349 -1.3066  0.0663
 9991TIP3    H251389   0.950   3.982   5.818  0.6846 -0.9265 -0.1140
 9992TIP3   OH251390   5.425   5.921  12.885 -0.0475 -0.5666 -0.2971
 9992TIP3    H151391   5.435   5.981  12.958 -0.5053  0.7904 -1.3226
 9992TIP3    H251392   5.515   5.896  12.862  0.0585 -2.9345  2.1945
 9993TIP3   OH251393   0.318   0.932   1.542 -0.3035  0.0824  0.8946
 9993TIP3    H151394   0.361   0.871   1.603  3.6252  0.3979 -1.2195
 9993TIP3    H251395   0.385   0.998   1.523 -1.2222  0.0192 -3.6628
 9994TIP3   OH251396   1.597   6.185   1.907 -0.3814 -0.2121 -0.7622
 9994TIP3    H151397   1.577   6.181   1.813 -0.3537 -1.3078 -0.7379
 9994TIP3    H251398   1.657   6.259   1.916 -1.2244  0.5739 -1.4393
 9995TIP3   OH251399   1.783   3.896   5.094 -0.2151 -0.0048 -0.2496
 9995TIP3    H151400   1.793   3.859   5.182 -0.2654 -1.0711 -0.6737
 9995TIP3    H251401   1.782   3.819   5.036  2.1252  0.7593 -1.4166
 9996TIP3   OH251402   0.808   4.180   3.853  0.3619 -0.2379  0.0086
 9996TIP3    H151403   0.726   4.214   3.819 -0.0977 -2.0538 -0.8249
 9996TIP3    H251404   0.782   4.109   3.912  1.2889  0.5249  1.4038
 9997TIP3   OH251405   4.885   0.160  16.828  0.1213 -0.9057  0.2869
 9997TIP3    H151406   4.884   0.126  16.918  2.2165 -1.3162  0.1932
 9997TIP3    H251407   4.807   0.215  16.823  0.0060 -0.7835  2.3920
 9998TIP3   OH251408   2.290   2.392   0.267 -0.2304  0.2322 -0.0960
 9998TIP3    H151409   2.344   2.431   0.199 -1.4586 -2.5655 -2.9036
 9998TIP3    H251410   2.314   2.299   0.267 -0.7757 -0.0052  2.8773
 9999TIP3   OH251411   6.341   3.714   4.330  0.0454 -0.1597 -0.6759
 9999TIP3    H151412   6.334   3.639   4.271  1.7840  0.4104 -1.6944
 9999TIP3    H251413   6.337   3.790   4.271  1.7084  0.4273 -0.0834
10000TIP3   OH251414   1.885   0.686   4.877 -0.0951  0.4314  0.0130
10000TIP3    H151415   1.917   0.763   4.924  2.8489 -0.0433 -0.9779
10000TIP3    H251416   1.790   0.697   4.872  0.1729  3.6642  0.4514
10001TIP3   OH251417   3.182   4.454  15.127 -0.2498 -0.4790 -0.1833
10001TIP3    H151418   3.152   4.365  15.107 -0.9855 -0.1584 -0.5304
10001TIP3    H251419   3.224   4.483  15.046 -3.6729  1.0087 -1.5821
10002TIP3   OH251420   1.668   3.816   2.314  0.1901 -0.1570 -0.0362
10002TIP3    H151421   1.648   3.793   2.223 -0.0126  0.5291 -0.1710
10002TIP3    H251422   1.763   3.809   2.320  0.1991 -0.2683 -0.2860
10003TIP3   OH251423   2.425   4.202   3.830 -0.8111 -0.6420 -0.2953
10003TIP3    H151424   2.364   4.234   3.896 -0.3055 -0.6541  0.1832
10003TIP3    H251425   2.401   4.249   3.750  0.8787  2.1908  0.6915
10004TIP3   OH251426   4.536   3.012  16.582  0.8546 -1.0384  0.7095
10004TIP3    H151427   4.505   3.047  16.666  0.0372 -2.2795  0.9547
10004TIP3    H251428   4.625   3.045  16.574 -0.4686  2.7963 -0.1005
10005TIP3   OH251429   5.889   3.377   5.406 -0.4636 -0.7300  0.0323
10005TIP3    H151430   5.820   3.359   5.343 -1.9336  2.9959  0.2696
10005TIP3    H251431   5.843   3.383   5.490  0.2076  1.1030  0.3138
10006TIP3   OH251432   3.071   6.631  11.957 -0.1668  0.2224  0.0203
10006TIP3    H151433   3.040   6.722  11.954  0.5288  0.4617 -0.1017
10006TIP3    H251434   3.062   6.606  12.049  0.2251  0.6269  0.1706
10007TIP3   OH251435   0.579   5.960  12.847 -0.1430  0.1068 -0.0333
10007TIP3    H151436   0.527   5.897  12.796  0.7351 -0.2295 -0.5403
10007TIP3    H251437   0.620   5.907  12.915 -3.0580  0.8827  2.5248
10008TIP3   OH251438   2.099   3.673   6.570  0.2046  0.1034 -0.1068
10008TIP3    H151439   2.038   3.646   6.501  0.0827  0.2604 -0.0615
10008TIP3    H251440   2.056   3.748   6.611 -0.0279 -0.3895  0.5691
10009TIP3   OH251441   1.152   0.177   2.636 -0.0029 -0.0436 -0.1789
10009TIP3    H151442   1.206   0.100   2.614  0.2562 -0.0696  0.5418
10009TIP3    H251443   1.192   0.213   2.715 -1.3376 -0.3466  0.6592
10010TIP3   OH251444   4.746   4.506   1.016  0.2289 -0.1087 -0.7299
10010TIP3    H151445   4.661   4.502   1.061  0.5269 -2.0026 -0.2593
10010TIP3    H251446   4.789   4.423   1.038  1.3303 -0.1166 -2.6763
10011TIP3   OH251447   1.480   4.194   4.594 -0.1915 -0.2048 -0.3604
10011TIP3    H151448   1.469   4.269   4.537  0.5032  0.4371  0.3368
10011TIP3    H251449   1.393   4.180   4.632 -0.7168 -0.7916 -1.7347
10012TIP3   OH251450   5.258   4.823  15.167 -0.0530 -0.3367  0.0139
10012TIP3    H151451   5.164   4.833  15.184 -0.1315 -1.4719  0.3043
10012TIP3    H251452   5.296   4.802  15.252  0.5057  0.2686 -0.0704
10013TIP3   OH251453   2.651   5.902  12.003  0.1590  0.0326  0.0275
10013TIP3    H151454   2.657   5.978  11.946  2.0127  0.3564  0.5754
10013TIP3    H251455   2.606   5.933  12.081 -2.4200 -0.4191 -1.1639
10014TIP3   OH251456   0.143   3.591  11.856  0.5575  0.6285  0.2178
10014TIP3    H151457   0.212   3.619  11.796  1.4141 -1.5439  0.1216
10014TIP3    H251458   0.173   3.618  11.943  0.3604  1.8047 -0.0597
10015TIP3   OH251459   3.384   4.974   1.710 -0.1819 -0.3837  0.4465
10015TIP3    H151460   3.376   4.896   1.654 -2.4208  0.4862 -0.5922
10015TIP3    H251461   3.440   5.033   1.661 -1.4211  0.0262 -0.5434
10016TIP3   OH251462   4.657   3.034   5.365  0.4619  0.3892  0.1973
10016TIP3    H151463   4.583   3.055   5.422  0.7347  3.3306 -0.4102
10016TIP3    H251464   4.732   3.028   5.425  0.4496  1.7114  0.3593
10017TIP3   OH251465   4.261   2.705  11.875  0.3797  0.1182  0.0989
10017TIP3    H151466   4.261   2.610  11.877  1.9678  0.0974  0.5682
10017TIP3    H251467   4.188   2.731  11.932  0.1900 -0.8048  0.2855
10018TIP3   OH251468   1.701   6.388   4.593 -0.1854  0.0941  0.1009
10018TIP3    H151469   1.643   6.313   4.582 -2.3093  1.5435  0.6692
10018TIP3    H251470   1.674   6.427   4.677  1.5146  0.9479  0.2933
10019TIP3   OH251471   3.616   0.838  12.386 -0.2484 -0.0758  0.4619
10019TIP3    H151472   3.672   0.867  12.314 -0.7996 -0.0751  0.0254
10019TIP3    H251473   3.676   0.802  12.451  0.3966  1.3233  0.6808
10020TIP3   OH251474   5.299   0.960  14.847 -0.8799  0.4341 -0.1240
10020TIP3    H151475   5.360   0.986  14.916 -1.5431  0.6978  0.3783
10020TIP3    H251476   5.228   0.915  14.893  0.0650 -2.0694 -0.9198
10021TIP3   OH251477   6.279   3.173  15.723  0.7059  0.2213 -0.3706
10021TIP3    H151478   6.243   3.256  15.692 -0.0497 -0.0544 -0.2537
10021TIP3    H251479   6.258   3.171  15.816  0.7710 -0.0739 -0.3609
10022TIP3   OH251480   6.007   6.044  16.481 -0.0241 -0.0093  0.5121
10022TIP3    H151481   6.006   6.050  16.386 -1.9236 -1.3263  0.3744
10022TIP3    H251482   6.009   5.949  16.499 -0.3761  0.1967  1.7641
10023TIP3   OH251483   1.316   6.216  15.176 -0.6113 -0.3897  0.6079
10023TIP3    H151484   1.305   6.258  15.261 -0.5203 -0.3142  0.5821
10023TIP3    H251485   1.397   6.166  15.184 -0.2367  0.1665  0.3440
10024TIP3   OH251486   6.633   4.266  15.415  0.2100 -0.1957 -0.1887
10024TIP3    H151487   6.700   4.245  15.480  0.5907 -2.0576 -1.1078
10024TIP3    H251488   6.657   4.214  15.338 -0.8982  1.0134 -1.4164
10025TIP3   OH251489   6.668   6.301  12.226  0.0942  0.3657  0.0676
10025TIP3    H151490   6.676   6.217  12.271  0.4201  1.2070  1.6443
10025TIP3    H251491   6.730   6.296  12.153 -0.8951 -1.2632 -0.7213
10026TIP3   OH251492   1.334   2.705  14.378 -0.4685  0.0762 -0.1013
10026TIP3    H151493   1.292   2.790  14.367  0.9183  1.0762  1.6699
10026TIP3    H251494   1.379   2.689  14.295 -1.2388  0.7762 -0.6656
10027TIP3   OH251495   6.117   6.334   1.932 -0.2997 -0.2738  0.4390
10027TIP3    H151496   6.027   6.307   1.952 -0.3910  0.7837  1.5990
10027TIP3    H251497   6.162   6.329   2.017  0.8890 -1.2997 -0.2254
10028TIP3   OH251498   0.727   6.540   5.347 -0.5617 -0.3213  0.2136
10028TIP3    H151499   0.793   6.564   5.282 -0.8889 -2.1481 -0.8894
10028TIP3    H251500   0.644   6.544   5.299 -1.2669  1.5653  1.4757
10029TIP3   OH251501   5.583   5.032   0.029  0.3402  0.2078  0.5708
10029TIP3    H151502   5.628   5.027  -0.056  0.7694  2.2675  0.6297
10029TIP3    H251503   5.579   4.941   0.059  0.7949 -0.4947 -1.3265
10030TIP3   OH251504   4.369   6.112   2.178 -0.0530 -0.0336 -0.1046
10030TIP3    H151505   4.282   6.153   2.177 -0.4180 -0.7711 -0.7923
10030TIP3    H251506   4.414   6.153   2.251 -1.9695 -1.6492  2.1429
10031TIP3   OH251507   5.275   6.629   5.661 -0.3915 -0.5847  0.1371
10031TIP3    H151508   5.238   6.580   5.734 -0.5308 -3.0097 -1.4318
10031TIP3    H251509   5.370   6.615   5.668 -0.4183 -0.9786 -0.2105
10032TIP3   OH251510   0.113   4.007  11.072  0.4496 -0.6694 -0.5143
10032TIP3    H151511   0.049   4.036  11.006 -1.7662 -2.0263  0.8957
10032TIP3    H251512   0.146   3.924  11.038  1.0381 -0.2575 -0.9649
10033TIP3   OH251513   3.642   4.395   0.900  0.1864  0.1403  0.0863
10033TIP3    H151514   3.722   4.379   0.950 -0.2768 -1.2463  0.4100
10033TIP3    H251515   3.663   4.368   0.811  0.3793  0.7169 -0.0482
10034TIP3   OH251516   3.422   6.131  14.424  0.2696 -0.5957 -0.1985
10034TIP3    H151517   3.385   6.044  14.439 -0.3324 -0.2156  0.5879
10034TIP3    H251518   3.360   6.173  14.364 -1.0482  0.3020  1.6852
10035TIP3   OH251519   1.425   2.258  15.066  0.1846  0.5119 -0.3684
10035TIP3    H151520   1.449   2.345  15.095 -1.0954  1.7783 -2.7415
10035TIP3    H251521   1.365   2.225  15.134 -1.4306  2.6315 -0.6492
10036TIP3   OH251522   1.961   3.734   1.491 -0.2187  0.4946  0.1474
10036TIP3    H151523   2.039   3.726   1.437 -0.2226  0.0418  0.2030
10036TIP3    H251524   1.932   3.825   1.480  0.7810  0.9046  0.7622
10037TIP3   OH251525   0.460   4.423  11.676 -0.7571  0.2329  0.1642
10037TIP3    H151526   0.439   4.463  11.761  0.8949  0.1724  0.6232
10037TIP3    H251527   0.542   4.464  11.649 -1.6665  0.8616 -1.8412
10038TIP3   OH251528   2.774   6.526   2.182 -0.4942 -0.0378  0.5398
10038TIP3    H151529   2.723   6.462   2.131  0.1129  0.3480 -0.5719
10038TIP3    H251530   2.708   6.579   2.225 -1.1795  1.6226 -2.3016
10039TIP3   OH251531   0.538   5.754   4.994 -0.5338  0.3546  0.0721
10039TIP3    H151532   0.448   5.786   4.985  0.4633  3.7568  0.6180
10039TIP3    H251533   0.564   5.729   4.906 -1.3622  1.4108 -0.4979
10040TIP3   OH251534   0.596   4.322   3.760 -0.3512  0.2240 -0.3436
10040TIP3    H151535   0.591   4.415   3.782  0.8795  0.5233 -1.2149
10040TIP3    H251536   0.566   4.317   3.670 -2.1598 -0.5110  0.2613
10041TIP3   OH251537   6.327   2.169   3.454  0.4479  0.1067 -0.2208
10041TIP3    H151538   6.294   2.196   3.540 -0.4127 -0.7245 -0.2773
10041TIP3    H251539   6.255   2.189   3.393  0.9350  0.4103 -0.7038
10042TIP3   OH251540   3.355   5.375   2.506 -0.3107 -0.0291  0.4131
10042TIP3    H151541   3.413   5.400   2.578  0.1344  0.6746 -0.1818
10042TIP3    H251542   3.267   5.393   2.539 -0.0003  3.7303 -0.4468
10043TIP3   OH251543   5.623   0.006  13.097  0.2551 -0.6947  0.2127
10043TIP3    H151544   5.622   0.101  13.104  2.3325 -0.4959 -1.2504
10043TIP3    H251545   5.643  -0.012  13.005  0.9257 -2.5117  0.6601
10044TIP3   OH251546   1.311   0.343  15.804  0.3011 -0.2158 -0.3474
10044TIP3    H151547   1.349   0.423  15.839 -0.3642  0.1811 -0.5139
10044TIP3    H251548   1.232   0.329  15.857 -0.8091  0.4826 -1.7608
10045TIP3   OH251549   1.117   5.146   4.519  0.3001  0.6892  0.5007
10045TIP3    H151550   1.205   5.157   4.553  1.0166 -2.5658  0.0274
10045TIP3    H251551   1.126   5.154   4.424  0.9986 -3.2261  0.0475
10046TIP3   OH251552   1.415   6.154  13.482  0.2073 -0.3497  0.7190
10046TIP3    H151553   1.351   6.177  13.414  0.3516 -1.2034  0.2838
10046TIP3    H251554   1.390   6.066  13.509  1.2270 -0.7096  0.5042
10047TIP3   OH251555   6.110   0.973   5.819  0.1996 -0.2199 -0.6571
10047TIP3    H151556   6.057   1.051   5.805  0.7866 -0.0567 -2.1740
10047TIP3    H251557   6.049   0.909   5.857 -1.1480 -0.0586 -2.3945
10048TIP3   OH251558   3.023   3.791  16.855  0.1739 -0.4767  0.0339
10048TIP3    H151559   3.092   3.743  16.899  0.0315 -1.7345 -1.0556
10048TIP3    H251560   2.979   3.840  16.925  2.0654  0.2623  0.7564
10049TIP3   OH251561   5.568   0.923   2.476  0.1002  0.1233 -0.1272
10049TIP3    H151562   5.594   1.015   2.470  4.1887 -0.8950 -0.7250
10049TIP3    H251563   5.519   0.907   2.395 -1.8127  1.9517  0.5683
10050TIP3   OH251564   0.064   4.495   0.029 -0.8211  0.0333 -0.0061
10050TIP3    H151565   0.063   4.406   0.063 -0.0941  0.0116 -0.0240
10050TIP3    H251566   0.149   4.503  -0.016  0.1529  1.4544  1.9382
10051TIP3   OH251567   6.193   5.069   2.488 -0.4060 -1.2597  0.5905
10051TIP3    H151568   6.226   5.065   2.578  0.1084  0.7370  0.5339
10051TIP3    H251569   6.268   5.042   2.434  0.2830  0.4149  0.6362
10052TIP3   OH251570   1.556   6.424  15.359 -0.5200 -0.0638  0.1285
10052TIP3    H151571   1.536   6.478  15.435 -0.4775  0.1138  0.0153
10052TIP3    H251572   1.588   6.342  15.395 -1.6270 -0.4290  0.3159
10053TIP3   OH251573   5.530   6.247   4.639  0.0328  0.0889  0.3086
10053TIP3    H151574   5.586   6.316   4.602 -1.0069  1.0848  0.5603
10053TIP3    H251575   5.579   6.166   4.622  1.5340  0.9220  0.4948
10054TIP3   OH251576   2.726   4.670   0.840 -0.7023 -0.1339  0.2934
10054TIP3    H151577   2.717   4.589   0.890 -4.4104  0.1956  0.3854
10054TIP3    H251578   2.745   4.640   0.750  0.1813 -0.9412  0.7243
10055TIP3   OH251579   5.141   1.268   4.479  0.8119 -0.5938 -0.2949
10055TIP3    H151580   5.192   1.215   4.417  1.6990 -1.1149  0.8422
10055TIP3    H251581   5.115   1.206   4.547 -1.4601 -0.3589 -0.8712
10056TIP3   OH251582   4.950   1.167  14.159  0.1444  0.3052  0.0280
10056TIP3    H151583   5.016   1.103  14.182 -0.1924  0.1973  0.7305
10056TIP3    H251584   4.967   1.188  14.067 -1.5594 -3.0218 -1.2263
10057TIP3   OH251585   3.816   0.277   5.764 -0.3386  0.2033 -0.2488
10057TIP3    H151586   3.745   0.339   5.746  0.3621  0.9096 -0.5951
10057TIP3    H251587   3.874   0.323   5.824 -0.5213 -0.6375  0.6061
10058TIP3   OH251588   5.633   1.295   0.378  0.0077 -0.2025  0.1485
10058TIP3    H151589   5.567   1.312   0.445 -1.6332 -1.7669 -0.9882
10058TIP3    H251590   5.623   1.368   0.316 -1.5273 -0.9995 -0.6130
10059TIP3   OH251591   6.591   2.825   3.639 -0.2944 -0.5067  0.5459
10059TIP3    H151592   6.562   2.832   3.548  1.7222 -0.6258 -0.1743
10059TIP3    H251593   6.585   2.913   3.674  0.0856 -0.2134 -0.1119
10060TIP3   OH251594   5.356   0.671   5.416 -0.3681 -0.6472 -0.0117
10060TIP3    H151595   5.369   0.645   5.507  1.4282  1.2493  0.3586
10060TIP3    H251596   5.398   0.602   5.365 -1.6137 -1.8597  0.5150
10061TIP3   OH251597   2.345   6.468   2.780  0.2919 -0.2310 -0.5973
10061TIP3    H151598   2.298   6.386   2.765 -1.6459  0.7821 -0.3803
10061TIP3    H251599   2.314   6.498   2.866  0.5207  1.0010 -0.9226
10062TIP3   OH251600   0.708   2.108  14.144 -0.1460  0.0162  0.2289
10062TIP3    H151601   0.780   2.118  14.206  0.7480 -2.2896 -0.3431
10062TIP3    H251602   0.750   2.090  14.060 -1.3423 -2.4910  0.0835
10063TIP3   OH251603   5.355   2.882   2.841  0.3393 -0.1091 -0.1300
10063TIP3    H151604   5.411   2.831   2.784  0.9248 -0.6602  0.9071
10063TIP3    H251605   5.414   2.918   2.908 -0.5884 -1.2253  1.3600
10064TIP3   OH251606   5.675   5.921   2.660 -0.1418  0.2218 -0.4702
10064TIP3    H151607   5.763   5.886   2.672 -0.8594 -1.7116 -0.4635
10064TIP3    H251608   5.633   5.909   2.745 -0.1373  2.0902 -0.1615
10065TIP3   OH251609   1.907   0.171   2.536  0.0989 -0.1189  0.4769
10065TIP3    H151610   1.865   0.169   2.450  1.2306  1.2028 -0.1486
10065TIP3    H251611   1.987   0.221   2.522 -1.7279  4.1044  3.1520
10066TIP3   OH251612   4.909   1.629   2.095 -0.0509  0.5512 -0.2613
10066TIP3    H151613   4.996   1.590   2.082  0.5794  1.1578  1.8364
10066TIP3    H251614   4.926   1.723   2.102 -0.8367  0.6506  0.4378
10067TIP3   OH251615   3.624   1.037   0.821  0.2546 -0.0196  0.1245
10067TIP3    H151616   3.547   1.027   0.876  1.0462 -3.4595  0.8533
10067TIP3    H251617   3.680   1.098   0.868 -0.9499  0.5867  0.8218
10068TIP3   OH251618   1.856   4.024  12.880  0.6046  0.0800  0.4058
10068TIP3    H151619   1.893   3.944  12.842  0.6097  0.3156 -0.1060
10068TIP3    H251620   1.809   3.995  12.958  2.1787 -0.1895  1.2993
10069TIP3   OH251621   6.029   5.690   4.629  0.2609  0.1680 -0.2056
10069TIP3    H151622   5.939   5.711   4.605  0.8145  0.3318 -2.3027
10069TIP3    H251623   6.042   5.601   4.595  0.5360 -0.3669  1.2119
10070TIP3   OH251624   6.352   5.964  15.323 -0.3890  0.0998  0.1677
10070TIP3    H151625   6.446   5.977  15.331 -0.1799 -0.3379 -1.1642
10070TIP3    H251626   6.312   6.039  15.367  0.6402  2.3034 -2.3838
10071TIP3   OH251627   3.948   6.246   1.059 -0.1517  0.2155  0.2358
10071TIP3    H151628   3.900   6.207   0.986 -0.7305  0.8849  0.2509
10071TIP3    H251629   4.039   6.223   1.042 -0.3599 -0.2412 -0.3168
10072TIP3   OH251630   3.358   1.095  16.940  0.2372 -0.2321 -0.0335
10072TIP3    H151631   3.325   1.182  16.916 -2.4669 -1.0436  0.3961
10072TIP3    H251632   3.380   1.103  17.033  0.4566  0.1304 -0.1164
10073TIP3   OH251633   5.410   3.179   5.597  0.0324 -0.3774 -0.2150
10073TIP3    H151634   5.375   3.191   5.686 -0.3007  2.1541 -0.6050
10073TIP3    H251635   5.365   3.101   5.564 -0.5993 -0.7684  1.4717
10074TIP3   OH251636   0.953   1.496  11.429  0.3361 -0.5579 -0.1191
10074TIP3    H151637   0.982   1.488  11.338 -0.7284  1.2836 -0.6942
10074TIP3    H251638   1.019   1.551  11.470  0.5759 -1.0076  0.0989
10075TIP3   OH251639   6.717   3.972   0.243  0.1845 -0.2046  0.7249
10075TIP3    H151640   6.812   3.988   0.241  0.1815  0.2920  2.5795
10075TIP3    H251641   6.709   3.877   0.243  0.6641 -0.2490  0.1770
10076TIP3   OH251642   1.164   3.711  16.864  0.2431 -0.1330 -0.3842
10076TIP3    H151643   1.139   3.653  16.936  1.2330 -1.0346 -0.7367
10076TIP3    H251644   1.121   3.794  16.884 -2.8356 -1.4677 -0.8469
10077TIP3   OH251645   1.054   4.128   4.904  0.3652  0.9012 -0.2605
10077TIP3    H151646   1.128   4.087   4.950 -0.1137  0.0837 -0.1981
10077TIP3    H251647   0.978   4.105   4.956 -0.6860 -2.8467 -3.0203
10078TIP3   OH251648   2.820   6.124  16.690 -0.1282 -0.0839 -0.0691
10078TIP3    H151649   2.823   6.182  16.766 -0.5683 -0.4909  0.2703
10078TIP3    H251650   2.896   6.067  16.699 -0.1890 -0.1425  0.0847
10079TIP3   OH251651   1.029   0.778   2.522  0.1629  0.4241 -0.0302
10079TIP3    H151652   0.988   0.711   2.468 -0.2557 -0.4752  1.3664
10079TIP3    H251653   0.979   0.858   2.502  1.2166  0.6000 -2.3516
10080TIP3   OH251654   4.192   4.260   4.101  0.0668  0.0325  0.6112
10080TIP3    H151655   4.160   4.338   4.145  3.6777  2.1613 -0.1151
10080TIP3    H251656   4.166   4.271   4.010  1.5761  1.1098  0.2712
10081TIP3   OH251657   0.193   4.805   0.089 -0.2553 -0.4189  0.4140
10081TIP3    H151658   0.147   4.875   0.043 -0.7365 -1.6826 -1.1071
10081TIP3    H251659   0.137   4.728   0.079  2.2137 -2.1268 -1.7846
10082TIP3   OH251660   5.611   5.491  13.112 -1.0769  0.0525  0.0747
10082TIP3    H151661   5.624   5.436  13.189 -0.2762  0.6434  0.3747
10082TIP3    H251662   5.529   5.538  13.129 -2.1232 -1.4933 -0.4754
10083TIP3   OH251663   6.740   4.475  12.678 -0.1480 -0.7236 -0.4372
10083TIP3    H151664   6.646   4.464  12.696 -0.1730 -1.7400 -1.1233
10083TIP3    H251665   6.774   4.386  12.675  1.1601 -0.3292  1.2882
10084TIP3   OH251666   0.886   5.454  10.485  0.6470 -0.2379  0.1928
10084TIP3    H151667   0.856   5.383  10.541  0.3659 -0.1428  0.1673
10084TIP3    H251668   0.962   5.418  10.439  0.5382 -0.5055  0.2177
10085TIP3   OH251669   5.752   2.891  15.057  0.0413 -0.0072  0.3377
10085TIP3    H151670   5.809   2.815  15.068  0.0592 -0.0629 -0.1299
10085TIP3    H251671   5.750   2.931  15.144  0.7112 -0.0619  0.3868
10086TIP3   OH251672   3.652   4.328   4.869 -0.1001  0.5349 -0.4187
10086TIP3    H151673   3.732   4.381   4.867  0.5898 -0.2031  2.4320
10086TIP3    H251674   3.648   4.287   4.783  2.1473  1.2428 -0.9230
10087TIP3   OH251675   3.190   0.056   0.402 -0.7409  0.7894 -0.5916
10087TIP3    H151676   3.159   0.047   0.313 -0.0842  2.1797 -1.0052
10087TIP3    H251677   3.254  -0.014   0.413 -0.3835  0.9716 -1.4351
10088TIP3   OH251678   4.634   2.678  11.795  0.1636  0.5460 -0.2645
10088TIP3    H151679   4.599   2.765  11.812 -0.5578  0.3484 -0.6672
10088TIP3    H251680   4.719   2.676  11.840  1.2968  2.2538 -2.1567
10089TIP3   OH251681   1.483   1.701  15.482 -0.3270 -0.5408  0.0164
10089TIP3    H151682   1.413   1.712  15.418  0.5925 -0.5150 -1.0188
10089TIP3    H251683   1.545   1.643  15.440 -0.3177 -1.6291  1.4367
10090TIP3   OH251684   2.073   5.080  14.158 -0.3139 -0.6209 -0.5816
10090TIP3    H151685   2.009   5.023  14.116 -0.5191  1.0268 -2.6303
10090TIP3    H251686   2.158   5.039  14.139 -0.5204 -0.7802 -1.1618
10091TIP3   OH251687   1.184   3.679  10.893  0.0344 -0.4748  0.1529
10091TIP3    H151688   1.115   3.731  10.934 -0.0253 -0.3030 -0.1653
10091TIP3    H251689   1.257   3.740  10.881  0.4031 -0.7547  0.8748
10092TIP3   OH251690   0.052   3.097  13.386  0.4821 -0.2209 -0.0643
10092TIP3    H151691  -0.027   3.069  13.340  0.8149  0.3392 -1.0004
10092TIP3    H251692   0.033   3.081  13.479 -1.1111  0.7865 -0.1827
10093TIP3   OH251693   3.352   4.608  16.262 -0.3220 -0.2105 -0.1341
10093TIP3    H151694   3.398   4.528  16.285 -0.7126 -0.4817 -0.2783
10093TIP3    H251695   3.260   4.589  16.279 -0.3668  0.3811  0.3105
10094TIP3   OH251696   3.722   0.303   1.221  0.0825 -0.0099 -0.3800
10094TIP3    H151697   3.667   0.237   1.264  0.3121 -0.0650 -0.1678
10094TIP3    H251698   3.808   0.292   1.261  0.1667  0.2973 -0.4743
10095TIP3   OH251699   1.386   0.366  14.501 -0.2240 -0.2902  0.4588
10095TIP3    H151700   1.311   0.409  14.459 -0.2997  1.2610  2.0598
10095TIP3    H251701   1.348   0.317  14.573  0.2249 -0.2239  0.7438
10096TIP3   OH251702   3.064   5.908   1.707  0.3737  0.3006  0.1016
10096TIP3    H151703   3.005   5.935   1.778 -0.9532 -1.0462 -0.4163
10096TIP3    H251704   3.134   5.861   1.751  0.4891  0.9682  0.6505
10097TIP3   OH251705   4.055   1.519   4.569 -0.6160  0.1484  0.2090
10097TIP3    H151706   4.071   1.525   4.664  0.4457  1.6722 -0.0279
10097TIP3    H251707   3.965   1.549   4.559 -1.3757 -1.7899  0.8913
10098TIP3   OH251708   4.454   4.242  17.163 -0.0373 -0.0129 -0.3809
10098TIP3    H151709   4.453   4.148  17.178 -1.2667 -0.2253 -1.6036
10098TIP3    H251710   4.404   4.279  17.236  0.6039 -0.2708  0.2018
10099TIP3   OH251711   4.569   4.841  12.715 -0.4953 -0.5286 -0.3075
10099TIP3    H151712   4.573   4.907  12.645  0.2189 -1.1424 -0.8580
10099TIP3    H251713   4.638   4.779  12.693 -0.1523 -0.6434  1.0556
10100TIP3   OH251714   5.411   5.457  11.142 -0.3425  0.1352  0.7784
10100TIP3    H151715   5.465   5.397  11.194 -1.2824 -0.3750  1.1817
10100TIP3    H251716   5.328   5.462  11.190 -1.3750 -0.6292 -0.8424
10101TIP3   OH251717   1.036   1.261   6.296 -0.2876 -0.7894 -0.0539
10101TIP3    H151718   1.081   1.316   6.359  0.0580  0.1066 -1.0576
10101TIP3    H251719   0.944   1.262   6.325  0.0198 -1.2564  1.0133
10102TIP3   OH251720   6.385   3.695   3.910 -0.3443  0.3753  0.4403
10102TIP3    H151721   6.480   3.677   3.907 -0.8879 -3.0923 -1.3154
10102TIP3    H251722   6.379   3.790   3.901  2.9440  0.5555 -1.8690
10103TIP3   OH251723   6.186   4.111  16.171  0.3375 -0.1360 -0.0259
10103TIP3    H151724   6.198   4.196  16.213 -0.6225  0.2962 -0.5890
10103TIP3    H251725   6.221   4.048  16.234  2.6749  0.7610 -0.3135
10104TIP3   OH251726   0.621   5.441  14.202  0.4520 -0.3521  0.0096
10104TIP3    H151727   0.696   5.439  14.261 -0.1866  2.7758  1.1609
10104TIP3    H251728   0.545   5.440  14.261 -0.2806  0.2913 -0.8967
10105TIP3   OH251729   3.030   1.115  14.462  0.5482  0.3552  0.1812
10105TIP3    H151730   3.112   1.151  14.497 -0.4055  0.2897  2.7276
10105TIP3    H251731   3.034   1.022  14.483 -0.1239  0.3312  0.2247
10106TIP3   OH251732   1.877   1.226   5.353  0.1353 -0.3957 -0.1193
10106TIP3    H151733   1.892   1.303   5.299  0.9401 -0.6835 -0.3159
10106TIP3    H251734   1.781   1.219   5.359  0.0360 -0.1709 -1.2288
10107TIP3   OH251735   2.525   0.978   0.712 -0.3549 -0.4278  0.0123
10107TIP3    H151736   2.485   1.053   0.667  1.9295 -0.0063 -1.5031
10107TIP3    H251737   2.461   0.953   0.778 -1.8957  1.8579 -0.4831
10108TIP3   OH251738   0.304   4.366   3.500 -1.0947 -0.3472 -0.4078
10108TIP3    H151739   0.385   4.328   3.466 -1.2901 -0.7734 -0.4067
10108TIP3    H251740   0.243   4.292   3.504 -1.0625 -0.3214  0.9203
10109TIP3   OH251741   0.792   0.213   1.738 -0.0158  0.1986 -0.2884
10109TIP3    H151742   0.773   0.119   1.738  2.7877 -0.4606 -1.4231
10109TIP3    H251743   0.850   0.226   1.813  0.2373  0.8825 -0.5964
10110TIP3   OH251744   3.486   1.133  13.708  0.1547  0.2979  0.1708
10110TIP3    H151745   3.571   1.093  13.727  0.4308  1.3045  1.1971
10110TIP3    H251746   3.482   1.135  13.613  0.6819 -0.9853  0.1041
10111TIP3   OH251747   1.288   5.328   4.704 -0.2402 -0.4996 -0.0842
10111TIP3    H151748   1.333   5.264   4.760 -0.4452  0.1121  0.7959
10111TIP3    H251749   1.195   5.310   4.716 -0.2855 -1.8783 -2.0398
10112TIP3   OH251750   3.012   3.967  12.190  0.0039 -0.5926  0.6904
10112TIP3    H151751   2.955   3.899  12.155  1.2881 -1.4075  0.1165
10112TIP3    H251752   2.963   4.003  12.264 -0.6377 -2.2577  1.1312
10113TIP3   OH251753   0.311   4.580   5.596 -0.2013  0.0231 -0.2861
10113TIP3    H151754   0.247   4.540   5.655  0.8433  1.2046  1.7853
10113TIP3    H251755   0.270   4.662   5.569 -0.4192 -0.2239 -0.7217
10114TIP3   OH251756   5.506   5.154  16.119  0.4267 -0.0070  0.1827
10114TIP3    H151757   5.525   5.158  16.026  1.5083 -2.0520  0.2506
10114TIP3    H251758   5.427   5.207  16.131 -0.0377 -0.1519 -1.9694
10115TIP3   OH251759   2.511   0.430  14.894 -0.0469 -0.6463  0.4684
10115TIP3    H151760   2.452   0.480  14.951  0.0164  1.1790 -0.9832
10115TIP3    H251761   2.466   0.346  14.882 -2.1641  0.5130 -0.2318
10116TIP3   OH251762   0.646   0.886   2.901  0.0866 -1.2179  0.2905
10116TIP3    H151763   0.613   0.835   2.975  0.5919 -3.2878 -0.8545
10116TIP3    H251764   0.740   0.895   2.918 -0.3638  1.7408  1.8249
10117TIP3   OH251765   6.033   6.313   2.507 -0.2813  0.7801  0.5822
10117TIP3    H151766   6.089   6.387   2.483 -0.5269  0.7322 -0.1312
10117TIP3    H251767   5.980   6.346   2.580  0.7034  0.8124  1.3045
10118TIP3   OH251768   4.433   0.520   3.184  0.1081  0.6107  0.2908
10118TIP3    H151769   4.427   0.430   3.153  0.3804  0.5278  0.4730
10118TIP3    H251770   4.527   0.537   3.193  0.2106  1.7545 -2.1379
10119TIP3   OH251771   3.011   3.468  14.926 -0.2867  0.3540 -0.6420
10119TIP3    H151772   2.987   3.376  14.924  3.9842 -0.9664 -0.1998
10119TIP3    H251773   3.005   3.493  15.018  1.7741 -0.5935 -0.1952
10120TIP3   OH251774   1.669   2.010  16.727 -0.0795 -0.1859 -0.2688
10120TIP3    H151775   1.588   2.055  16.704  0.3208  1.2515  1.0179
10120TIP3    H251776   1.642   1.942  16.789 -0.4551 -0.5911 -0.8637
10121TIP3   OH251777   1.225   2.484   1.224 -0.2530  0.0075  0.5504
10121TIP3    H151778   1.304   2.530   1.253  1.0916 -1.2792 -0.8309
10121TIP3    H251779   1.182   2.546   1.165 -1.2604  1.3710  2.6001
10122TIP3   OH251780   5.991   0.048  15.049  0.3460 -0.5424 -0.1779
10122TIP3    H151781   5.932   0.114  15.087  1.2956  1.0061 -1.2807
10122TIP3    H251782   6.034   0.093  14.977  2.1168 -1.9563 -0.0739
10123TIP3   OH251783   1.337   5.359  15.564 -0.5415  0.0350 -0.2094
10123TIP3    H151784   1.339   5.283  15.622 -0.8047 -0.3852 -0.7408
10123TIP3    H251785   1.267   5.415  15.599 -1.2204 -0.5786 -0.5548
10124TIP3   OH251786   3.624   3.253  14.105  0.0143  0.2616  0.4409
10124TIP3    H151787   3.568   3.180  14.080  1.5157 -0.6301 -0.5517
10124TIP3    H251788   3.630   3.248  14.200 -1.3418  0.2177  0.5326
10125TIP3   OH251789   3.889   3.464   2.101  0.1573 -0.5307  0.6276
10125TIP3    H151790   3.948   3.401   2.143 -0.1656 -0.2555  1.5201
10125TIP3    H251791   3.867   3.424   2.017  2.4211 -0.1760 -0.2056
10126TIP3   OH251792   4.709   2.678  11.486 -0.2393  0.2233 -0.4987
10126TIP3    H151793   4.780   2.646  11.542 -0.4367 -0.6512 -0.7289
10126TIP3    H251794   4.675   2.599  11.443 -0.1351  0.8527 -1.7961
10127TIP3   OH251795   5.410   6.055  13.120 -0.0930  0.5509 -0.0606
10127TIP3    H151796   5.466   6.085  13.191  0.5218 -0.2737 -0.1922
10127TIP3    H251797   5.321   6.061  13.155  0.1913  0.3402  0.7052
10128TIP3   OH251798   3.150   0.175  16.587  0.0593 -0.1186  0.1645
10128TIP3    H151799   3.145   0.266  16.559 -3.0756 -0.5972 -1.2872
10128TIP3    H251800   3.156   0.125  16.506  0.7588 -1.2593  0.8886
10129TIP3   OH251801   4.922   4.434   4.302  0.0077 -0.1941 -0.1720
10129TIP3    H151802   4.841   4.417   4.349  0.2535 -1.5362 -0.1968
10129TIP3    H251803   4.894   4.454   4.212 -0.2601 -2.3463 -0.6231
10130TIP3   OH251804   2.163   1.375  16.283  0.2882 -0.3972  0.4754
10130TIP3    H151805   2.125   1.447  16.333 -0.4497 -1.1394  1.0359
10130TIP3    H251806   2.100   1.358  16.213  0.5042 -0.4268  0.2886
10131TIP3   OH251807   0.316   1.823   2.680  0.1615  0.5565 -0.3708
10131TIP3    H151808   0.273   1.871   2.751  0.2336  0.0340  0.0371
10131TIP3    H251809   0.398   1.791   2.720 -0.0297 -0.1601 -0.5371
10132TIP3   OH251810   4.060   0.509  14.195  0.1241  0.4149 -0.6104
10132TIP3    H151811   4.072   0.587  14.140  0.5649  0.5913 -0.2754
10132TIP3    H251812   4.107   0.530  14.276 -0.0849 -0.0466 -0.3667
10133TIP3   OH251813   2.907   1.214   2.874 -0.2812 -0.0009 -0.6344
10133TIP3    H151814   2.815   1.219   2.898 -0.0065  1.9937  0.1466
10133TIP3    H251815   2.908   1.163   2.793 -1.6203 -3.6727  1.4110
10134TIP3   OH251816   2.530   4.659   1.725  0.1296  0.6464 -0.7644
10134TIP3    H151817   2.512   4.664   1.631 -1.5017  1.6071 -0.4452
10134TIP3    H251818   2.504   4.745   1.758 -1.3263 -0.3658  0.8652
10135TIP3   OH251819   1.719   5.723  11.769  0.3054  0.0438  0.6387
10135TIP3    H151820   1.764   5.775  11.837  0.7314 -0.0824  0.4597
10135TIP3    H251821   1.663   5.663  11.818  0.8137 -0.2321  0.8928
10136TIP3   OH251822   3.554   2.552  13.593 -0.1336  0.2849 -0.0477
10136TIP3    H151823   3.507   2.499  13.657 -0.6333  1.4451  0.5836
10136TIP3    H251824   3.646   2.541  13.616 -0.0587 -1.6441 -1.0123
10137TIP3   OH251825   6.579   5.897  12.714  0.1054  0.1301 -0.1020
10137TIP3    H151826   6.588   5.816  12.763  0.7762  0.6796  0.7273
10137TIP3    H251827   6.628   5.883  12.633  2.0615  0.4062  0.9721
10138TIP3   OH251828   4.497   4.074   3.013 -0.3094 -0.0513  0.2462
10138TIP3    H151829   4.404   4.060   2.995 -0.9038  2.0778  1.2620
10138TIP3    H251830   4.501   4.097   3.106  1.1157  0.7253  0.0305
10139TIP3   OH251831   2.950   3.103   1.406  0.3891  0.1619 -0.1017
10139TIP3    H151832   3.003   3.023   1.408  1.1556  0.6158 -1.3857
10139TIP3    H251833   2.872   3.079   1.355  0.5050  0.1692 -0.2819
10140TIP3   OH251834   0.279   6.132   3.147 -0.0911 -0.1231  0.1487
10140TIP3    H151835   0.184   6.143   3.157  0.2012  1.2379  1.8692
10140TIP3    H251836   0.295   6.042   3.175 -0.9506 -0.6366 -0.9249
10141TIP3   OH251837   6.207   0.293  15.544 -0.7319 -0.0175 -0.5068
10141TIP3    H151838   6.125   0.296  15.594  0.0824  1.2860  0.8101
10141TIP3    H251839   6.206   0.374  15.492 -0.1333  0.1565 -0.2499
10142TIP3   OH251840   6.385   4.806   4.858  0.2339  0.0173  0.3869
10142TIP3    H151841   6.397   4.871   4.927  0.5367  0.3949 -0.0146
10142TIP3    H251842   6.425   4.726   4.892  0.8023  0.3300  0.4546
10143TIP3   OH251843   0.345   0.884  14.253  0.6528 -0.2405  0.4654
10143TIP3    H151844   0.398   0.804  14.259  0.4191 -0.5234 -0.8374
10143TIP3    H251845   0.409   0.955  14.250  0.9484 -0.5195 -0.1552
10144TIP3   OH251846   3.406   1.109  15.882  0.0669 -0.3567 -0.4338
10144TIP3    H151847   3.360   1.174  15.831  0.4408  0.2858  0.0379
10144TIP3    H251848   3.364   1.110  15.968  1.3684  0.7444  0.2332
10145TIP3   OH251849   1.775   2.610   3.055  0.2471 -0.0317  0.6246
10145TIP3    H151850   1.846   2.662   3.017  1.1935 -1.4944  0.3327
10145TIP3    H251851   1.796   2.606   3.148  1.0031 -1.1190  0.4217
10146TIP3   OH251852   3.273   2.981  15.975 -0.4846 -0.7381  0.3615
10146TIP3    H151853   3.290   2.969  15.882  2.2752  1.1374  0.5006
10146TIP3    H251854   3.190   3.028  15.978 -0.0753  0.1702 -1.2392
10147TIP3   OH251855   0.102   4.726  12.687 -0.3714  0.1968  0.0051
10147TIP3    H151856   0.195   4.715  12.707  0.0989  0.7674 -1.6667
10147TIP3    H251857   0.073   4.640  12.656 -0.7128 -0.2722  1.5265
10148TIP3   OH251858   0.280   1.028  11.715  0.3001  0.3098  0.4011
10148TIP3    H151859   0.243   1.097  11.660  0.8933  1.0022  0.8492
10148TIP3    H251860   0.332   0.975  11.655  0.2130  0.5228  0.1345
10149TIP3   OH251861   6.729   2.723  13.593 -0.2566 -0.0462 -0.9615
10149TIP3    H151862   6.656   2.779  13.568 -0.4875  0.4453  0.6978
10149TIP3    H251863   6.691   2.659  13.654  1.0834  1.8660  2.1036
10150TIP3   OH251864   4.494   5.663   1.462 -0.2778  0.1899 -0.3110
10150TIP3    H151865   4.520   5.605   1.390  0.6697 -0.7749  0.7653
10150TIP3    H251866   4.570   5.720   1.476 -0.5533  0.5440 -0.2419
10151TIP3   OH251867   5.506   5.304   2.987 -0.2208 -0.2384  0.0752
10151TIP3    H151868   5.543   5.391   2.998 -1.9463  0.3919  1.2972
10151TIP3    H251869   5.499   5.269   3.076 -1.7109 -0.6776 -0.1955
10152TIP3   OH251870   1.260   2.879   1.680  0.3251 -0.5064  0.1090
10152TIP3    H151871   1.252   2.849   1.771  0.6314  0.2101  0.3777
10152TIP3    H251872   1.349   2.912   1.674  0.7927 -1.8330 -0.8510
10153TIP3   OH251873   1.261   6.066  10.671 -0.2361 -0.2144 -0.2749
10153TIP3    H151874   1.212   6.141  10.636  1.8504  0.1215 -2.8478
10153TIP3    H251875   1.230   5.991  10.620  1.1891 -0.1488 -1.2908
10154TIP3   OH251876   4.848   6.409  17.213 -0.1134 -0.1789  0.0782
10154TIP3    H151877   4.929   6.453  17.239 -0.2584  1.4169 -1.8855
10154TIP3    H251878   4.878   6.333  17.162  0.1192 -1.4173  1.9689
10155TIP3   OH251879   0.208   5.784  11.676 -0.4310 -0.8477  0.5278
10155TIP3    H151880   0.177   5.862  11.630  1.8389 -0.6623 -0.8414
10155TIP3    H251881   0.259   5.818  11.749  0.3055 -1.0262  0.1082
10156TIP3   OH251882   3.468   3.197   0.037 -0.6864  0.6817 -0.3609
10156TIP3    H151883   3.518   3.144   0.099 -2.1942  1.1234  1.3020
10156TIP3    H251884   3.479   3.151  -0.047  1.4905  0.1283  0.1445
10157TIP3   OH251885   1.283   3.502  15.477  0.1097 -0.2711  0.2072
10157TIP3    H151886   1.303   3.410  15.497 -0.3414 -0.2134  0.9448
10157TIP3    H251887   1.361   3.533  15.430  0.3431 -0.9762  0.1038
10158TIP3   OH251888   5.512   4.601   3.619  0.3497  0.3708 -0.4576
10158TIP3    H151889   5.492   4.535   3.686  0.7373 -0.0139 -0.7077
10158TIP3    H251890   5.554   4.672   3.667 -0.2139  0.5025 -0.1611
10159TIP3   OH251891   5.172   3.003   2.633  0.3416  0.1461 -0.2451
10159TIP3    H151892   5.093   2.958   2.665  1.2877  0.3140  2.6172
10159TIP3    H251893   5.241   2.975   2.693  1.8857  2.0445 -1.0462
10160TIP3   OH251894   4.119   5.358  12.944 -0.1144 -0.2002  0.0537
10160TIP3    H151895   4.133   5.396  12.857 -0.8893 -0.5923 -0.2513
10160TIP3    H251896   4.196   5.303  12.960  1.2189  1.7074  0.6475
10161TIP3   OH251897   1.896   5.183   4.576  0.7035 -0.0851  0.4457
10161TIP3    H151898   1.839   5.108   4.566  1.3225 -0.4126 -0.7594
10161TIP3    H251899   1.876   5.217   4.664 -2.0195  0.4030 -0.2826
10162TIP3   OH251900   3.922   6.562  12.213 -0.1594 -0.0965  0.0343
10162TIP3    H151901   3.893   6.587  12.301  0.4287 -1.6160  0.7025
10162TIP3    H251902   3.867   6.487  12.190 -0.8211  0.7452 -1.2352
10163TIP3   OH251903   0.849   3.145   0.151  0.1928 -0.0258 -0.1643
10163TIP3    H151904   0.885   3.177   0.068 -0.3333 -0.1394 -0.4475
10163TIP3    H251905   0.915   3.085   0.184  0.5046  0.1831 -0.3960
10164TIP3   OH251906   3.561   2.782   4.011 -0.2753 -0.1979 -0.0657
10164TIP3    H151907   3.643   2.737   3.991 -1.4873 -2.1512 -0.9718
10164TIP3    H251908   3.561   2.859   3.955  0.7471 -0.4040 -0.3613
10165TIP3   OH251909   0.621   4.838  13.938 -0.0282  0.0695  0.1825
10165TIP3    H151910   0.568   4.759  13.928  0.9466 -0.5792  0.0298
10165TIP3    H251911   0.574   4.890  14.003 -1.5722  0.1490 -0.9441
10166TIP3   OH251912   3.424   6.197   3.676 -0.3013 -0.2770 -0.5867
10166TIP3    H151913   3.343   6.230   3.637  0.1916 -0.0698 -1.4389
10166TIP3    H251914   3.479   6.274   3.685  0.0604 -0.5320 -0.6217
10167TIP3   OH251915   5.648   3.801  14.324  0.2982 -0.4941  0.6103
10167TIP3    H151916   5.554   3.788  14.320  0.1840  0.4398 -0.5564
10167TIP3    H251917   5.660   3.874  14.385  0.1457  0.1997 -0.1695
10168TIP3   OH251918   4.298   3.113   0.953 -0.3351 -0.0828 -0.5744
10168TIP3    H151919   4.357   3.134   1.025 -0.4616  0.4063 -0.6049
10168TIP3    H251920   4.213   3.146   0.982 -0.6051 -0.8140 -0.5123
10169TIP3   OH251921   2.360   4.384   1.397 -1.1436  0.2592  0.0992
10169TIP3    H151922   2.454   4.402   1.395 -1.0715 -0.1858 -1.6937
10169TIP3    H251923   2.319   4.471   1.393 -0.8372  0.4569  0.9326
10170TIP3   OH251924   6.120   4.074   0.994 -0.1297  0.4832  0.1899
10170TIP3    H151925   6.096   3.981   0.992  0.8087  0.1924  1.4867
10170TIP3    H251926   6.205   4.078   0.951  0.3789  0.5525  1.1885
10171TIP3   OH251927   5.967   3.891   1.482  0.1414  0.4641 -0.2198
10171TIP3    H151928   5.892   3.837   1.505 -0.2251  0.7674 -0.7002
10171TIP3    H251929   5.973   3.885   1.387  1.2807 -0.2948 -0.1248
10172TIP3   OH251930   0.026   6.662  15.821  0.1135 -0.1772  0.1186
10172TIP3    H151931  -0.030   6.739  15.831  2.4150  1.5013  0.6857
10172TIP3    H251932   0.104   6.694  15.775  0.8668 -2.3281 -0.2416
10173TIP3   OH251933   1.205   2.267  14.455 -0.2371  0.8111 -0.3956
10173TIP3    H151934   1.168   2.187  14.417 -3.8061  1.6023  0.9811
10173TIP3    H251935   1.197   2.254  14.549  1.1165  1.9910 -0.0861
10174TIP3   OH251936   3.731   5.015  14.757 -0.0474 -0.3498  0.2947
10174TIP3    H151937   3.799   4.950  14.737 -0.8579 -1.4585  1.0014
10174TIP3    H251938   3.772   5.074  14.820  0.8068  0.0333 -0.5999
10175TIP3   OH251939   6.764   0.151   4.551 -0.2647  0.2190  0.4135
10175TIP3    H151940   6.791   0.110   4.469 -0.8164 -2.3432  1.4222
10175TIP3    H251941   6.747   0.243   4.528 -1.3986 -0.6247 -2.5426
10176TIP3   OH251942   0.289   2.089   6.085 -0.1159 -0.1355  0.1121
10176TIP3    H151943   0.354   2.049   6.143 -0.1877  2.3764  2.1141
10176TIP3    H251944   0.334   2.165   6.048 -0.2199 -1.4237 -2.9526
10177TIP3   OH251945   2.280   5.163   1.894  1.0514 -0.4719 -0.4241
10177TIP3    H151946   2.239   5.247   1.871 -0.6868 -1.8394 -2.7260
10177TIP3    H251947   2.252   5.148   1.985  0.2450  0.8038 -0.4279
10178TIP3   OH251948   5.695   3.650   4.731  0.3265 -0.3017  0.2040
10178TIP3    H151949   5.709   3.556   4.727 -1.6731 -0.6087 -2.3435
10178TIP3    H251950   5.757   3.687   4.668  0.0363 -0.1000  0.0305
10179TIP3   OH251951   1.794   4.621   3.174  0.4518 -0.2261  0.8275
10179TIP3    H151952   1.808   4.545   3.117  1.2386  0.6210 -0.1559
10179TIP3    H251953   1.751   4.685   3.118  1.0047  0.5277  1.2452
10180TIP3   OH251954   2.673   0.170   3.386 -0.3403  0.0111  0.2486
10180TIP3    H151955   2.620   0.218   3.322 -1.8931 -1.2096  0.5589
10180TIP3    H251956   2.747   0.136   3.336 -0.1001  1.2978 -0.3157
10181TIP3   OH251957   4.326   6.746  12.772  0.3634  0.0281  0.1469
10181TIP3    H151958   4.329   6.815  12.707  1.6979 -0.4939 -0.3911
10181TIP3    H251959   4.233   6.732  12.790  0.0268  0.8179 -0.9524
10182TIP3   OH251960   5.391   6.718  16.151 -0.5493  0.2347 -0.2791
10182TIP3    H151961   5.472   6.677  16.120  1.3671  2.3456  1.5033
10182TIP3    H251962   5.343   6.647  16.193  1.3133 -0.7844  0.2640
10183TIP3   OH251963   6.278   2.772  14.781  0.3658  0.5554 -0.3226
10183TIP3    H151964   6.314   2.756  14.868 -0.2422  1.0935  0.0394
10183TIP3    H251965   6.281   2.867  14.770 -1.4719  0.6881 -0.0207
10184TIP3   OH251966   5.955   4.256   0.691 -0.2403 -0.1874 -0.5315
10184TIP3    H151967   5.934   4.170   0.727 -1.7530 -0.7720 -2.6054
10184TIP3    H251968   5.871   4.303   0.691 -0.0346  0.2477 -1.9268
10185TIP3   OH251969   5.172   4.523  16.438  0.2214 -0.5125 -0.0560
10185TIP3    H151970   5.207   4.599  16.391  2.1822 -2.3544 -1.8020
10185TIP3    H251971   5.234   4.508  16.509  1.0651 -1.6438 -0.9822
10186TIP3   OH251972   1.064   0.615  11.083  0.4796 -0.2316  0.4939
10186TIP3    H151973   1.059   0.710  11.082 -0.4970 -0.2693  0.1258
10186TIP3    H251974   1.093   0.593  11.171  1.5435  0.4317  0.3177
10187TIP3   OH251975   3.231   3.197   1.178  0.1079 -1.2902  0.5511
10187TIP3    H151976   3.186   3.256   1.239  0.9970 -0.1694  0.1551
10187TIP3    H251977   3.243   3.116   1.227 -0.9360 -1.0801  1.1866
10188TIP3   OH251978   1.967   3.323   5.493  0.0001 -0.6894  0.1078
10188TIP3    H151979   2.053   3.359   5.472 -1.0640  2.4335  0.5223
10188TIP3    H251980   1.960   3.332   5.589 -0.7814 -0.8729  0.0737
10189TIP3   OH251981   3.000   1.480  14.314 -0.3213  0.2416  0.1123
10189TIP3    H151982   2.966   1.405  14.265 -1.8335  1.6291 -1.0711
10189TIP3    H251983   2.972   1.465  14.405 -0.0404 -0.9203  0.0141
10190TIP3   OH251984   2.556   0.596   4.917  0.6732  0.3582  0.0228
10190TIP3    H151985   2.551   0.509   4.878  1.3245  0.0917  0.5001
10190TIP3    H251986   2.585   0.580   5.007 -1.1585  0.9190  0.7620
10191TIP3   OH251987   2.422   6.160  15.902  0.4116 -0.4473  0.0961
10191TIP3    H151988   2.356   6.124  15.962  0.9453 -0.3031  0.7806
10191TIP3    H251989   2.441   6.247  15.936 -0.1049  0.0927 -0.9556
10192TIP3   OH251990   1.136   1.075  16.970  0.1303  0.2605 -0.0874
10192TIP3    H151991   1.052   1.119  16.979 -0.8029 -0.8024 -2.6429
10192TIP3    H251992   1.117   0.983  16.988  0.5888 -0.0718 -1.2280
10193TIP3   OH251993   6.663   0.196   4.899 -0.4383 -0.4103  0.1540
10193TIP3    H151994   6.703   0.124   4.850 -0.4091 -0.0596 -0.3496
10193TIP3    H251995   6.616   0.247   4.832 -1.1409 -0.4206  0.6263
10194TIP3   OH251996   1.825   4.884  14.043  0.1849  0.4758 -0.4595
10194TIP3    H151997   1.768   4.836  13.983 -3.5703  2.7652  0.9746
10194TIP3    H251998   1.841   4.823  14.115 -1.6469  0.1602 -0.2789
10195TIP3   OH251999   2.602   1.048  14.469  0.0221 -0.1300 -0.4106
10195TIP3    H152000   2.561   1.104  14.534 -0.4481  0.7649 -1.4493
10195TIP3    H252001   2.622   0.967  14.516  0.2266  0.6975  0.9814
10196TIP3   OH252002   2.159   1.070  15.292 -0.7073 -0.0537  0.0567
10196TIP3    H152003   2.248   1.079  15.258 -0.4647  0.1548  0.7207
10196TIP3    H252004   2.104   1.119  15.229 -0.0957  1.4753  0.6531
10197TIP3   OH252005   3.643   2.813   2.180 -0.1420 -0.3153 -0.3266
10197TIP3    H152006   3.651   2.841   2.271  0.7319  0.6790 -0.6758
10197TIP3    H252007   3.703   2.739   2.171  0.3525  0.0754 -0.2692
10198TIP3   OH252008   6.680   3.123   3.397 -0.5604  0.5710 -0.3166
10198TIP3    H152009   6.760   3.135   3.346  0.1593  0.1704  0.6895
10198TIP3    H252010   6.682   3.193   3.462 -0.2745 -0.2996  0.6360
10199TIP3   OH252011   3.411   1.430   1.705 -0.2975 -0.3750  0.5793
10199TIP3    H152012   3.373   1.517   1.692 -0.3782 -0.3702  0.8392
10199TIP3    H252013   3.336   1.375   1.728 -0.3250 -0.6280 -0.1092
10200TIP3   OH252014   2.984   3.217  12.281 -0.0240  0.0656  0.5598
10200TIP3    H152015   3.034   3.150  12.327  1.0472 -0.9253 -1.8675
10200TIP3    H252016   2.972   3.182  12.193 -0.1031  2.7247 -0.5920
10201TIP3   OH252017   2.932   4.704   5.031  0.1458 -0.5580 -0.1859
10201TIP3    H152018   2.986   4.663   4.964 -0.5738  0.1477 -1.2144
10201TIP3    H252019   2.855   4.735   4.985 -0.0797  0.5118  0.8520
10202TIP3   OH252020   4.582   4.647  11.831  0.9518  1.0708  0.1670
10202TIP3    H152021   4.498   4.626  11.790 -0.6236  2.8621  2.2447
10202TIP3    H252022   4.631   4.565  11.829 -1.0453 -0.1705 -0.6154
10203TIP3   OH252023   6.511   2.907  13.533  0.2116 -0.0388  0.1184
10203TIP3    H152024   6.547   2.975  13.476  1.8319 -0.6025  0.4254
10203TIP3    H252025   6.470   2.955  13.605  2.0911  0.6603  0.7912
10204TIP3   OH252026   2.205   0.545  17.258 -0.3494  0.4296 -0.0469
10204TIP3    H152027   2.114   0.572  17.249 -0.4346  0.9472  1.9883
10204TIP3    H252028   2.210   0.503  17.343  1.4980  1.2607  0.3119
10205TIP3   OH252029   4.331   0.122  11.094 -0.2442 -0.1305  0.1720
10205TIP3    H152030   4.237   0.112  11.110 -0.3638  1.1337  0.3183
10205TIP3    H252031   4.350   0.059  11.024 -1.4773  0.5836 -0.8396
10206TIP3   OH252032   5.506   1.867  11.624 -0.3382  0.0838 -0.3169
10206TIP3    H152033   5.541   1.934  11.684  1.9262 -0.6875 -0.6725
10206TIP3    H252034   5.498   1.912  11.540  0.0783  0.2078 -0.2919
10207TIP3   OH252035   3.643   3.179   0.622 -0.2233 -0.2313 -0.2412
10207TIP3    H152036   3.629   3.272   0.634  0.4886 -0.1866  0.3367
10207TIP3    H252037   3.739   3.170   0.619 -0.2873 -0.9357 -0.3010
10208TIP3   OH252038   4.764   0.026   4.982 -0.4568  0.1539 -0.0272
10208TIP3    H152039   4.698   0.093   4.963  0.1753  1.1061  0.9489
10208TIP3    H252040   4.839   0.076   5.014  0.5394 -0.9497 -0.5916
10209TIP3   OH252041   2.736   3.471  17.031 -0.3719 -0.1012  0.4912
10209TIP3    H152042   2.784   3.467  17.113 -0.0399  0.4140  0.3225
10209TIP3    H252043   2.794   3.428  16.967  0.5133  1.7609 -0.0167
10210TIP3   OH252044   5.129   5.331  15.832  0.3157  0.0112  0.0790
10210TIP3    H152045   5.191   5.379  15.777 -0.1516 -0.2519 -0.6916
10210TIP3    H252046   5.069   5.290  15.770 -1.7197  1.7056  0.8346
10211TIP3   OH252047   5.773   6.721  15.640  0.2756 -0.4775 -0.3118
10211TIP3    H152048   5.762   6.815  15.624  2.1048 -0.5158 -2.2736
10211TIP3    H252049   5.721   6.679  15.572  0.2651 -0.8654 -0.0658
10212TIP3   OH252050   3.041   6.563   3.236 -1.0352 -0.3283  0.0758
10212TIP3    H152051   3.020   6.531   3.148 -1.3979 -1.3544  0.5288
10212TIP3    H252052   3.130   6.533   3.251  0.0380  2.0344 -0.9164
10213TIP3   OH252053   5.865   6.398   0.387  0.5195 -0.1454 -0.5818
10213TIP3    H152054   5.799   6.467   0.397  0.5738  0.0950 -1.7203
10213TIP3    H252055   5.948   6.445   0.388  0.6842 -0.4225  0.5954
10214TIP3   OH252056   6.255   1.821  12.170  0.0587 -0.1278 -0.4774
10214TIP3    H152057   6.317   1.883  12.131  2.1322 -1.9618 -0.2638
10214TIP3    H252058   6.249   1.848  12.262  0.4811  0.1178 -0.5198
10215TIP3   OH252059   2.427   2.793   4.031 -0.1227  0.5830 -0.3628
10215TIP3    H152060   2.445   2.732   4.103 -0.7867  0.5994 -0.1764
10215TIP3    H252061   2.352   2.755   3.986 -0.5582  1.2699 -0.2338
10216TIP3   OH252062   2.643   1.171   5.339  0.1089 -0.4654 -0.1197
10216TIP3    H152063   2.661   1.144   5.249  1.5170 -0.8430  0.2550
10216TIP3    H252064   2.597   1.255   5.330 -0.2288 -0.7577 -1.1974
10217TIP3   OH252065   5.620   2.399   4.728  0.1525  0.6114  0.2477
10217TIP3    H152066   5.541   2.451   4.743 -0.4802 -0.5962  1.2893
10217TIP3    H252067   5.661   2.440   4.652 -1.1934  1.5911  0.0030
10218TIP3   OH252068   1.943   1.244  13.103 -0.0234  0.3837  0.2809
10218TIP3    H152069   1.948   1.198  13.187  0.2899 -1.1581 -0.5431
10218TIP3    H252070   1.963   1.335  13.125  0.4061 -0.0419  1.8216
10219TIP3   OH252071   0.114   5.570   0.391  0.6783 -0.0081 -0.2501
10219TIP3    H152072   0.121   5.513   0.314  1.1970  0.4281 -0.5332
10219TIP3    H252073   0.096   5.510   0.463 -0.8978 -0.3363 -0.8629
10220TIP3   OH252074   4.335   1.640   0.573 -0.2905  0.5108 -0.0609
10220TIP3    H152075   4.322   1.695   0.650 -1.0261 -0.6713  0.6939
10220TIP3    H252076   4.284   1.682   0.504 -1.8292  0.1429  0.8200
10221TIP3   OH252077   1.542   0.513   4.422  0.2806 -0.2654 -0.1723
10221TIP3    H152078   1.582   0.599   4.409  1.2803 -0.5768  0.7012
10221TIP3    H252079   1.613   0.457   4.454 -0.6153 -1.1036  0.4523
10222TIP3   OH252080   3.988   5.742  13.982  0.3405 -0.0411 -0.3127
10222TIP3    H152081   4.008   5.658  13.941  0.9310  0.5408 -1.2778
10222TIP3    H252082   3.910   5.772  13.936 -0.0615 -0.2047  0.2561
10223TIP3   OH252083   5.861   5.700  15.591  0.3455 -0.7998  0.0573
10223TIP3    H152084   5.946   5.700  15.547  0.2151 -2.7417 -0.2546
10223TIP3    H252085   5.846   5.609  15.616 -1.9998 -0.6607 -0.5866
10224TIP3   OH252086   4.877   1.867  14.456  0.8606 -0.2108 -0.4832
10224TIP3    H152087   4.864   1.889  14.363 -0.3120  1.2543 -0.0088
10224TIP3    H252088   4.823   1.789  14.470  1.2916 -0.6328 -1.0779
10225TIP3   OH252089   6.366   4.171  12.605  0.2737  0.2166 -0.1246
10225TIP3    H152090   6.387   4.091  12.653 -1.2109  0.1414  0.4375
10225TIP3    H252091   6.335   4.140  12.519 -1.5051  0.0708  0.5233
10226TIP3   OH252092   6.023   0.148  16.494 -0.3887  0.4456 -0.7478
10226TIP3    H152093   6.065   0.085  16.553  1.2959  0.0389 -2.3210
10226TIP3    H252094   6.064   0.232  16.516 -0.4860  0.4744 -0.6745
10227TIP3   OH252095   5.795   2.073  12.324  0.3493 -0.3725 -0.2468
10227TIP3    H152096   5.771   2.140  12.387  0.4491 -0.8469  0.3127
10227TIP3    H252097   5.888   2.057  12.340  1.2313  1.7475 -2.6653
10228TIP3   OH252098   3.351   4.172  12.210  0.2083  0.0878  0.2711
10228TIP3    H152099   3.298   4.153  12.287  1.8202  2.9903  2.2719
10228TIP3    H252100   3.308   4.247  12.169  0.2959 -0.4002 -0.7524
10229TIP3   OH252101   2.040   4.762   4.796  0.8448 -0.0985  0.5811
10229TIP3    H152102   2.019   4.729   4.884  0.7772  0.9179  0.9607
10229TIP3    H252103   2.113   4.823   4.811 -0.4596  1.6268  0.2398
10230TIP3   OH252104   5.144   1.443   2.390 -0.0599  0.1554  0.3375
10230TIP3    H152105   5.151   1.458   2.296 -1.1525 -0.7126  0.0859
10230TIP3    H252106   5.196   1.364   2.405  0.5486  0.5908  0.5679
10231TIP3   OH252107   5.911   3.583   6.049 -0.2059  0.1997 -0.0883
10231TIP3    H152108   5.935   3.589   5.956 -1.0837 -0.9963 -0.4189
10231TIP3    H252109   5.882   3.671   6.072 -0.8286  0.3185 -1.2131
10232TIP3   OH252110   0.444   4.885   3.546 -0.5680  0.4183  0.3041
10232TIP3    H152111   0.360   4.913   3.583 -0.8957  0.7072 -0.6412
10232TIP3    H252112   0.470   4.956   3.488  1.1570  1.0981  1.7968
10233TIP3   OH252113   0.045   4.142   0.023 -0.2067  0.9452 -0.5796
10233TIP3    H152114   0.080   4.131  -0.065 -0.8036 -0.7972 -0.6374
10233TIP3    H252115   0.096   4.081   0.077  1.1477  3.0039  0.6287
10234TIP3   OH252116   2.199   1.314   2.664 -0.4637 -0.4503  0.1410
10234TIP3    H152117   2.271   1.277   2.612 -0.6515  1.6535 -1.7814
10234TIP3    H252118   2.147   1.238   2.690  0.1797 -1.7129 -1.9985
10235TIP3   OH252119   0.674   0.648   2.320 -0.3767  0.2900 -0.3525
10235TIP3    H152120   0.686   0.652   2.225 -0.1487  0.0025 -0.3329
10235TIP3    H252121   0.584   0.617   2.331 -0.5673  0.7845 -0.4765
10236TIP3   OH252122   1.112   1.816  12.671  0.4733  0.1278 -0.1605
10236TIP3    H152123   1.153   1.900  12.694  0.2190  0.3007 -0.3266
10236TIP3    H252124   1.037   1.841  12.616  0.1245 -0.1827  0.1737
10237TIP3   OH252125   4.812   0.648   5.052  0.1025  0.0581  0.1154
10237TIP3    H152126   4.827   0.587   5.125 -1.6312 -1.0825 -0.4076
10237TIP3    H252127   4.814   0.735   5.092 -3.9146 -0.5929  2.2818
10238TIP3   OH252128   5.090   5.933   0.995 -0.2121  0.3743  0.2125
10238TIP3    H152129   5.071   5.916   0.903 -0.5638  0.1181  0.3308
10238TIP3    H252130   5.041   5.866   1.042  1.0919 -0.3949  0.5239
10239TIP3   OH252131   4.609   5.771  13.274  0.0630 -0.1263  0.2594
10239TIP3    H152132   4.538   5.716  13.306  0.5715 -0.3090  1.0790
10239TIP3    H252133   4.638   5.728  13.193 -0.5084 -0.2481  0.1118
10240TIP3   OH252134   0.325   5.602  14.164 -0.5952 -0.3355 -0.5225
10240TIP3    H152135   0.346   5.644  14.081 -3.9784 -0.6006 -1.6801
10240TIP3    H252136   0.319   5.509  14.143 -0.8316 -0.4827  0.1742
10241TIP3   OH252137   0.605   5.562  13.597 -0.4222 -0.3968 -0.4403
10241TIP3    H152138   0.555   5.610  13.531  0.7825  0.7993 -0.5314
10241TIP3    H252139   0.541   5.505  13.639 -1.6155  0.2705 -1.2963
10242TIP3   OH252140   2.977   6.371   2.624  0.6448  0.4598 -0.2848
10242TIP3    H152141   2.970   6.467   2.629 -0.2417  0.3861 -0.0500
10242TIP3    H252142   3.048   6.349   2.684 -0.1223  0.8516  0.7850
10243TIP3   OH252143   0.076   0.661  15.207 -0.3243  0.0599 -0.4618
10243TIP3    H152144   0.120   0.670  15.292 -0.4138 -0.5197 -0.3497
10243TIP3    H252145  -0.004   0.712  15.216 -0.5609 -0.3729 -0.0275
10244TIP3   OH252146   4.387   1.381   1.924 -0.2398 -0.3820 -0.2550
10244TIP3    H152147   4.453   1.434   1.879 -1.3065  1.4734  0.2366
10244TIP3    H252148   4.338   1.338   1.854 -0.2410  0.4130 -0.7482
10245TIP3   OH252149   0.883   2.108  11.608  0.3775  0.4169  0.3000
10245TIP3    H152150   0.952   2.069  11.662 -0.5477 -0.2741  1.0094
10245TIP3    H252151   0.922   2.115  11.521  1.9202  1.5874  1.0283
10246TIP3   OH252152   5.520   5.505  11.748 -0.2383 -0.0313  0.3344
10246TIP3    H152153   5.427   5.488  11.732 -0.0724 -0.6817  0.0037
10246TIP3    H252154   5.563   5.421  11.731  0.5891  0.6125 -0.9926
10247TIP3   OH252155   5.298   2.259  15.930 -0.5580  0.1138 -0.4959
10247TIP3    H152156   5.274   2.344  15.967  2.5137  0.2527  1.5874
10247TIP3    H252157   5.281   2.196  16.000  0.7980 -0.3679 -0.5686
10248TIP3   OH252158   5.633   5.477   0.964  0.0304  0.3330 -0.1585
10248TIP3    H152159   5.604   5.450   1.051 -0.1339 -1.5761 -0.7408
10248TIP3    H252160   5.722   5.509   0.977 -0.2183  0.6766  0.7948
10249TIP3   OH252161   0.937   1.470  15.564 -0.5514  0.8917 -0.0292
10249TIP3    H152162   1.007   1.438  15.623  1.5142  2.1173 -1.6827
10249TIP3    H252163   0.889   1.391  15.539  1.0815 -0.2061  0.1547
10250TIP3   OH252164   4.860   3.606   5.206 -0.4084  0.6122  0.2993
10250TIP3    H152165   4.896   3.692   5.183 -1.0132  0.5929 -0.7975
10250TIP3    H252166   4.926   3.543   5.174 -0.2113  0.6514  0.6277
10251TIP3   OH252167   6.518   5.149  12.234  0.3206  0.0800 -0.1016
10251TIP3    H152168   6.460   5.142  12.159  1.5753 -0.5397 -1.0593
10251TIP3    H252169   6.496   5.073  12.289 -0.7744  0.6797  0.3112
10252TIP3   OH252170   3.079   5.396  12.186 -0.3055  0.2087 -0.0967
10252TIP3    H152171   3.110   5.343  12.112 -0.6613 -0.6467  0.3570
10252TIP3    H252172   3.120   5.356  12.263 -0.8455  0.3889  0.2864
10253TIP3   OH252173   2.442   1.691  14.197 -0.5474 -0.2001 -0.6750
10253TIP3    H152174   2.448   1.641  14.278 -0.3921  0.8227 -0.0307
10253TIP3    H252175   2.373   1.755  14.213  0.9418  1.4390 -0.5161
10254TIP3   OH252176   5.992   4.509  11.292 -0.3010  0.5397  0.0840
10254TIP3    H152177   6.086   4.494  11.303 -0.3542 -0.1288 -0.2853
10254TIP3    H252178   5.978   4.501  11.198 -1.1473 -2.1509  0.3345
10255TIP3   OH252179   3.427   1.949  14.816 -0.3726 -0.4959  0.1192
10255TIP3    H152180   3.441   1.948  14.722 -0.6272  1.0167  0.0395
10255TIP3    H252181   3.473   1.872  14.849  2.6588  0.7539 -0.8470
10256TIP3   OH252182   0.257   2.083  16.595 -0.3612 -0.2214  0.1678
10256TIP3    H152183   0.243   2.020  16.666  2.3043  1.2184  2.1777
10256TIP3    H252184   0.258   2.168  16.639 -0.0677  0.8869 -1.8599
10257TIP3   OH252185   0.445   0.834   5.162  0.3610  0.4124 -0.2336
10257TIP3    H152186   0.463   0.783   5.240 -2.4777 -2.6814 -1.3822
10257TIP3    H252187   0.532   0.851   5.124  1.5693 -1.5708  1.4559
10258TIP3   OH252188   2.004   4.764  16.106 -0.0561  0.3052 -0.0608
10258TIP3    H152189   2.044   4.771  16.192  0.8579 -0.3094 -0.4127
10258TIP3    H252190   2.022   4.674  16.079  0.7160  0.8187 -1.3670
10259TIP3   OH252191   3.146   1.916  12.103  0.1440 -0.4187 -0.8282
10259TIP3    H152192   3.090   1.839  12.095  0.5150 -0.8312  0.4199
10259TIP3    H252193   3.123   1.970  12.027 -0.0087 -1.8232 -1.8110
10260TIP3   OH252194   6.530   4.520  15.432  0.2720 -0.1315 -0.2663
10260TIP3    H152195   6.566   4.431  15.428 -1.8511 -1.0187 -0.9925
10260TIP3    H252196   6.499   4.529  15.522 -1.5097 -1.0262 -0.7414
10261TIP3   OH252197   0.885   2.418  12.736  0.4298 -0.1718  0.0982
10261TIP3    H152198   0.827   2.419  12.811 -0.0014 -0.1459 -0.2342
10261TIP3    H252199   0.856   2.491  12.681  1.5409  0.6006  0.5004
10262TIP3   OH252200   2.030   3.600  16.702  0.6499  0.5733  0.2152
10262TIP3    H152201   2.077   3.530  16.747  2.7999  2.1522  0.5836
10262TIP3    H252202   1.978   3.642  16.770 -0.9785 -0.8415 -0.0879
10263TIP3   OH252203   0.753   3.848  16.098 -0.0602 -0.2907 -0.0674
10263TIP3    H152204   0.848   3.861  16.109 -0.0810  1.7367 -1.6400
10263TIP3    H252205   0.743   3.826  16.005 -1.0999 -1.0150  0.2098
10264TIP3   OH252206   0.117   5.904  12.965  0.3242  1.2534  0.2639
10264TIP3    H152207   0.197   5.861  12.993  1.2711  2.4027 -0.5476
10264TIP3    H252208   0.063   5.910  13.044 -0.0028 -1.6243  0.3423
10265TIP3   OH252209   2.071   3.734  17.176 -0.0236 -0.1651  0.5643
10265TIP3    H152210   2.026   3.806  17.131  0.0227 -1.5122 -1.8158
10265TIP3    H252211   2.108   3.774  17.255  0.4987  2.5665 -0.9506
10266TIP3   OH252212   6.348   4.162   3.922  0.0329  0.2305  0.7178
10266TIP3    H152213   6.436   4.153   3.959 -0.1318  1.2871  1.4112
10266TIP3    H252214   6.335   4.082   3.871  1.3938  0.0695  0.5974
10267TIP3   OH252215   2.278   6.475  11.414 -0.7588  0.0420 -0.2704
10267TIP3    H152216   2.343   6.456  11.480 -1.8999 -1.3577  0.4879
10267TIP3    H252217   2.234   6.392  11.397  1.1195 -0.3536 -4.6821
10268TIP3   OH252218   1.934   4.615  17.131 -0.2612 -0.0923  0.6614
10268TIP3    H152219   1.846   4.611  17.169 -0.4693 -1.4803  0.0673
10268TIP3    H252220   1.985   4.549  17.178 -0.0402 -0.5777 -0.2335
10269TIP3   OH252221   0.200   6.217   2.150  0.2330  0.8190  0.3996
10269TIP3    H152222   0.253   6.282   2.196 -0.1079  0.8645  0.7296
10269TIP3    H252223   0.136   6.187   2.215  2.0986 -1.9135  1.1628
10270TIP3   OH252224   0.621   6.405  16.350  0.1848 -0.0528  0.5003
10270TIP3    H152225   0.662   6.479  16.395  0.7269 -0.5009  0.7608
10270TIP3    H252226   0.666   6.400  16.266 -0.2875  0.3006  0.2260
10271TIP3   OH252227   3.881   6.526   2.914  0.3434 -0.5657 -0.5802
10271TIP3    H152228   3.817   6.580   2.869  2.0953  0.2545 -2.2228
10271TIP3    H252229   3.829   6.456   2.955 -1.7833  1.3051  0.0918
10272TIP3   OH252230   2.601   4.750   5.180  0.1716 -0.2344 -0.2111
10272TIP3    H152231   2.552   4.810   5.124  0.6392 -0.5632 -0.9927
10272TIP3    H252232   2.686   4.794   5.192  0.0769 -0.1705  0.2325
10273TIP3   OH252233   2.089   1.741   5.551 -0.0173  0.0926  0.4718
10273TIP3    H152234   2.030   1.816   5.545 -0.1900 -0.0605  0.2477
10273TIP3    H252235   2.090   1.704   5.463 -1.6549 -1.4606  1.0578
10274TIP3   OH252236   0.722   5.727  16.793 -0.5706 -0.6000 -0.2028
10274TIP3    H152237   0.734   5.711  16.887 -2.2752 -1.1380 -0.0445
10274TIP3    H252238   0.644   5.783  16.789 -0.7160 -0.8703 -1.3082
10275TIP3   OH252239   6.731   5.286  14.111  0.1093 -0.0175  0.8751
10275TIP3    H152240   6.746   5.225  14.183 -1.1418 -0.7165  0.5726
10275TIP3    H252241   6.636   5.285  14.099  0.2195  0.8194 -0.1619
10276TIP3   OH252242   3.481   2.504   1.799 -0.0419  0.2834 -0.5156
10276TIP3    H152243   3.563   2.515   1.848 -0.5203  3.1821 -0.1718
10276TIP3    H252244   3.459   2.412   1.810  2.4663 -0.2993  0.4925
10277TIP3   OH252245   2.205   0.360   4.426 -0.5803 -0.1462  0.2433
10277TIP3    H152246   2.132   0.414   4.396  0.0238  0.4156 -0.2580
10277TIP3    H252247   2.222   0.300   4.353 -0.2746  0.0063  0.1885
10278TIP3   OH252248   0.198   3.412  17.143 -0.2041 -0.1440 -0.3764
10278TIP3    H152249   0.284   3.409  17.103 -0.0189 -1.0908  0.0658
10278TIP3    H252250   0.190   3.502  17.176  0.8582 -0.2255  0.1303
10279TIP3   OH252251   3.448   4.890   1.293  0.2629 -0.4076  0.5162
10279TIP3    H152252   3.490   4.807   1.269 -0.9052 -0.7316 -0.5305
10279TIP3    H252253   3.406   4.872   1.377  2.0458 -0.1079  1.5344
10280TIP3   OH252254   0.507   0.720   1.083 -0.1095  0.3829  0.3186
10280TIP3    H152255   0.419   0.699   1.112  0.2083  0.1339  1.1393
10280TIP3    H252256   0.564   0.676   1.146  0.5936  1.3498  0.3706
10281TIP3   OH252257   6.257   5.703   1.293  0.0643  0.0513  0.2043
10281TIP3    H152258   6.273   5.673   1.204 -0.6899  0.8985 -0.2364
10281TIP3    H252259   6.175   5.659   1.319 -1.1400  1.7589 -0.5071
10282TIP3   OH252260   6.668   6.310   4.196 -0.5996 -0.2975  0.3564
10282TIP3    H152261   6.761   6.297   4.181 -0.7583 -0.8207 -0.2586
10282TIP3    H252262   6.639   6.367   4.124 -0.6158  0.4594  0.9607
10283TIP3   OH252263   0.137   5.704   5.619  0.0046  0.4326 -0.1237
10283TIP3    H152264   0.174   5.621   5.650 -2.3586 -0.4069  0.6699
10283TIP3    H252265   0.133   5.694   5.524  1.2849  0.3550 -0.1893
10284TIP3   OH252266   1.922   1.037   6.063  0.2308 -0.0705  0.4297
10284TIP3    H152267   1.921   1.128   6.031  0.0780 -0.1993  0.0617
10284TIP3    H252268   2.014   1.019   6.080  0.2613  0.1610  0.5254
10285TIP3   OH252269   5.677   2.225  16.668 -0.0397  0.6061  0.2467
10285TIP3    H152270   5.644   2.231  16.758 -1.4930  1.0742 -0.2869
10285TIP3    H252271   5.696   2.132  16.656 -1.0782  0.3242  0.6405
10286TIP3   OH252272   6.686   5.305   4.648  0.1755 -0.1237 -1.0393
10286TIP3    H152273   6.597   5.271   4.652 -0.5267  1.3418  4.8860
10286TIP3    H252274   6.675   5.399   4.632  0.8559 -0.2026 -2.0518
10287TIP3   OH252275   4.707   2.937   3.538 -0.1554  0.0654  0.4312
10287TIP3    H152276   4.799   2.915   3.530 -0.1784 -0.0087  0.3644
10287TIP3    H252277   4.689   2.995   3.464 -0.4227 -0.7984 -0.1898
10288TIP3   OH252278   0.065   0.374  11.731 -0.4194 -0.3797 -0.4613
10288TIP3    H152279   0.123   0.391  11.805 -0.5136  1.1103 -0.6995
10288TIP3    H252280   0.087   0.443  11.667 -1.8208 -0.3348 -0.9210
10289TIP3   OH252281   4.134   5.329   5.696 -0.0615 -0.0195 -0.8836
10289TIP3    H152282   4.126   5.404   5.637  0.4084 -0.3316 -1.3584
10289TIP3    H252283   4.221   5.339   5.735 -0.6406  0.5773  0.3276
10290TIP3   OH252284   1.304   1.403   5.971 -0.1052 -0.3758 -0.0597
10290TIP3    H152285   1.211   1.421   5.987 -0.2656 -0.9179 -0.3636
10290TIP3    H252286   1.327   1.462   5.900  0.6520  2.1644  2.1227
10291TIP3   OH252287   6.444   4.682  12.631 -0.0510  0.0285 -0.3866
10291TIP3    H152288   6.530   4.723  12.629  0.2989 -0.6299  0.5228
10291TIP3    H252289   6.462   4.588  12.635 -0.8216 -0.1454 -0.8202
10292TIP3   OH252290   5.326   1.019  10.582 -0.2131  0.3765 -0.4376
10292TIP3    H152291   5.281   1.104  10.582  0.9441  1.0288  0.8125
10292TIP3    H252292   5.297   0.976  10.662  1.6627  1.0180  0.6629
10293TIP3   OH252293   6.737   6.118  12.815 -0.1936  1.1506 -0.7866
10293TIP3    H152294   6.670   6.055  12.790  0.0070  1.0874 -1.1855
10293TIP3    H252295   6.781   6.077  12.890 -4.0872  3.5496  3.2638
10294TIP3   OH252296   5.766   1.134  14.425 -0.6681  0.2846 -0.2599
10294TIP3    H152297   5.832   1.112  14.491  0.9342  1.1014 -1.5169
10294TIP3    H252298   5.715   1.054  14.414  1.7701 -1.2610 -1.0937
10295TIP3   OH252299   1.130   4.884   3.766  0.0878  0.2574  0.3700
10295TIP3    H152300   1.045   4.885   3.811  0.1572  3.9211  0.7184
10295TIP3    H252301   1.192   4.856   3.833 -0.6123 -1.1480  0.4839
10296TIP3   OH252302   5.505   6.015  10.641 -0.0372  0.2322 -0.1378
10296TIP3    H152303   5.448   6.049  10.710  2.7534  1.3749  1.7820
10296TIP3    H252304   5.448   5.957  10.590 -3.0489  1.7482  1.1775
10297TIP3   OH252305   3.365   6.100   5.050 -0.0078 -0.1577  0.5744
10297TIP3    H152306   3.424   6.154   4.998 -1.3595  0.4481 -0.4001
10297TIP3    H252307   3.386   6.122   5.141  0.9363  0.3742  0.2367
10298TIP3   OH252308   3.463   3.764  16.809 -0.9258  0.1995 -0.2250
10298TIP3    H152309   3.489   3.673  16.826  0.8171  0.9941  1.7718
10298TIP3    H252310   3.390   3.779  16.868 -0.4131  0.4360  0.3608
10299TIP3   OH252311   1.024   5.962   2.344 -0.0028  0.4413 -0.2226
10299TIP3    H152312   1.037   6.000   2.258  1.1995 -0.1512 -0.3220
10299TIP3    H252313   0.944   5.909   2.336  1.0528 -1.0178 -1.4757
10300TIP3   OH252314   5.608   1.592  11.538  0.2658 -0.3126 -0.5560
10300TIP3    H152315   5.600   1.566  11.629  0.5216 -1.4810 -0.8527
10300TIP3    H252316   5.583   1.684  11.537 -1.3250 -0.7067  0.4351
10301TIP3   OH252317   3.292   3.617  17.310  0.7425 -0.3037 -0.3381
10301TIP3    H152318   3.309   3.537  17.359  3.3919  0.6127  0.4134
10301TIP3    H252319   3.202   3.641  17.334  0.1179 -2.6196 -0.0727
10302TIP3   OH252320   5.374   5.411  13.585  0.0245 -0.1414  0.2801
10302TIP3    H152321   5.376   5.320  13.555  1.6606  0.2819 -1.0482
10302TIP3    H252322   5.460   5.446  13.560 -0.4843  1.6979  0.9887
10303TIP3   OH252323   2.197   2.797  10.479  0.4412  0.7576  0.1798
10303TIP3    H152324   2.290   2.816  10.478  0.2864  1.5260 -0.3385
10303TIP3    H252325   2.182   2.757  10.565  1.1187  1.2805  0.5535
10304TIP3   OH252326   6.648   3.532   0.495 -0.0169  0.0542 -0.9570
10304TIP3    H152327   6.687   3.479   0.565 -1.2234 -0.9776 -1.0213
10304TIP3    H252328   6.628   3.615   0.537 -0.8203 -0.5904 -0.0213
10305TIP3   OH252329   4.970   5.591   1.616 -0.8810 -0.0923 -0.3955
10305TIP3    H152330   4.900   5.626   1.561  0.1147  0.5033 -1.3170
10305TIP3    H252331   4.948   5.499   1.628 -1.4427 -0.0755 -1.2760
10306TIP3   OH252332   2.527   5.465  15.585 -0.5352  0.1612 -0.3130
10306TIP3    H152333   2.585   5.539  15.565  2.3089 -0.6546  3.7911
10306TIP3    H252334   2.574   5.388  15.555 -2.2935 -0.2976 -2.1526
10307TIP3   OH252335   4.339   5.681  14.080 -0.2231  0.0578  0.0459
10307TIP3    H152336   4.271   5.748  14.081 -2.1066 -1.6691 -1.4549
10307TIP3    H252337   4.395   5.704  14.006 -0.6224  0.1742 -0.2206
10308TIP3   OH252338   1.733   3.693   4.591  0.2637 -0.3956 -0.1519
10308TIP3    H152339   1.655   3.747   4.596  0.8083  0.2753  2.5918
10308TIP3    H252340   1.804   3.751   4.620  1.6609 -1.2850 -1.5952
10309TIP3   OH252341   1.781   5.560  13.974  0.1625 -0.1207  0.0344
10309TIP3    H152342   1.766   5.467  13.994 -3.4493 -0.3790 -2.8071
10309TIP3    H252343   1.778   5.603  14.059  2.7232 -2.5581  1.5297
10310TIP3   OH252344   0.230   0.411   0.725 -0.4422  0.1276 -0.7530
10310TIP3    H152345   0.272   0.414   0.811  0.3497  1.0799 -1.1554
10310TIP3    H252346   0.184   0.494   0.718  0.1590  0.4014 -1.5670
10311TIP3   OH252347   6.083   2.262   3.684  0.6026 -0.3937 -0.0086
10311TIP3    H152348   6.122   2.188   3.731  1.1241  0.0637  0.2949
10311TIP3    H252349   6.077   2.331   3.750  3.6738  1.1167 -1.1347
10312TIP3   OH252350   2.258   0.648  11.432  0.1819  0.7451 -0.5783
10312TIP3    H152351   2.172   0.689  11.426  0.0607  0.8973  1.3639
10312TIP3    H252352   2.314   0.717  11.467  0.4138 -0.1446  0.8871
10313TIP3   OH252353   1.328   1.801  12.112 -0.1522 -0.4908 -0.1135
10313TIP3    H152354   1.289   1.812  12.200 -0.0631 -1.4606  0.0533
10313TIP3    H252355   1.379   1.881  12.099 -2.6523  1.1663 -0.5966
10314TIP3   OH252356   0.907   1.375   5.332  0.4847 -0.0734  0.2762
10314TIP3    H152357   0.960   1.311   5.284  1.5617  0.9772  0.0084
10314TIP3    H252358   0.818   1.361   5.299  1.0090 -0.1482 -1.2053
10315TIP3   OH252359   3.465   3.572  15.308 -0.5660  0.3825 -0.1355
10315TIP3    H152360   3.394   3.589  15.369 -2.4992 -0.2827 -2.0731
10315TIP3    H252361   3.459   3.479  15.289  1.2817  0.1723  0.1416
10316TIP3   OH252362   1.060   2.971   5.809  0.3678  0.4253  0.3812
10316TIP3    H152363   0.984   2.966   5.752 -0.0128 -1.4549  0.9603
10316TIP3    H252364   1.029   2.937   5.894  1.3839  1.3763  1.1657
10317TIP3   OH252365   6.112   6.164  17.025 -0.4580 -0.3975  0.3895
10317TIP3    H152366   6.090   6.257  17.021  1.0047  0.0757  2.0757
10317TIP3    H252367   6.142   6.142  16.936 -3.4765 -0.0655 -0.8445
10318TIP3   OH252368   5.322   5.748  14.696  0.2918 -0.3494 -0.4071
10318TIP3    H152369   5.400   5.794  14.665 -0.9624  0.7315 -2.1487
10318TIP3    H252370   5.317   5.771  14.789  1.0318  1.1107 -0.6900
10319TIP3   OH252371   5.974   0.830   4.951 -0.3564  0.6402 -0.3949
10319TIP3    H152372   6.057   0.799   4.987  0.3558  1.6672 -1.0788
10319TIP3    H252373   5.942   0.757   4.899  1.1753  0.9097 -1.8067
10320TIP3   OH252374   3.029   1.848   3.042  0.2674 -0.1823  0.1638
10320TIP3    H152375   2.988   1.891   2.967 -1.1536  0.5363  1.2971
10320TIP3    H252376   3.049   1.760   3.011  1.5843  0.6995 -1.6536
10321TIP3   OH252377   0.060   4.199   3.082 -0.4451 -0.7020  0.2017
10321TIP3    H152378   0.010   4.275   3.113  0.1286 -0.2187 -0.0490
10321TIP3    H252379  -0.007   4.132   3.066 -0.9240 -0.3680  0.7546
10322TIP3   OH252380   4.694   4.301  13.896 -0.4490 -0.0528 -0.0670
10322TIP3    H152381   4.601   4.283  13.889 -0.1946 -0.9847 -1.4045
10322TIP3    H252382   4.735   4.214  13.900  0.4424  0.3176 -0.7940
10323TIP3   OH252383   2.289   1.730   3.433  0.6147 -0.1626 -0.0220
10323TIP3    H152384   2.330   1.795   3.489  1.1252 -1.8703  1.6774
10323TIP3    H252385   2.254   1.781   3.360  1.6674  1.9033  0.8191
10324TIP3   OH252386   3.742   2.990   2.013  0.2021 -0.4006  0.8448
10324TIP3    H152387   3.701   2.966   1.929  0.6198  0.1637  0.4701
10324TIP3    H252388   3.710   2.924   2.075 -0.5598 -0.4986  0.3657
10325TIP3   OH252389   4.507   0.442   4.976  0.0262 -0.1129  0.2429
10325TIP3    H152390   4.537   0.438   5.067  1.2130  0.5370 -0.1026
10325TIP3    H252391   4.458   0.523   4.970  0.6514  0.2604  0.1086
10326TIP3   OH252392   1.861   2.443  13.829 -0.0936 -0.3746  0.0138
10326TIP3    H152393   1.901   2.523  13.862  0.9460 -1.6220  1.9874
10326TIP3    H252394   1.914   2.420  13.753  1.2965 -0.5311  0.9751
10327TIP3   OH252395   3.119   4.829  12.052  0.5366 -0.1433 -0.3557
10327TIP3    H152396   3.202   4.857  12.092 -0.5561  0.1460  1.8181
10327TIP3    H252397   3.069   4.792  12.124 -1.4887  0.2283 -1.5077
10328TIP3   OH252398   0.447   3.064   0.971 -0.1690  0.1004 -0.5213
10328TIP3    H152399   0.366   3.105   1.000 -0.0319  0.2919 -0.4052
10328TIP3    H252400   0.516   3.123   1.001  0.0710 -0.5294  0.1975
10329TIP3   OH252401   4.116   6.156  13.765  0.5613  0.3732  0.4368
10329TIP3    H152402   4.048   6.176  13.829  0.4993 -1.6462  1.0701
10329TIP3    H252403   4.082   6.081  13.716  2.0925 -0.3544  0.4247
10330TIP3   OH252404   4.786   3.099  16.578 -0.6967  0.5494 -0.0859
10330TIP3    H152405   4.862   3.157  16.566 -0.1998 -0.1819 -0.6171
10330TIP3    H252406   4.811   3.041  16.650  0.3158 -1.2870 -1.8018
10331TIP3   OH252407   6.444   6.206   3.309 -0.1994  0.2773  0.1357
10331TIP3    H152408   6.412   6.154   3.235 -1.2719  0.9434  0.1277
10331TIP3    H252409   6.368   6.220   3.364  0.4711  0.2904  1.0902
10332TIP3   OH252410   4.675   5.985   6.467  0.1277 -0.3078  0.5533
10332TIP3    H152411   4.615   5.993   6.541 -1.2668  0.6268 -0.6220
10332TIP3    H252412   4.629   6.026   6.394  2.0435  0.0607 -0.5123
10333TIP3   OH252413   3.910   0.926  14.155  0.0647 -0.7751  0.0367
10333TIP3    H152414   3.930   0.935  14.061  2.5639 -0.8513  0.4977
10333TIP3    H252415   3.912   1.016  14.187 -2.2843 -0.5771 -0.1730
10334TIP3   OH252416   3.739   0.392   1.958  0.1959  0.4009 -0.0790
10334TIP3    H152417   3.814   0.334   1.974  0.6530  1.1021  0.3728
10334TIP3    H252418   3.665   0.348   2.000  0.9813  1.2259  2.2881
10335TIP3   OH252419   4.106   6.702   1.485  0.2006 -0.1670 -0.7767
10335TIP3    H152420   4.051   6.688   1.562 -1.1252  0.9332 -1.4785
10335TIP3    H252421   4.099   6.620   1.436  0.2404 -0.5004 -0.2360
10336TIP3   OH252422   4.687   3.643   0.641 -0.1122  0.1139  1.0562
10336TIP3    H152423   4.760   3.601   0.687 -1.6283 -2.1513  1.5589
10336TIP3    H252424   4.685   3.733   0.675  2.9966  0.5852  0.2916
10337TIP3   OH252425   0.695   3.019   6.327  0.5158  0.0439 -0.2078
10337TIP3    H152426   0.669   3.055   6.412  1.1944 -3.1311  1.4722
10337TIP3    H252427   0.790   3.028   6.326  0.6025 -0.8020 -0.1704
10338TIP3   OH252428   5.860   0.842  11.080 -0.0077  0.1061 -0.6287
10338TIP3    H152429   5.881   0.893  11.003 -0.6257 -0.6824 -1.3426
10338TIP3    H252430   5.858   0.751  11.049  0.8259 -0.3421  0.5467
10339TIP3   OH252431   4.186   1.332  12.089 -0.4612 -0.1211  0.4254
10339TIP3    H152432   4.158   1.424  12.084  1.9455  0.6040 -1.5535
10339TIP3    H252433   4.128   1.286  12.028 -2.6217 -0.2882  2.4639
10340TIP3   OH252434   6.728   1.290   1.292  0.2609  0.4360 -0.3821
10340TIP3    H152435   6.675   1.348   1.237  1.2431  3.6377  1.7557
10340TIP3    H252436   6.666   1.249   1.352 -0.3050  0.3337 -1.0322
10341TIP3   OH252437   2.446   1.421  15.539  0.4609  0.4634  0.0231
10341TIP3    H152438   2.495   1.364  15.598  0.7866 -0.7650 -1.3570
10341TIP3    H252439   2.377   1.364  15.503  1.2315  0.6864 -1.9365
10342TIP3   OH252440   2.723   3.930   1.742  0.6482 -0.1832 -0.5648
10342TIP3    H152441   2.709   3.869   1.814  1.9277  0.4874  0.2908
10342TIP3    H252442   2.688   4.013   1.774  0.4387 -0.0804 -1.0556
10343TIP3   OH252443   1.332   5.642  15.940  0.5597 -0.5483  0.2601
10343TIP3    H152444   1.401   5.675  15.882 -0.1062  0.1974 -0.1353
10343TIP3    H252445   1.257   5.698  15.921 -0.1389 -1.3083  0.7221
10344TIP3   OH252446   5.823   1.984  11.825 -0.0822  0.1067 -0.0713
10344TIP3    H152447   5.802   1.897  11.858  0.7853 -0.1249 -0.1166
10344TIP3    H252448   5.876   1.969  11.747 -1.2494  0.6614 -1.0131
10345TIP3   OH252449   1.862   4.018  11.854  0.5043 -0.2997  0.6460
10345TIP3    H152450   1.812   3.960  11.911  1.7159 -1.5136  0.5160
10345TIP3    H252451   1.819   4.103  11.863  0.3494 -0.5704  2.9790
10346TIP3   OH252452   0.509   2.828   0.317  0.0049  0.4592 -0.0211
10346TIP3    H152453   0.416   2.805   0.324 -0.0816  0.6840 -0.3930
10346TIP3    H252454   0.509   2.919   0.289  0.3443  0.6705  0.6342
10347TIP3   OH252455   6.546   5.576  15.887 -0.1081 -0.1619  0.3577
10347TIP3    H152456   6.559   5.632  15.811  2.2854 -0.0536  0.7774
10347TIP3    H252457   6.531   5.637  15.959  0.9221 -0.0930  0.5304
10348TIP3   OH252458   1.484   6.461  16.256  0.1104  0.0261 -0.0911
10348TIP3    H152459   1.478   6.551  16.286 -0.4267  0.4270 -1.3627
10348TIP3    H252460   1.575   6.450  16.229 -0.0601  0.5079 -0.8833
10349TIP3   OH252461   2.538   0.257  15.680 -0.5184  0.0933  0.1618
10349TIP3    H152462   2.605   0.192  15.703 -0.5391  0.5039  1.4642
10349TIP3    H252463   2.495   0.277  15.763 -1.9766  0.1608 -0.5894
10350TIP3   OH252464   5.569   3.933  14.848  0.2692  0.0796  0.1299
10350TIP3    H152465   5.532   3.861  14.900 -0.3975  0.7565  0.6278
10350TIP3    H252466   5.662   3.912  14.841 -0.1024 -1.4709 -0.8067
10351TIP3   OH252467   5.836   1.718   3.346  0.3606 -0.1394  0.3197
10351TIP3    H152468   5.779   1.783   3.386  0.5923  1.0658 -1.2179
10351TIP3    H252469   5.924   1.741   3.377  0.4058  0.1089  0.0151
10352TIP3   OH252470   3.772   6.457   1.101 -0.1136 -0.1814 -0.1217
10352TIP3    H152471   3.701   6.403   1.066 -0.1822 -3.1606  3.9562
10352TIP3    H252472   3.851   6.406   1.085  0.8610  1.6995 -1.8823
10353TIP3   OH252473   2.564   2.982  12.732 -0.3342 -0.2466 -0.0233
10353TIP3    H152474   2.593   2.925  12.804  0.0353  0.0022  0.0283
10353TIP3    H252475   2.609   2.948  12.655 -0.0175  0.0504  0.0295
10354TIP3   OH252476   1.273   6.284  16.184 -0.1625 -0.3511 -0.5618
10354TIP3    H152477   1.198   6.344  16.184  0.1654  0.0803  0.4928
10354TIP3    H252478   1.346   6.337  16.215  0.0154 -1.4032  0.9423
10355TIP3   OH252479   5.976   6.563   4.261 -0.0411 -0.2179  0.0696
10355TIP3    H152480   5.945   6.474   4.242  0.1564 -0.1266 -0.7221
10355TIP3    H252481   6.038   6.552   4.333 -0.6546 -0.6073  0.5552
10356TIP3   OH252482   5.751   4.619   5.666  0.1448  0.7950 -0.4535
10356TIP3    H152483   5.824   4.662   5.623 -0.1125 -0.0426 -1.7715
10356TIP3    H252484   5.679   4.682   5.660  0.8393  1.8274  1.2841
10357TIP3   OH252485   0.301   6.195   5.067 -0.1553 -0.1602  0.1762
10357TIP3    H152486   0.357   6.255   5.116  0.6128  0.3521 -1.2477
10357TIP3    H252487   0.285   6.122   5.126  0.8197  0.3814  1.1345
10358TIP3   OH252488   3.940   4.762  13.867  0.0276 -0.4406  0.1573
10358TIP3    H152489   3.896   4.846  13.857  2.1252  0.5425 -1.4830
10358TIP3    H252490   3.869   4.698  13.873 -1.6030  1.2215 -0.5740
10359TIP3   OH252491   6.733   0.008  13.429 -0.1548  0.2475  0.1324
10359TIP3    H152492   6.744  -0.080  13.466  1.9291  0.6190  0.5756
10359TIP3    H252493   6.640   0.015  13.410 -0.6554 -1.4379  1.6477
10360TIP3   OH252494   3.994   2.761  12.545 -0.0173  0.1389  0.7738
10360TIP3    H152495   3.981   2.712  12.626 -2.4080 -0.1142  0.3294
10360TIP3    H252496   4.036   2.698  12.486 -0.1084 -0.3317  1.2012
10361TIP3   OH252497   2.930   6.384   1.352  0.1196 -0.1439  0.4424
10361TIP3    H152498   2.984   6.305   1.361  1.7505  0.9941  1.2207
10361TIP3    H252499   2.962   6.426   1.272 -0.1764  0.1370  0.4694
10362TIP3   OH252500   1.685   1.366   2.251  0.0081 -0.8074  0.5452
10362TIP3    H152501   1.623   1.294   2.261 -0.0276 -0.7705  0.5909
10362TIP3    H252502   1.755   1.347   2.314  0.3846 -1.2064  0.0164
10363TIP3   OH252503   6.224   6.352   5.828 -0.3021  0.3869 -0.3400
10363TIP3    H152504   6.207   6.404   5.907 -0.9353 -1.4680  0.8100
10363TIP3    H252505   6.299   6.297   5.851  0.1590  0.5371 -1.4181
10364TIP3   OH252506   2.995   4.795  17.094  0.1005  0.5386  0.7690
10364TIP3    H152507   2.906   4.765  17.075  0.5086 -0.2486  0.0291
10364TIP3    H252508   3.039   4.793  17.009  1.0921  0.0112  1.2860
10365TIP3   OH252509   3.927   3.182   0.637 -0.6696 -0.6747 -0.5176
10365TIP3    H152510   3.951   3.090   0.648 -0.4805 -0.7244 -1.3204
10365TIP3    H252511   3.962   3.206   0.552  0.8267  0.6442  0.4355
10366TIP3   OH252512   2.936   3.414  17.260 -0.4926  0.5818 -0.1881
10366TIP3    H152513   3.005   3.361  17.300  0.0587  1.1809 -0.3178
10366TIP3    H252514   2.962   3.422  17.169 -0.2823  1.4964 -0.0639
10367TIP3   OH252515   6.136   5.274   2.045 -0.0948  0.0765  0.2280
10367TIP3    H152516   6.208   5.257   2.106  0.5020 -1.7291 -0.9103
10367TIP3    H252517   6.179   5.308   1.966 -0.7889  1.6412  0.4839
10368TIP3   OH252518   3.953   6.398  11.980  0.2047 -0.3716  0.0631
10368TIP3    H152519   4.018   6.403  12.050 -2.1672 -1.0098  2.4844
10368TIP3    H252520   3.920   6.309  11.984 -0.8144 -0.0768 -1.1091
10369TIP3   OH252521   1.892   5.755   3.052  0.0991  0.9019 -0.3083
10369TIP3    H152522   1.974   5.709   3.071 -0.3856  0.4092  0.6721
10369TIP3    H252523   1.919   5.842   3.022  0.9477  1.2873  1.4736
10370TIP3   OH252524   4.621   1.843   3.105  0.0671  0.0876  0.2703
10370TIP3    H152525   4.685   1.903   3.066 -0.9777  1.0692  0.0201
10370TIP3    H252526   4.658   1.818   3.189  1.1830 -0.0595 -0.2522
10371TIP3   OH252527   4.324   5.214  14.622  0.2973 -0.2424 -0.2607
10371TIP3    H152528   4.281   5.299  14.632 -0.8973 -0.7218 -1.0506
10371TIP3    H252529   4.329   5.201  14.528  0.8442 -0.8803 -0.1496
10372TIP3   OH252530   5.666   3.219  11.829  0.0189 -0.1818  0.1286
10372TIP3    H152531   5.586   3.231  11.880  0.0035 -1.2518  0.3791
10372TIP3    H252532   5.671   3.125  11.813  1.7717 -0.2974  1.0335
10373TIP3   OH252533   3.300   5.956   5.801  0.1097 -0.0875  0.7385
10373TIP3    H152534   3.227   5.973   5.861  0.2000  0.1144  0.7930
10373TIP3    H252535   3.332   5.870   5.825 -0.8589 -0.6948 -0.0502
10374TIP3   OH252536   2.985   3.816  13.388 -0.2059 -0.0510  0.3206
10374TIP3    H152537   3.075   3.829  13.417 -0.0426 -0.6151  0.0998
10374TIP3    H252538   2.969   3.722  13.403 -0.0719 -0.3962 -1.4776
10375TIP3   OH252539   1.727   5.371   1.528  0.2832 -0.5027 -0.3907
10375TIP3    H152540   1.736   5.392   1.621  0.3650 -0.4149 -0.4188
10375TIP3    H252541   1.682   5.446   1.490 -0.3622 -0.8282 -0.2988
10376TIP3   OH252542   0.938   0.933  14.028 -0.0201  0.0764  0.2863
10376TIP3    H152543   1.002   1.003  14.023 -0.5220  0.4661 -1.2783
10376TIP3    H252544   0.867   0.968  14.081 -0.7605  1.2195 -1.3657
10377TIP3   OH252545   4.451   1.200   0.062  0.0711  0.2856  0.0413
10377TIP3    H152546   4.394   1.177   0.135  1.4495 -1.1805  0.7222
10377TIP3    H252547   4.490   1.117   0.034  1.2129  1.1043 -0.9257
10378TIP3   OH252548   2.275   1.725  15.374  0.4051  0.0061  0.6241
10378TIP3    H152549   2.256   1.816  15.354  0.9498 -0.2492 -1.2231
10378TIP3    H252550   2.360   1.727  15.419  0.4357  0.3978  0.5455
10379TIP3   OH252551   2.468   1.905   4.125 -0.8892  0.1647 -0.4788
10379TIP3    H152552   2.517   1.864   4.053 -1.6887 -1.5566 -0.1016
10379TIP3    H252553   2.498   1.996   4.126  2.3090 -0.7902 -0.2144
10380TIP3   OH252554   5.494   3.808   5.727 -0.3743  0.3429 -0.2864
10380TIP3    H152555   5.518   3.721   5.760 -0.3478  0.6759  0.6022
10380TIP3    H252556   5.443   3.790   5.649 -0.3287 -0.4761 -0.1456
10381TIP3   OH252557   4.772   1.556   3.868 -0.3240  0.3414  0.8465
10381TIP3    H152558   4.678   1.570   3.862 -0.1724  1.8455  1.4543
10381TIP3    H252559   4.797   1.594   3.952  0.8683  0.2889  0.5408
10382TIP3   OH252560   4.161   0.626  16.498 -0.4287  0.3313  0.6951
10382TIP3    H152561   4.237   0.671  16.462 -0.5437 -0.1847 -0.2285
10382TIP3    H252562   4.090   0.690  16.493 -0.4260  0.2890  0.0519
10383TIP3   OH252563   6.372   0.559   6.052  0.1223 -0.1792  0.2328
10383TIP3    H152564   6.364   0.491   6.119 -0.1802 -0.3302  0.0430
10383TIP3    H252565   6.466   0.576   6.047  0.3264 -1.4379 -0.5773
10384TIP3   OH252566   4.842   2.149   0.228  0.2003 -0.5073  0.4888
10384TIP3    H152567   4.838   2.161   0.322  0.9899  0.4941  0.4229
10384TIP3    H252568   4.801   2.064   0.212  1.0684 -1.2195  1.8423
10385TIP3   OH252569   3.046   6.114   1.051  0.0285  0.2482  0.6070
10385TIP3    H152570   3.114   6.050   1.071 -0.1871 -0.2455 -0.2114
10385TIP3    H252571   3.089   6.177   0.993 -0.3035 -0.2817 -0.2341
10386TIP3   OH252572   0.542   2.845  16.493 -0.1001  0.1511 -0.1396
10386TIP3    H152573   0.487   2.801  16.428  0.1793 -0.6546  0.1563
10386TIP3    H252574   0.489   2.919  16.522 -0.5162  0.1123 -0.7645
10387TIP3   OH252575   0.803   1.446  11.743 -0.2210 -0.2591  0.0773
10387TIP3    H152576   0.782   1.491  11.661  2.1851 -2.3211 -1.8440
10387TIP3    H252577   0.812   1.354  11.718 -2.8114 -1.6321  3.4133
10388TIP3   OH252578   1.497   1.678  12.582 -0.5656  0.2115 -0.0236
10388TIP3    H152579   1.466   1.715  12.499  1.5654  1.9636 -0.1142
10388TIP3    H252580   1.442   1.719  12.649  0.0345  1.5786 -0.3332
10389TIP3   OH252581   4.688   2.511  15.897 -0.6523 -0.4675 -0.2282
10389TIP3    H152582   4.702   2.605  15.902  2.1076 -0.8366  0.9256
10389TIP3    H252583   4.593   2.501  15.892 -1.0911  2.3216  0.6941
10390TIP3   OH252584   2.806   6.425   3.380  0.2654 -0.0222 -0.1460
10390TIP3    H152585   2.789   6.482   3.304 -0.6316  1.6174  1.2082
10390TIP3    H252586   2.901   6.413   3.380  0.5961  2.1722 -0.0549
10391TIP3   OH252587   5.802   0.733  14.189  0.0548  0.2524  0.0162
10391TIP3    H152588   5.711   0.702  14.197 -0.0835  0.4110 -0.8735
10391TIP3    H252589   5.844   0.668  14.133  0.5852  0.0068  0.6887
10392TIP3   OH252590   6.565   0.260   2.940 -0.2162 -0.0926 -0.3432
10392TIP3    H152591   6.653   0.244   2.903  1.5660  2.2690  2.4659
10392TIP3    H252592   6.524   0.174   2.939  0.8895 -0.8403 -4.4050
10393TIP3   OH252593   3.075   2.915  11.025 -0.1666 -1.1463 -0.4996
10393TIP3    H152594   3.154   2.865  11.046  0.1627 -0.3022  0.3264
10393TIP3    H252595   3.022   2.910  11.104  0.5971  1.1515  0.2221
10394TIP3   OH252596   2.415   5.360   3.432  0.3094 -0.1819 -0.4332
10394TIP3    H152597   2.417   5.347   3.527 -1.9515 -1.8268 -0.5211
10394TIP3    H252598   2.369   5.443   3.420  1.1858  0.3631 -0.1009
10395TIP3   OH252599   4.077   6.442   1.379  0.2125  0.2104 -0.3657
10395TIP3    H152600   4.089   6.402   1.293  2.0581  3.5068 -1.8162
10395TIP3    H252601   4.166   6.455   1.412 -0.4565 -0.7931  2.0349
10396TIP3   OH252602   5.192   5.635  13.588  0.0334 -0.0778 -0.2436
10396TIP3    H152603   5.190   5.699  13.659  0.0003  0.6895 -0.9124
10396TIP3    H252604   5.235   5.558  13.625 -0.4630  0.1116  0.7555
10397TIP3   OH252605   6.047   5.846   3.266 -0.4817 -0.5058 -0.0577
10397TIP3    H152606   5.953   5.865   3.265 -0.3359  0.3359  0.6828
10397TIP3    H252607   6.054   5.758   3.229 -1.6163 -0.7792  0.3220
10398TIP3   OH252608   3.171   3.991  14.422 -0.3592 -0.0837 -0.2864
10398TIP3    H152609   3.202   3.906  14.393  0.7817 -0.0174  0.6656
10398TIP3    H252610   3.188   3.992  14.516 -2.2166  0.4222  0.0884
10399TIP3   OH252611   2.848   4.347   0.289  0.2187 -0.3450 -0.5469
10399TIP3    H152612   2.764   4.366   0.331  1.0858  0.9155  0.7153
10399TIP3    H252613   2.891   4.432   0.281  0.3419 -0.5971 -3.6045
10400TIP3   OH252614   6.681   1.188   5.349 -0.2270 -0.2062  0.1853
10400TIP3    H152615   6.688   1.214   5.257  1.2043 -1.2924 -0.0384
10400TIP3    H252616   6.692   1.093   5.348  0.9360 -0.1068  1.5797
10401TIP3   OH252617   5.314   4.324  14.265  0.0433  0.3176 -0.0177
10401TIP3    H152618   5.261   4.397  14.233 -0.0132  0.3397  0.1290
10401TIP3    H252619   5.353   4.286  14.185  0.3564  0.7245 -0.0637
10402TIP3   OH252620   4.602   2.518   4.704  0.8403  0.0807 -0.2787
10402TIP3    H152621   4.666   2.526   4.634  0.5604 -1.2195 -0.7149
10402TIP3    H252622   4.641   2.457   4.766 -0.2809 -1.4108 -0.9715
10403TIP3   OH252623   3.057   6.693   3.987 -0.0975 -0.1628  0.4143
10403TIP3    H152624   3.145   6.704   3.950 -0.7039 -0.8239 -1.2657
10403TIP3    H252625   3.014   6.777   3.971 -0.7161 -0.7865 -1.4640
10404TIP3   OH252626   0.692   5.028   2.796 -0.1134 -0.4130  0.2916
10404TIP3    H152627   0.716   4.938   2.817 -0.1591 -0.3879  0.4517
10404TIP3    H252628   0.760   5.058   2.735  0.4156 -0.2576  0.9369
10405TIP3   OH252629   1.582   6.384  14.922 -0.4353  0.3990 -0.5465
10405TIP3    H152630   1.626   6.419  14.845  0.1812 -0.7843 -0.7565
10405TIP3    H252631   1.651   6.378  14.988 -0.2207 -1.5073 -0.8865
10406TIP3   OH252632   1.212   0.857   5.850  0.1645  0.2586 -0.0056
10406TIP3    H152633   1.125   0.846   5.813  0.9145  0.2444 -1.8581
10406TIP3    H252634   1.200   0.844   5.944 -2.1319  1.9719  0.0346
10407TIP3   OH252635   4.071   2.083   5.137  0.3107  0.5056  0.3185
10407TIP3    H152636   4.000   2.116   5.082 -0.3199 -0.9772  0.1904
10407TIP3    H252637   4.063   2.131   5.219 -1.2313 -0.0522  0.5255
10408TIP3   OH252638   4.605   0.964   2.179  0.2443  0.1042  0.0313
10408TIP3    H152639   4.590   1.036   2.240  0.1640  1.3872 -1.4596
10408TIP3    H252640   4.649   1.004   2.104 -0.8796 -1.1598 -1.3624
10409TIP3   OH252641   0.765   5.281   3.559 -0.1802 -0.2479  0.1213
10409TIP3    H152642   0.767   5.317   3.647 -0.4738 -0.5266  0.2450
10409TIP3    H252643   0.759   5.357   3.502 -0.5326 -0.0898  0.3657
10410TIP3   OH252644   2.100   3.307  11.768  0.3828  0.3106 -0.0988
10410TIP3    H152645   2.059   3.388  11.797  0.5001  0.3559 -0.0619
10410TIP3    H252646   2.131   3.266  11.848 -1.5705 -0.8130  0.1517
10411TIP3   OH252647   1.099   4.216  14.703 -0.4380 -0.4785  0.4737
10411TIP3    H152648   1.006   4.204  14.686 -0.1246 -0.4774 -1.5039
10411TIP3    H252649   1.126   4.135  14.747 -1.0638 -1.1996 -0.4213
10412TIP3   OH252650   4.948   0.677  14.508 -0.0013 -0.1160  0.3577
10412TIP3    H152651   4.983   0.685  14.597 -0.5079  0.9211  0.4793
10412TIP3    H252652   4.855   0.658  14.521  0.0830 -0.7589  0.0433
10413TIP3   OH252653   5.525   1.554   6.660  0.0851 -0.1701  0.4266
10413TIP3    H152654   5.488   1.640   6.679 -1.8677 -1.0776  1.0224
10413TIP3    H252655   5.467   1.517   6.594 -0.7016 -2.0139  2.0417
10414TIP3   OH252656   5.799   4.963   5.282  0.3282 -0.1231 -0.5499
10414TIP3    H152657   5.757   5.043   5.252  0.0311 -0.4531 -1.0015
10414TIP3    H252658   5.878   4.956   5.229 -0.4548 -0.9777 -1.6261
10415TIP3   OH252659   6.602   4.446  12.242 -0.4691  0.7308 -0.0870
10415TIP3    H152660   6.568   4.535  12.229 -0.6681  0.6523 -0.1127
10415TIP3    H252661   6.581   4.400  12.162 -1.7487  0.2346  0.5033
10416TIP3   OH252662   5.623   2.758  13.365  0.0992  0.4995  0.2007
10416TIP3    H152663   5.601   2.708  13.286  1.8018  0.3780 -0.2208
10416TIP3    H252664   5.538   2.783  13.401 -0.7618 -1.2979 -0.4677
10417TIP3   OH252665   0.311   6.069  14.522 -0.9529  0.0054 -0.5393
10417TIP3    H152666   0.236   6.012  14.507 -1.3118  0.2733  0.2094
10417TIP3    H252667   0.368   6.018  14.580  0.7530 -1.3093 -3.1617
10418TIP3   OH252668   0.995   1.372  16.553  0.1888  0.0581  0.0256
10418TIP3    H152669   1.085   1.341  16.563  0.6794  1.5028  0.3275
10418TIP3    H252670   0.955   1.360  16.639 -0.5815 -2.4527 -0.5892
10419TIP3   OH252671   4.329   3.775   4.755  0.1388  0.0283  0.0232
10419TIP3    H152672   4.378   3.727   4.688  0.0569  1.7511 -1.3461
10419TIP3    H252673   4.395   3.796   4.822  0.5927 -0.2724 -0.3236
10420TIP3   OH252674   5.437   5.597   4.011  0.4632  0.0529 -0.2933
10420TIP3    H152675   5.433   5.678   4.061 -1.5643 -0.4775  0.5326
10420TIP3    H252676   5.351   5.589   3.970  0.6931 -1.5401 -0.5696
10421TIP3   OH252677   6.234   1.998  13.675 -0.0979  0.4369 -0.1319
10421TIP3    H152678   6.184   2.051  13.738 -0.1573  0.7617 -0.4528
10421TIP3    H252679   6.221   2.042  13.591 -0.3512 -0.2286 -0.4477
10422TIP3   OH252680   6.386   3.088  12.450 -0.5509 -0.0765  0.4807
10422TIP3    H152681   6.479   3.101  12.466 -0.5742  1.7731 -0.5513
10422TIP3    H252682   6.381   3.009  12.396 -0.0131 -2.7593  3.9658
10423TIP3   OH252683   2.863   4.656  13.003  0.0173 -0.2633 -0.2021
10423TIP3    H152684   2.850   4.711  13.080 -2.3586  1.7352 -1.8636
10423TIP3    H252685   2.778   4.615  12.989  0.7522 -1.5197 -1.0920
10424TIP3   OH252686   2.845   5.190   3.150  0.3232 -0.1581  0.4248
10424TIP3    H152687   2.829   5.266   3.205 -0.3875 -0.8232  1.1550
10424TIP3    H252688   2.938   5.171   3.161  1.2175  2.2359 -1.9251
10425TIP3   OH252689   2.704   2.870  13.189 -0.2132  0.0937  0.1306
10425TIP3    H152690   2.699   2.909  13.277  1.7961  1.3410 -0.2382
10425TIP3    H252691   2.685   2.778  13.203  0.1346  0.2427  1.9196
10426TIP3   OH252692   3.214   0.013  11.470  0.0245  0.5626  0.0935
10426TIP3    H152693   3.119  -0.002  11.473 -0.6065  3.2400 -1.9923
10426TIP3    H252694   3.248  -0.060  11.418 -1.3810  0.9818 -1.5265
10427TIP3   OH252695   2.482   4.277  13.318 -1.0775 -0.1402 -0.3710
10427TIP3    H152696   2.437   4.314  13.394  2.9407  1.5474  1.4825
10427TIP3    H252697   2.524   4.197  13.350  0.3982  0.4090 -0.8130
10428TIP3   OH252698   0.866   5.020   3.582 -0.2754 -0.3102 -0.5075
10428TIP3    H152699   0.820   4.978   3.656  1.8167 -0.7574  0.6187
10428TIP3    H252700   0.834   5.110   3.583 -0.2370 -0.2729  1.0345
10429TIP3   OH252701   0.663   0.995   0.510 -0.2994 -0.5286  0.2043
10429TIP3    H152702   0.661   1.045   0.592  0.5145 -1.1252  0.6019
10429TIP3    H252703   0.643   0.905   0.537  1.1031 -0.9416 -0.0652
10430TIP3   OH252704   4.706   2.781   4.291 -0.3085  0.3683 -0.0310
10430TIP3    H152705   4.625   2.832   4.300 -0.7093 -0.5557  2.2787
10430TIP3    H252706   4.772   2.846   4.269 -1.1009  1.6712  1.2528
10431TIP3   OH252707   0.489   0.041  11.265 -0.7762 -0.3103 -0.1097
10431TIP3    H152708   0.468  -0.052  11.275 -1.0888 -0.0214  2.5555
10431TIP3    H252709   0.560   0.042  11.200 -1.0606 -2.3441 -0.5396
10432TIP3   OH252710   2.305   1.363  16.919 -0.0208 -0.3473 -0.2311
10432TIP3    H152711   2.337   1.272  16.918  0.1669 -0.3056 -2.1178
10432TIP3    H252712   2.214   1.356  16.949  0.0400 -1.1372 -0.2045
10433TIP3   OH252713   4.054   3.821   2.901  0.4404 -0.3966 -0.5332
10433TIP3    H152714   3.967   3.856   2.918  0.7817  0.6740 -0.9550
10433TIP3    H252715   4.092   3.810   2.988  0.7627  1.4312 -0.4103
10434TIP3   OH252716   6.627   5.600   4.920 -0.5686 -0.2416  0.8657
10434TIP3    H152717   6.574   5.603   5.000 -0.4408 -0.5266  0.9640
10434TIP3    H252718   6.653   5.691   4.904 -2.9702  0.3036 -0.4641
10435TIP3   OH252719   2.162   2.192  11.105  0.2132  0.0931 -0.3725
10435TIP3    H152720   2.118   2.277  11.097 -1.3322 -0.8031 -2.2824
10435TIP3    H252721   2.255   2.213  11.109 -0.1592  1.8908 -0.2996
10436TIP3   OH252722   6.233   5.925   2.805 -0.0789  0.1321  0.1806
10436TIP3    H152723   6.321   5.896   2.828 -0.1194 -0.3354 -0.2532
10436TIP3    H252724   6.246   6.014   2.771 -0.0994  1.1834  2.6765
10437TIP3   OH252725   0.953   0.289  14.372  0.7009 -0.8000  0.1791
10437TIP3    H152726   1.017   0.221  14.354  0.3678 -1.4016  1.1891
10437TIP3    H252727   1.004   0.362  14.408  0.9889 -0.7105 -0.4015
10438TIP3   OH252728   4.449   2.971  16.058 -0.3345 -0.0913  0.1297
10438TIP3    H152729   4.398   3.046  16.027 -1.1586 -0.2122  1.1225
10438TIP3    H252730   4.467   2.991  16.150  0.5728 -0.5107  0.0531
10439TIP3   OH252731   5.848   0.100   5.989  0.1143 -0.1226  0.0946
10439TIP3    H152732   5.875   0.011   6.012  2.1666  0.8466  1.7986
10439TIP3    H252733   5.820   0.138   6.072 -0.0789  1.0283 -0.4772
10440TIP3   OH252734   4.766   5.294   5.713 -0.5993  0.2270  0.4050
10440TIP3    H152735   4.740   5.338   5.794 -0.0742  1.0972  0.1094
10440TIP3    H252736   4.692   5.237   5.692 -0.7007 -0.0953  1.5482
10441TIP3   OH252737   4.966   5.547  11.843 -0.2681 -0.3867 -0.3173
10441TIP3    H152738   4.952   5.454  11.828  3.2483 -1.3324  1.0773
10441TIP3    H252739   4.879   5.584  11.857 -1.8498 -3.2164 -1.9850
10442TIP3   OH252740   3.409   2.795  16.115 -0.1451  0.4848  0.2892
10442TIP3    H152741   3.369   2.866  16.066 -0.1901 -1.0453 -2.0372
10442TIP3    H252742   3.379   2.715  16.072  1.1047 -0.9087  1.8400
10443TIP3   OH252743   6.742   5.840   4.892  0.1225  0.2128 -0.0125
10443TIP3    H152744   6.718   5.931   4.875  1.3803  0.0237 -3.7105
10443TIP3    H252745   6.797   5.844   4.971  2.9590  3.2656 -1.8952
10444TIP3   OH252746   5.138   6.778  13.241  0.3029 -0.1393  0.0532
10444TIP3    H152747   5.155   6.760  13.149  3.9564 -2.8700  1.0249
10444TIP3    H252748   5.200   6.847  13.264  0.1560 -0.2148  0.6982
10445TIP3   OH252749   0.911   6.121  16.844 -0.6048 -0.3387 -0.2375
10445TIP3    H152750   0.882   6.101  16.933  2.5832  1.6061  1.4261
10445TIP3    H252751   0.990   6.173  16.856  1.9350 -2.7639 -4.2386
10446TIP3   OH252752   2.593   1.947  13.343 -0.4567 -0.0737 -0.8713
10446TIP3    H152753   2.508   1.913  13.370  0.8605 -1.3823  2.1271
10446TIP3    H252754   2.586   2.042  13.354 -0.7684 -0.3580  2.1866
10447TIP3   OH252755   6.017   5.413  14.573 -0.3353  0.0664  0.1778
10447TIP3    H152756   6.034   5.442  14.663  1.5484  0.5190 -0.2920
10447TIP3    H252757   6.100   5.427  14.527 -1.1712 -0.4700 -1.5596
10448TIP3   OH252758   4.840   4.773  16.760 -1.2875  0.8524  0.3834
10448TIP3    H152759   4.799   4.768  16.847  0.7325 -0.7651  1.3319
10448TIP3    H252760   4.916   4.830  16.773 -0.9760  0.6106 -0.3278
10449TIP3   OH252761   3.181   4.143  12.427  0.5006  0.0343 -1.0075
10449TIP3    H152762   3.178   4.226  12.473 -0.6305 -0.0919 -0.8235
10449TIP3    H252763   3.089   4.123  12.407  0.7896 -0.9666 -1.4087
10450TIP3   OH252764   2.127   0.902   2.189  0.0073 -0.1793  0.3916
10450TIP3    H152765   2.218   0.931   2.191  0.1117 -0.4755  0.0865
10450TIP3    H252766   2.132   0.809   2.168 -0.4219  0.1455 -1.3167
10451TIP3   OH252767   4.363   1.381   5.092  0.2983 -0.4292 -0.4795
10451TIP3    H152768   4.430   1.320   5.061 -0.3030 -0.8525 -0.9564
10451TIP3    H252769   4.285   1.327   5.104  0.1682 -0.0265  0.5289
10452TIP3   OH252770   6.576   6.150   5.765 -0.1147  0.1092  0.8072
10452TIP3    H152771   6.562   6.070   5.815  0.2049 -0.8002 -0.5041
10452TIP3    H252772   6.643   6.198   5.813  1.8394 -1.7887  0.1321
10453TIP3   OH252773   3.880   4.362   0.736 -0.0489  0.1192  0.0137
10453TIP3    H152774   3.914   4.355   0.826 -1.3677  0.6681  0.5824
10453TIP3    H252775   3.948   4.409   0.688  1.7274 -2.1634  0.1166
10454TIP3   OH252776   5.704   4.067  15.731  0.3445  0.3563 -0.2147
10454TIP3    H152777   5.789   4.055  15.688  0.3222  1.8801 -0.7391
10454TIP3    H252778   5.695   3.990  15.787  1.1951 -0.8124 -1.5925
10455TIP3   OH252779   0.572   2.207   4.318  0.2386  0.5240 -1.2171
10455TIP3    H152780   0.554   2.266   4.391  0.4800 -0.2750 -0.4956
10455TIP3    H252781   0.643   2.150   4.350  0.3501  0.1690 -2.0715
10456TIP3   OH252782   4.193   1.397   0.649 -0.0974 -0.5809  0.6100
10456TIP3    H152783   4.198   1.484   0.688  1.9085 -0.6604  0.6574
10456TIP3    H252784   4.175   1.413   0.556  1.6649  0.0311  0.3246
10457TIP3   OH252785   3.699   0.895  14.519  0.2620  0.4489  0.2652
10457TIP3    H152786   3.605   0.895  14.538  0.5422  1.0520  1.7687
10457TIP3    H252787   3.707   0.845  14.438 -1.4430  1.1614 -0.3786
10458TIP3   OH252788   1.900   5.048   1.051  0.8261 -0.0165 -0.1493
10458TIP3    H152789   1.922   5.000   0.971  0.7593  0.9095 -0.7452
10458TIP3    H252790   1.983   5.058   1.097  1.0541  0.3033 -0.6075
10459TIP3   OH252791   0.426   4.481  15.842 -0.0812  0.2839  0.4916
10459TIP3    H152792   0.469   4.561  15.812 -1.4634  0.8153 -0.1312
10459TIP3    H252793   0.374   4.508  15.918 -0.0722 -0.1637  0.6643
10460TIP3   OH252794   3.468   4.242   3.635  0.4145 -0.5365 -0.2678
10460TIP3    H152795   3.451   4.189   3.713 -0.4984 -1.9838 -1.3858
10460TIP3    H252796   3.553   4.213   3.604  0.0737 -1.1167 -0.6789
10461TIP3   OH252797   0.333   5.542   5.427  0.6589  0.9565  0.3157
10461TIP3    H152798   0.401   5.536   5.361 -1.5742  1.8764 -2.2529
10461TIP3    H252799   0.335   5.458   5.473  1.8753  0.0175 -1.3646
10462TIP3   OH252800   2.663   5.128   2.405  0.1057  0.0739 -0.2341
10462TIP3    H152801   2.684   5.094   2.318 -0.7732 -0.5816 -0.2116
10462TIP3    H252802   2.737   5.102   2.459 -0.8125 -2.5350 -0.0606
10463TIP3   OH252803   0.267   4.165  15.059 -0.4698 -0.0654  0.6443
10463TIP3    H152804   0.219   4.230  15.007  2.1522  2.4519  1.0991
10463TIP3    H252805   0.307   4.107  14.995 -0.5639  0.4983  0.0676
10464TIP3   OH252806   6.080   5.318  11.098 -0.2200 -0.1990  0.6369
10464TIP3    H152807   6.079   5.356  11.010  1.2629  1.3205  1.2282
10464TIP3    H252808   6.108   5.227  11.084  0.7803  0.2447 -0.4030
10465TIP3   OH252809   5.510   1.374   0.895  0.1850  0.0785  0.0164
10465TIP3    H152810   5.542   1.322   0.969  0.3230 -0.3954 -0.3698
10465TIP3    H252811   5.583   1.433   0.874  0.6204 -0.6519 -0.5380
10466TIP3   OH252812   0.950   4.432  11.466 -0.1441 -0.3281  0.2631
10466TIP3    H152813   0.924   4.414  11.376  0.5113 -0.3442  0.0667
10466TIP3    H252814   1.038   4.470  11.457  0.6346 -1.8772  0.9937
10467TIP3   OH252815   2.345   4.345  17.296 -0.5749  0.0957 -0.6664
10467TIP3    H152816   2.329   4.270  17.354  0.7452 -0.0239 -0.4354
10467TIP3    H252817   2.287   4.413  17.328 -1.6412 -0.7425 -0.7374
10468TIP3   OH252818   0.265   1.968  15.192  0.2971 -0.2813 -0.4593
10468TIP3    H152819   0.186   2.021  15.204 -0.2252 -0.9481 -0.9028
10468TIP3    H252820   0.322   2.024  15.138 -0.5967 -0.4875 -1.6622
10469TIP3   OH252821   1.091   4.328   4.468  0.0456 -0.0087 -0.6190
10469TIP3    H152822   1.058   4.413   4.497 -0.2293 -0.4753  0.4842
10469TIP3    H252823   1.025   4.296   4.406  0.0205  0.4519 -0.8390
10470TIP3   OH252824   0.724   2.214  14.800 -0.4504 -0.1049  0.0246
10470TIP3    H152825   0.781   2.222  14.876 -1.2751  0.6365  0.5703
10470TIP3    H252826   0.689   2.125  14.806  1.6030 -1.0683 -1.0288
10471TIP3   OH252827   2.754   6.386  12.956  0.4685 -1.1477  0.1049
10471TIP3    H152828   2.839   6.410  12.919 -0.4479 -1.7130 -2.5443
10471TIP3    H252829   2.713   6.470  12.978  1.4835 -0.8537  0.9341
10472TIP3   OH252830   6.482   1.352  16.560  0.1505  0.7008  0.2640
10472TIP3    H152831   6.421   1.304  16.616  0.4466 -1.0769 -0.8554
10472TIP3    H252832   6.552   1.379  16.619 -1.9479  3.3992  1.7186
10473TIP3   OH252833   3.582   0.846  16.899  0.3461  0.4714  0.0163
10473TIP3    H152834   3.565   0.940  16.902  1.1917  0.6070  1.5711
10473TIP3    H252835   3.502   0.808  16.861  0.3791  1.8721 -1.5307
10474TIP3   OH252836   1.127   4.220   1.139 -0.0886 -0.0466 -0.0130
10474TIP3    H152837   1.187   4.273   1.086 -0.4041  0.2078 -0.1160
10474TIP3    H252838   1.043   4.264   1.131 -0.5055 -0.9366 -0.6391
10475TIP3   OH252839   2.199   5.231  14.624 -0.3994 -0.1532  0.4271
10475TIP3    H152840   2.116   5.182  14.619  0.7413 -2.3437  1.5268
10475TIP3    H252841   2.188   5.287  14.700 -0.3378 -1.6228  1.5662
10476TIP3   OH252842   3.499   6.451   3.803 -0.6143  0.0837  0.6143
10476TIP3    H152843   3.416   6.453   3.852 -1.0886 -0.4306 -0.1460
10476TIP3    H252844   3.486   6.515   3.733  0.2648  1.2169  1.4506
10477TIP3   OH252845   4.355   2.688   1.349 -0.3192  0.6048 -0.6274
10477TIP3    H152846   4.373   2.688   1.255 -0.5862 -1.3275 -0.7160
10477TIP3    H252847   4.269   2.646   1.357  0.8225 -1.6431  0.6304
10478TIP3   OH252848   1.295   0.328  12.856  0.2496 -0.0076 -0.2650
10478TIP3    H152849   1.365   0.292  12.800  0.3827 -0.4538  0.1796
10478TIP3    H252850   1.281   0.416  12.822  0.7051 -0.0780 -0.6611
10479TIP3   OH252851   6.697   3.588   6.730  0.3189  0.5462  0.4144
10479TIP3    H152852   6.664   3.506   6.766 -0.3878  0.3363 -0.6392
10479TIP3    H252853   6.790   3.588   6.749 -0.0890  0.7707  2.7827
10480TIP3   OH252854   4.025   1.311   5.997 -0.5695  0.3960  0.7862
10480TIP3    H152855   4.055   1.399   5.974  2.4838 -0.7629 -0.3002
10480TIP3    H252856   4.040   1.304   6.091  1.0117  0.4748  0.5673
10481TIP3   OH252857   1.205   4.917  13.215 -0.1025 -0.3081 -0.4212
10481TIP3    H152858   1.116   4.940  13.241  1.4664  2.8842  2.9582
10481TIP3    H252859   1.246   4.884  13.295  2.1875 -0.1288 -1.4425
10482TIP3   OH252860   3.447   1.710   4.709 -0.1466  0.4896  0.0510
10482TIP3    H152861   3.394   1.666   4.776 -0.1596  0.8990  0.3138
10482TIP3    H252862   3.529   1.731   4.753  0.2172 -0.0865 -0.3387
10483TIP3   OH252863   5.841   2.710   2.600  0.2007 -0.3503  0.5523
10483TIP3    H152864   5.902   2.739   2.532 -0.0540 -1.4784 -0.1852
10483TIP3    H252865   5.873   2.752   2.680  1.6760 -0.5325  0.0988
10484TIP3   OH252866   3.334   0.021  15.196  0.6057  0.2927  0.0932
10484TIP3    H152867   3.369   0.107  15.220  1.2025  0.0107  0.2690
10484TIP3    H252868   3.324   0.025  15.101  1.0118  0.4261  0.0514
10485TIP3   OH252869   5.487   6.645   0.986 -0.2156  0.0326  0.3352
10485TIP3    H152870   5.430   6.618   0.913 -2.1557  0.6293  1.5395
10485TIP3    H252871   5.494   6.566   1.040  0.6696 -0.2207 -0.1333
10486TIP3   OH252872   6.525   6.062   0.839  0.3215  0.2087  0.3368
10486TIP3    H152873   6.488   6.036   0.923 -0.8996  0.1429 -0.1909
10486TIP3    H252874   6.598   6.002   0.825 -0.2521 -0.6087  0.7762
10487TIP3   OH252875   3.666   4.349  15.622 -0.2451  0.5742 -0.2588
10487TIP3    H152876   3.716   4.425  15.590 -0.6480 -0.4008 -3.5318
10487TIP3    H252877   3.730   4.299  15.673  0.6990  1.8627 -0.1151
10488TIP3   OH252878   5.439   3.035   1.867  0.1474  0.2413 -0.8593
10488TIP3    H152879   5.529   3.066   1.859  1.1685 -2.2856 -0.2132
10488TIP3    H252880   5.407   3.030   1.777  0.0257  2.6478 -1.0143
10489TIP3   OH252881   4.739   3.853   5.447 -0.9219  0.2173 -0.2031
10489TIP3    H152882   4.717   3.891   5.361  0.7604  1.4980 -0.1073
10489TIP3    H252883   4.816   3.799   5.431 -0.8596  0.1077  0.4402
10490TIP3   OH252884   5.999   0.244   4.091  0.3453  0.2000 -0.3404
10490TIP3    H152885   5.922   0.206   4.049  1.3327 -1.4807 -0.7656
10490TIP3    H252886   5.992   0.338   4.075 -0.7335 -0.1039 -1.8641
10491TIP3   OH252887   1.026   5.895   0.656  0.0547  0.3617  0.7408
10491TIP3    H152888   0.956   5.828   0.656 -0.4170  0.8449  1.2061
10491TIP3    H252889   0.989   5.968   0.607  0.3588  0.4926  0.7079
10492TIP3   OH252890   2.400   6.396  14.601 -0.5764 -0.2995  0.4999
10492TIP3    H152891   2.322   6.344  14.579 -1.5143  0.8253  1.0652
10492TIP3    H252892   2.396   6.471  14.543  1.1690 -1.1476 -0.8166
10493TIP3   OH252893   4.003   4.153   0.084 -0.3385  0.0108 -0.3056
10493TIP3    H152894   3.944   4.109   0.022 -1.0942  0.9023 -0.2497
10493TIP3    H252895   3.954   4.231   0.111 -0.8470 -1.2567  2.8257
10494TIP3   OH252896   6.115   4.287  15.039  0.5101  0.1517 -0.0190
10494TIP3    H152897   6.164   4.299  14.958  1.9615  0.1857  0.8372
10494TIP3    H252898   6.158   4.213  15.083  0.3088  0.6832  1.1123
10495TIP3   OH252899   5.687   1.035   1.387  0.4407 -0.9801 -0.3456
10495TIP3    H152900   5.673   0.977   1.313 -1.4559 -0.8306 -0.1625
10495TIP3    H252901   5.774   1.072   1.373  0.4269 -1.5281 -2.0718
10496TIP3   OH252902   2.888   4.515  11.314 -0.5405 -0.1897  0.0158
10496TIP3    H152903   2.829   4.506  11.389  0.0699 -0.6655  0.4482
10496TIP3    H252904   2.868   4.601  11.277 -0.0639  0.5475  1.4217
10497TIP3   OH252905   2.537   0.143  14.557  0.1559 -0.2884 -0.2361
10497TIP3    H152906   2.524   0.105  14.643  1.1950 -0.6298 -0.2160
10497TIP3    H252907   2.480   0.220  14.555  0.5821  0.0763  0.9877
10498TIP3   OH252908   6.403   4.692   2.461 -0.1519  0.5695  0.2279
10498TIP3    H152909   6.376   4.620   2.404 -2.2027  1.6847 -0.3198
10498TIP3    H252910   6.496   4.676   2.477 -0.4678 -2.0606 -0.0216
10499TIP3   OH252911   5.541   0.486   2.565  0.0226  0.1666  0.5318
10499TIP3    H152912   5.518   0.498   2.473 -0.7447  0.8725  0.8028
10499TIP3    H252913   5.605   0.554   2.584 -0.5883  0.6857  0.7750
10500TIP3   OH252914   0.713   1.526  13.592 -0.4884 -0.6579  0.3848
10500TIP3    H152915   0.749   1.502  13.677 -0.9167  0.5826  0.9364
10500TIP3    H252916   0.619   1.538  13.608 -0.7611 -1.4593 -0.5069
10501TIP3   OH252917   4.655   0.956   5.801 -0.2447 -0.1443  0.6436
10501TIP3    H152918   4.591   0.964   5.730  1.8195 -1.5058 -1.5372
10501TIP3    H252919   4.716   1.028   5.786  1.2505 -1.5299 -0.1913
10502TIP3   OH252920   2.099   4.508  16.865 -0.3957 -0.0210  0.1583
10502TIP3    H152921   2.090   4.424  16.821 -0.8849  0.6039 -0.9938
10502TIP3    H252922   2.028   4.510  16.929 -0.5344 -0.3831  0.0141
10503TIP3   OH252923   6.432   0.076  16.663  0.5726  0.2027  0.1181
10503TIP3    H152924   6.444   0.164  16.626  2.0105 -0.3510 -0.8343
10503TIP3    H252925   6.502   0.067  16.727 -0.8908  0.5197  1.8317
10504TIP3   OH252926   2.595   4.322  17.165 -0.4020  0.3846  0.3273
10504TIP3    H152927   2.594   4.388  17.096 -1.3020 -0.3059 -0.3401
10504TIP3    H252928   2.511   4.333  17.210 -0.2466  0.1709  0.6768
10505TIP3   OH252929   1.541   5.129  16.334  0.1482 -0.3349  0.2916
10505TIP3    H152930   1.594   5.209  16.338 -1.0281  0.4353  1.2087
10505TIP3    H252931   1.595   5.066  16.286  1.4236  0.7633  0.2458
10506TIP3   OH252932   0.032   5.538  17.301  0.4741 -0.6390 -0.7549
10506TIP3    H152933  -0.012   5.623  17.304  1.2767 -0.1766 -1.4377
10506TIP3    H252934  -0.038   5.474  17.297 -0.1371  0.0787 -2.0258
10507TIP3   OH252935   5.781   1.718  11.881  0.1066  0.3050  0.2770
10507TIP3    H152936   5.744   1.695  11.795 -2.6764  0.1361  1.4075
10507TIP3    H252937   5.847   1.651  11.897 -2.1431 -2.1721 -0.0520
10508TIP3   OH252938   6.556   6.496   5.605  0.0833 -0.5492 -0.2483
10508TIP3    H152939   6.585   6.562   5.668 -0.5076  0.2877 -0.8275
10508TIP3    H252940   6.624   6.428   5.608  1.1710  0.5082 -0.2842
10509TIP3   OH252941   4.777   4.649  12.655  0.1333 -0.4275  0.1345
10509TIP3    H152942   4.800   4.680  12.568  0.1207  0.4478  0.4262
10509TIP3    H252943   4.841   4.581  12.675  0.5908 -0.1191 -0.2700
10510TIP3   OH252944   3.518   0.540   0.984 -0.0493  0.3878 -0.1569
10510TIP3    H152945   3.436   0.567   0.942  0.0335 -0.7046 -1.0452
10510TIP3    H252946   3.581   0.607   0.957 -0.1615  0.0827 -1.2408
10511TIP3   OH252947   2.268   4.670  15.034  0.4473  0.5543  0.1374
10511TIP3    H152948   2.287   4.733  14.964  0.9640 -1.2375 -1.4424
10511TIP3    H252949   2.274   4.721  15.115 -0.2579  2.7407 -1.1004
10512TIP3   OH252950   2.758   3.343  14.794 -0.3923  0.0927  0.2343
10512TIP3    H152951   2.833   3.285  14.784  0.1859  1.1192 -2.3288
10512TIP3    H252952   2.738   3.372  14.705 -2.7562  1.2180  1.0384
10513TIP3   OH252953   5.856   4.004   0.731  0.3378  0.5022  0.0477
10513TIP3    H152954   5.770   4.012   0.690 -0.2553 -0.9321  0.9263
10513TIP3    H252955   5.841   3.949   0.808  1.9432  0.6885  0.5384
10514TIP3   OH252956   0.526   1.131   1.548  0.1225 -0.1054 -0.2899
10514TIP3    H152957   0.587   1.134   1.622  0.2432  0.2273 -0.4039
10514TIP3    H252958   0.463   1.201   1.565 -0.2379 -0.4564 -0.1672
10515TIP3   OH252959   2.873   5.289   1.934 -0.1741 -0.3943  0.2112
10515TIP3    H152960   2.897   5.215   1.879  1.0301 -1.5081  2.0927
10515TIP3    H252961   2.888   5.258   2.024  0.2111  2.0690  1.0964
10516TIP3   OH252962   6.510   5.399   3.403  0.0533 -0.2980  0.6412
10516TIP3    H152963   6.572   5.466   3.431  1.1766 -0.9715 -0.1464
10516TIP3    H252964   6.488   5.351   3.483  1.1595 -0.5290  0.8204
10517TIP3   OH252965   1.772   0.012  12.984  0.4082 -0.5856 -0.7904
10517TIP3    H152966   1.792  -0.081  12.970 -0.6505 -1.1425  1.0899
10517TIP3    H252967   1.683   0.012  13.017  0.9913  0.9504  0.9175
10518TIP3   OH252968   0.525   2.449  12.998  0.0204  0.0445 -0.5407
10518TIP3    H152969   0.485   2.370  13.034 -0.5171  0.5359 -0.0410
10518TIP3    H252970   0.616   2.445  13.029 -0.2040  0.0097  0.1382
10519TIP3   OH252971   3.553   2.874  13.016 -0.2961 -0.1542  0.1899
10519TIP3    H152972   3.591   2.874  13.103 -0.9543 -0.9512  0.4920
10519TIP3    H252973   3.536   2.967  12.997  0.8711  0.1297  0.4311
10520TIP3   OH252974   5.222   0.351  14.514 -0.3039 -0.2374  0.4092
10520TIP3    H152975   5.238   0.283  14.449  1.2905  0.3355  0.1606
10520TIP3    H252976   5.195   0.427  14.462  0.2027 -0.0075  0.4818
10521TIP3   OH252977   4.913   4.166   4.977 -0.0371 -0.5622 -0.2367
10521TIP3    H152978   4.891   4.085   4.932 -0.0178 -0.4067 -0.5329
10521TIP3    H252979   4.831   4.196   5.014  0.0893 -1.0828  0.4845
10522TIP3   OH252980   4.854   6.489  11.099 -0.1569 -0.1333 -0.8536
10522TIP3    H152981   4.928   6.549  11.108 -0.6348  0.5626 -1.4147
10522TIP3    H252982   4.821   6.477  11.189  1.8050 -2.0252 -0.2992
10523TIP3   OH252983   6.476   0.261  13.905 -0.5737 -0.8345  0.0780
10523TIP3    H152984   6.464   0.338  13.960  0.7917 -0.6842  0.1834
10523TIP3    H252985   6.429   0.281  13.824 -0.7678 -0.1714  0.3520
10524TIP3   OH252986   2.741   6.581  17.072 -0.4803  0.0982 -0.1645
10524TIP3    H152987   2.808   6.583  17.004 -0.6172  2.6990 -0.3085
10524TIP3    H252988   2.786   6.610  17.151 -0.8114 -0.8662  0.3911
10525TIP3   OH252989   6.392   3.928   2.704  0.0163  0.5567  0.0746
10525TIP3    H152990   6.429   3.862   2.762  0.6392  1.7956  1.1539
10525TIP3    H252991   6.312   3.956   2.748 -0.7797 -0.1382 -0.8695
10526TIP3   OH252992   6.592   0.779  15.548 -0.2505 -0.3105 -0.3923
10526TIP3    H152993   6.592   0.806  15.639 -0.1221 -2.3952  0.2953
10526TIP3    H252994   6.499   0.773  15.524 -0.4812 -2.9942  0.7495
10527TIP3   OH252995   3.992   1.259  16.251  0.0920  0.0539  0.6477
10527TIP3    H152996   3.970   1.195  16.183 -1.7282  1.4831 -0.1961
10527TIP3    H252997   3.950   1.225  16.330 -1.2977  0.4030  0.0898
10528TIP3   OH252998   2.804   6.293  14.639  0.8192 -0.3162 -0.3087
10528TIP3    H152999   2.804   6.202  14.607 -2.0838 -0.4788 -0.0693
10528TIP3    H253000   2.794   6.346  14.560 -0.8782 -0.4257 -0.1948
10529TIP3   OH253001   6.493   1.720  13.423  0.5275  0.6550  0.1287
10529TIP3    H153002   6.420   1.780  13.440  0.0255  0.3081 -0.7702
10529TIP3    H253003   6.453   1.634  13.416  0.9034  0.5696 -1.2006
10530TIP3   OH253004   6.391   1.465  14.446 -0.0810 -0.6454 -0.6134
10530TIP3    H153005   6.319   1.513  14.486  1.2265  1.9728 -1.1845
10530TIP3    H253006   6.446   1.438  14.520  0.1276  0.4172 -0.3667
10531TIP3   OH253007   6.448   4.922   2.083  0.2355 -0.1610  0.7055
10531TIP3    H153008   6.471   5.014   2.067  0.0608  0.0358  1.5619
10531TIP3    H253009   6.447   4.882   1.996 -0.7553  0.8924  0.2225
10532TIP3   OH253010   2.920   2.174  12.679  0.1387  0.2361  0.7224
10532TIP3    H153011   2.998   2.119  12.678  0.3041  0.4769 -0.3754
10532TIP3    H253012   2.874   2.152  12.598 -0.2403  1.0897  0.7019
10533TIP3   OH253013   2.818   0.148   1.119  0.7482  0.1699  0.5690
10533TIP3    H153014   2.888   0.132   1.055  0.2982  0.5442 -0.0253
10533TIP3    H253015   2.814   0.243   1.126  0.1603  0.1548  0.4450
10534TIP3   OH253016   0.382   2.044   1.946 -0.1905  0.1882  0.0172
10534TIP3    H153017   0.289   2.043   1.970 -0.3621 -1.7695 -0.5862
10534TIP3    H253018   0.382   2.046   1.851  0.2573 -3.3035 -0.1662
10535TIP3   OH253019   5.938   0.602  10.989  0.0493  0.4927 -0.2035
10535TIP3    H153020   6.011   0.604  10.927 -0.3087 -1.3916 -0.7421
10535TIP3    H253021   5.876   0.539  10.952 -1.1205  0.8385  1.0599
10536TIP3   OH253022   1.225   6.566   1.879 -0.2531 -0.0822 -0.5349
10536TIP3    H153023   1.192   6.628   1.944 -1.5382 -0.8389 -0.4291
10536TIP3    H253024   1.164   6.573   1.806 -0.3133 -1.0757 -0.5959
10537TIP3   OH253025   2.717   0.652  12.384 -0.5548 -0.0245  0.7272
10537TIP3    H153026   2.734   0.571  12.337 -0.8203  1.0046 -1.2444
10537TIP3    H253027   2.735   0.631  12.476  2.1053 -1.5394 -0.0364
10538TIP3   OH253028   0.536   0.151  14.552  0.0292 -0.4742 -0.3735
10538TIP3    H153029   0.557   0.222  14.613  0.2971 -1.2557  0.4615
10538TIP3    H253030   0.620   0.125  14.516  0.2338 -1.9416  1.1027
10539TIP3   OH253031   1.856   2.149  15.408  0.3719 -0.3416  0.5047
10539TIP3    H153032   1.916   2.080  15.437 -1.7286 -2.3175  0.4679
10539TIP3    H253033   1.864   2.217  15.475  1.6316 -1.1390  1.2224
10540TIP3   OH253034   3.050   0.229   3.237 -0.5371 -0.5873  0.5148
10540TIP3    H153035   3.126   0.267   3.193 -0.8546 -2.4808 -1.8913
10540TIP3    H253036   3.084   0.199   3.321  1.7570 -2.4555 -0.9628
10541TIP3   OH253037   5.267   1.058  12.727  0.1380  0.1955 -0.2020
10541TIP3    H153038   5.257   1.123  12.797 -2.1855  0.6403 -0.8474
10541TIP3    H253039   5.340   1.090  12.675 -0.8990  2.2985 -0.4633
10542TIP3   OH253040   2.733   1.473  16.671 -0.0701 -0.0923  0.0638
10542TIP3    H153041   2.744   1.487  16.577 -0.1567 -1.0064 -0.0910
10542TIP3    H253042   2.646   1.434  16.680  0.0220 -0.2083  0.4987
10543TIP3   OH253043   0.123   3.015   1.039 -0.7538  0.0966 -0.0510
10543TIP3    H153044   0.160   2.937   1.080 -2.4372 -0.8955 -0.3264
10543TIP3    H253045   0.122   2.996   0.946  1.2839  1.5731 -0.4276
10544TIP3   OH253046   4.266   6.459  13.347  0.1668 -0.2137  0.3492
10544TIP3    H153047   4.292   6.405  13.272  0.2676  1.7013 -1.0810
10544TIP3    H253048   4.189   6.415  13.383  0.2464 -1.3076 -0.7428
10545TIP3   OH253049   6.431   6.720   0.350 -0.0647 -0.4285 -0.3376
10545TIP3    H153050   6.513   6.747   0.392  0.4668 -1.1397 -0.8965
10545TIP3    H253051   6.455   6.645   0.296 -0.7690  0.3223 -1.7463
10546TIP3   OH253052   5.637   3.421  15.927  0.5367 -0.4782  0.0557
10546TIP3    H153053   5.637   3.443  15.834  1.9820 -1.6848 -0.2528
10546TIP3    H253054   5.700   3.481  15.966  0.5241 -0.5090  0.1229
10547TIP3   OH253055   0.487   0.899  17.311 -0.6033 -0.0715  0.1701
10547TIP3    H153056   0.579   0.923  17.324 -0.8101  1.5173 -0.9820
10547TIP3    H253057   0.443   0.933  17.389 -0.0125 -2.4710  1.6382
10548TIP3   OH253058   6.442   5.150   3.197  0.6086 -0.5559  0.1486
10548TIP3    H153059   6.384   5.151   3.274 -1.3720  0.7121 -1.2610
10548TIP3    H253060   6.526   5.181   3.231 -1.0130  3.1743  1.3388
10549TIP3   OH253061   1.094   0.917  13.565  0.0329  0.0840 -0.0291
10549TIP3    H153062   1.187   0.936  13.556  0.1067  0.3729  1.1341
10549TIP3    H253063   1.087   0.874  13.650 -0.8368 -0.3802 -0.3263
10550TIP3   OH253064   4.115   6.359  11.059  0.2636  0.5539  0.2264
10550TIP3    H153065   4.076   6.299  10.995 -1.0703  0.2495  1.2879
10550TIP3    H253066   4.063   6.439  11.051  1.0687  1.0473 -0.1226
10551TIP3   OH253067   2.146   6.366  11.124 -0.8770  0.4016  0.1599
10551TIP3    H153068   2.179   6.299  11.065  0.7380  0.4773  0.9226
10551TIP3    H253069   2.209   6.438  11.115 -0.2747  0.2066  2.3310
10552TIP3   OH253070   6.280   2.937  15.384 -0.0086  0.4568 -0.3184
10552TIP3    H153071   6.234   2.885  15.451  0.4015 -1.1017 -1.1992
10552TIP3    H253072   6.366   2.954  15.422 -0.0061  0.1453 -0.1819
10553TIP3   OH253073   4.880   0.025   5.510 -0.1174 -0.5833 -0.6312
10553TIP3    H153074   4.813  -0.039   5.537 -0.4089  0.4270  1.2085
10553TIP3    H253075   4.960  -0.027   5.502 -0.2094 -1.1294  1.4394
10554TIP3   OH253076   1.697   2.016  11.758 -0.4155 -0.3130 -0.5954
10554TIP3    H153077   1.756   2.074  11.710 -0.8743  2.1179  1.5653
10554TIP3    H253078   1.756   1.959  11.808  0.0794 -0.0278 -0.8425
10555TIP3   OH253079   4.094   4.825   1.763  0.5152  0.1308 -0.5294
10555TIP3    H153080   4.016   4.830   1.709  0.5027 -0.4293 -0.5667
10555TIP3    H253081   4.161   4.787   1.706  0.7475  0.3684 -0.4200
10556TIP3   OH253082   3.580   0.009  12.112 -0.4590 -0.1810  0.1265
10556TIP3    H153083   3.499   0.005  12.063 -0.7142 -3.0455  0.5850
10556TIP3    H253084   3.647  -0.023  12.051 -0.2254 -0.7009  0.6423
10557TIP3   OH253085   1.300   4.896   2.426  0.3560 -0.3022 -0.0855
10557TIP3    H153086   1.294   4.969   2.488  0.6741  0.1450 -0.5746
10557TIP3    H253087   1.333   4.823   2.478 -1.1402 -0.4587  0.7020
10558TIP3   OH253088   0.121   0.771   1.782  0.7345  0.3438 -0.6114
10558TIP3    H153089   0.063   0.695   1.779 -2.4625  2.2281  3.5973
10558TIP3    H253090   0.209   0.734   1.785 -0.3841 -2.8968 -2.6780
10559TIP3   OH253091   3.132   1.862   0.258  0.0611 -0.3405  0.2273
10559TIP3    H153092   3.190   1.879   0.184 -0.7500 -0.1744 -0.3788
10559TIP3    H253093   3.157   1.774   0.288  1.6459  0.3235  0.9456
10560TIP3   OH253094   4.420   0.080  16.436 -0.2719  0.1907 -0.1092
10560TIP3    H153095   4.496   0.133  16.459 -0.5647  1.3779 -1.7457
10560TIP3    H253096   4.345   0.128  16.470 -0.3737 -0.4995  0.6696
10561TIP3   OH253097   1.452   3.554   0.876  0.2201  0.1063  0.0498
10561TIP3    H153098   1.357   3.568   0.871  0.1902 -0.5424 -1.9641
10561TIP3    H253099   1.462   3.459   0.885  0.6752  0.0995 -0.4725
10562TIP3   OH253100   1.662   6.610   0.007 -0.2670 -0.3532 -0.5300
10562TIP3    H153101   1.651   6.519  -0.019 -0.1842 -0.4152 -0.3491
10562TIP3    H253102   1.754   6.630  -0.014 -0.5417 -0.0207 -1.4635
10563TIP3   OH253103   3.454   1.678   0.660 -0.3040  0.8211 -0.4306
10563TIP3    H153104   3.459   1.679   0.756  3.4076  0.0050 -0.4417
10563TIP3    H253105   3.479   1.767   0.634  3.0089  0.0320 -0.4889
10564TIP3   OH253106   1.082   1.651   0.092 -0.6298 -0.1006 -0.6952
10564TIP3    H153107   1.038   1.637   0.176 -0.7739  0.9589 -0.5786
10564TIP3    H253108   1.081   1.746   0.080  1.5278 -0.0285 -0.7363
10565TIP3   OH253109   6.764   2.310   5.999  0.4853 -0.1864 -0.3571
10565TIP3    H153110   6.778   2.270   6.085  1.8108  0.0180 -0.4572
10565TIP3    H253111   6.848   2.301   5.955  0.0623  0.4826 -1.3192
10566TIP3   OH253112   4.170   1.546   4.219 -0.5908  0.2003 -0.3910
10566TIP3    H153113   4.233   1.497   4.166  0.0855  0.6739 -0.0351
10566TIP3    H253114   4.188   1.518   4.309  0.5680  1.9002 -0.0498
10567TIP3   OH253115   0.570   3.831  13.276  0.0778 -0.3613 -0.2036
10567TIP3    H153116   0.662   3.851  13.257 -0.0133 -1.1909 -1.6667
10567TIP3    H253117   0.549   3.885  13.352  1.4531  0.6831 -0.5253
10568TIP3   OH253118   3.609   5.257  15.053  0.3709  0.6915  0.6128
10568TIP3    H153119   3.599   5.333  15.111 -0.1219  1.7589 -0.8083
10568TIP3    H253120   3.666   5.197  15.102 -1.2068  0.8582  2.8304
10569TIP3   OH253121   0.596   5.057   2.268  0.0048 -0.2681 -0.5223
10569TIP3    H153122   0.604   5.005   2.348 -0.8248  0.1734 -0.1425
10569TIP3    H253123   0.671   5.118   2.272 -0.1272 -0.1333  0.0069
10570TIP3   OH253124   5.266   5.074   0.597  0.0130  0.0023  0.4493
10570TIP3    H153125   5.329   5.079   0.669 -1.6487  0.6682  1.9270
10570TIP3    H253126   5.237   5.164   0.584 -0.3220 -0.2323 -0.5070
10571TIP3   OH253127   0.411   2.183  14.379 -0.2408 -0.3308 -0.2057
10571TIP3    H153128   0.405   2.211  14.470 -0.4977  0.7164 -0.5359
10571TIP3    H253129   0.488   2.229  14.345 -1.1497  0.6474 -0.9836
10572TIP3   OH253130   2.112   5.239   1.147 -0.3062 -0.2172 -0.1463
10572TIP3    H153131   2.189   5.183   1.161 -0.1461 -0.0500 -0.3449
10572TIP3    H253132   2.147   5.328   1.144 -0.6102 -0.0738  0.5476
10573TIP3   OH253133   3.446   2.292   2.725 -0.2294  0.8353 -0.1020
10573TIP3    H153134   3.445   2.335   2.640  2.0828  3.5790  1.1024
10573TIP3    H253135   3.440   2.364   2.788  1.2631 -0.8169  2.0692
10574TIP3   OH253136   1.458   6.705   0.942  0.6087 -0.3353 -0.6158
10574TIP3    H153137   1.450   6.670   1.030 -0.6800 -0.4919 -0.7764
10574TIP3    H253138   1.368   6.713   0.911  1.0512 -0.4867 -1.9987
10575TIP3   OH253139   0.746   0.528   3.647 -0.5346 -0.2255 -0.3138
10575TIP3    H153140   0.765   0.435   3.657  0.0608 -0.2438 -1.4553
10575TIP3    H253141   0.827   0.572   3.673 -1.0695  0.0211  0.9696
10576TIP3   OH253142   5.082   0.019  16.007 -0.4687  0.2572  0.1563
10576TIP3    H153143   5.076   0.063  15.922 -2.0455 -0.5218 -0.1851
10576TIP3    H253144   5.159  -0.037  16.000 -1.2374 -0.7059 -1.2623
10577TIP3   OH253145   3.991   1.296  17.199 -0.1242 -0.8888  0.3793
10577TIP3    H153146   4.009   1.335  17.114 -0.5444 -2.0083 -0.2406
10577TIP3    H253147   4.075   1.260  17.227 -0.2362 -1.5236 -0.0943
10578TIP3   OH253148   1.310   6.546   2.347 -0.0472  0.6661 -0.0811
10578TIP3    H153149   1.345   6.586   2.267  0.8255  1.3300  0.6049
10578TIP3    H253150   1.387   6.535   2.403 -0.3914 -1.2161  0.0969
10579TIP3   OH253151   6.686   0.368   5.305  0.3087 -0.1284 -0.1210
10579TIP3    H153152   6.708   0.329   5.221 -0.1789 -0.2240 -0.2079
10579TIP3    H253153   6.651   0.455   5.283  0.0566 -0.2049 -0.0317
10580TIP3   OH253154   4.266   4.798  14.856 -0.1143  0.5247  0.2483
10580TIP3    H153155   4.297   4.759  14.774 -0.0674  0.0441  0.4892
10580TIP3    H253156   4.261   4.892  14.838 -0.8334  0.3466 -0.5434
10581TIP3   OH253157   0.428   1.327  11.641  0.0899 -0.4976  0.2196
10581TIP3    H153158   0.463   1.244  11.673  1.6827 -0.2304 -0.7367
10581TIP3    H253159   0.479   1.346  11.562  0.1264  1.6522  0.7088
10582TIP3   OH253160   5.116   6.645   5.453 -0.1548 -0.3227  0.4546
10582TIP3    H153161   5.155   6.569   5.410  0.4416  0.4120 -0.3280
10582TIP3    H253162   5.164   6.652   5.536  0.4125 -0.2736  0.1314
10583TIP3   OH253163   0.479   0.456   0.306 -0.3593 -0.2796 -0.2883
10583TIP3    H153164   0.506   0.538   0.263 -1.8365  0.3469 -0.0880
10583TIP3    H253165   0.512   0.465   0.396  0.8617 -0.6408 -0.6703
10584TIP3   OH253166   6.749   3.213  16.035  0.4082  0.3353 -0.4642
10584TIP3    H153167   6.704   3.268  16.098 -0.4899 -1.7016  0.7716
10584TIP3    H253168   6.687   3.203  15.962 -0.1287 -0.3883  0.0797
10585TIP3   OH253169   5.465   1.554  13.973 -0.2027 -0.1183 -0.2221
10585TIP3    H153170   5.394   1.503  13.934 -0.7822 -0.0449  0.7147
10585TIP3    H253171   5.505   1.600  13.899 -2.2018  1.1641 -0.5626
10586TIP3   OH253172   2.166   4.367   4.586 -0.2382  0.0223 -0.2306
10586TIP3    H153173   2.174   4.353   4.680  0.4708 -0.6562 -0.3767
10586TIP3    H253174   2.125   4.453   4.577  1.9895  1.2644  0.6797
10587TIP3   OH253175   3.231   2.574   1.909 -0.2096 -0.3599 -0.6605
10587TIP3    H153176   3.227   2.488   1.867  1.8751  0.2112 -2.1983
10587TIP3    H253177   3.308   2.570   1.965  0.3235  0.6778 -1.2738
10588TIP3   OH253178   2.436   4.087  15.573 -0.0485 -0.7365 -0.2962
10588TIP3    H153179   2.443   3.992  15.585  1.4829 -0.8054 -1.3795
10588TIP3    H253180   2.521   4.121  15.601 -1.2803  0.6201  2.1382
10589TIP3   OH253181   2.148   0.492  15.918 -0.2753  1.4724 -0.3906
10589TIP3    H153182   2.242   0.493  15.905  0.0595 -1.5863  0.9956
10589TIP3    H253183   2.116   0.426  15.857 -0.8760 -0.6405  2.0553
10590TIP3   OH253184   5.267   5.044   4.047 -0.3532  0.4587 -0.1217
10590TIP3    H153185   5.261   4.961   4.095  0.9743  0.7374  0.5858
10590TIP3    H253186   5.178   5.078   4.046 -0.8298 -0.7525 -0.0131
10591TIP3   OH253187   5.323   3.922  11.290 -0.2714 -0.2063 -0.2134
10591TIP3    H153188   5.317   3.859  11.218 -0.4570 -0.9554  0.4445
10591TIP3    H253189   5.237   3.964  11.292 -0.5866 -0.8520  0.1600
10592TIP3   OH253190   4.670   2.751  16.630 -0.2398  0.3346 -0.7480
10592TIP3    H153191   4.617   2.829  16.618 -0.7897  0.2417  0.8462
10592TIP3    H253192   4.640   2.691  16.562 -0.0025  1.3840 -1.8065
10593TIP3   OH253193   5.176   1.891   6.231  0.4526 -0.0693  0.3970
10593TIP3    H153194   5.224   1.927   6.156  0.5570  1.6387  1.2315
10593TIP3    H253195   5.104   1.842   6.192  0.7554  0.4172 -0.8267
10594TIP3   OH253196   4.144   1.087   1.442 -0.3413 -0.1481 -0.1877
10594TIP3    H153197   4.164   1.163   1.387  0.6598  0.8736  1.5095
10594TIP3    H253198   4.051   1.095   1.461 -0.2794  0.5887 -0.1466
10595TIP3   OH253199   2.252   1.530  10.885 -0.2552  0.0557  0.2993
10595TIP3    H153200   2.242   1.538  10.980  0.6012  1.6216  0.3018
10595TIP3    H253201   2.319   1.595  10.863 -0.4887 -0.2349 -1.3928
10596TIP3   OH253202   3.114   5.783   2.504  0.3461  0.0581  0.0454
10596TIP3    H153203   3.100   5.849   2.572 -0.6609  1.1542 -1.1861
10596TIP3    H253204   3.036   5.788   2.449  0.6924 -1.4956 -0.6520
10597TIP3   OH253205   0.448   1.588   5.421 -0.0196 -0.0855 -0.1757
10597TIP3    H153206   0.538   1.610   5.447 -0.5306 -0.3505  2.0156
10597TIP3    H253207   0.421   1.659   5.364  1.2848  0.4766 -0.1223
10598TIP3   OH253208   6.347   6.211   2.768  0.2454 -0.1464 -0.1181
10598TIP3    H153209   6.436   6.233   2.743  0.0660  0.3759 -0.2962
10598TIP3    H253210   6.323   6.275   2.835 -0.0574 -0.1773 -0.1938
10599TIP3   OH253211   1.903   2.315   5.321 -0.3551 -0.1686 -0.2109
10599TIP3    H153212   1.980   2.276   5.362 -0.1427  1.2236  0.7874
10599TIP3    H253213   1.854   2.241   5.286  2.2647 -1.0228 -2.4093
10600TIP3   OH253214   0.631   6.610  15.322 -0.3165 -0.6386  0.5243
10600TIP3    H153215   0.675   6.539  15.276 -0.0931 -0.7541  0.9166
10600TIP3    H253216   0.700   6.673  15.342 -0.2030 -1.0907  1.6583
10601TIP3   OH253217   5.011   0.861  16.689 -0.2168  0.2810  0.3570
10601TIP3    H153218   5.010   0.934  16.626 -1.2433  1.0402  1.1994
10601TIP3    H253219   4.918   0.848  16.710 -0.1916 -2.1751 -0.7453
10602TIP3   OH253220   0.223   4.421  11.394  0.5424  0.2736  0.0222
10602TIP3    H153221   0.304   4.471  11.409 -0.0981  1.3993 -0.1548
10602TIP3    H253222   0.227   4.350  11.458  1.0468  1.0957  0.9502
10603TIP3   OH253223   1.089   3.845   1.928 -1.1662  0.0528 -0.0691
10603TIP3    H153224   1.064   3.937   1.931 -1.7156 -0.0459 -1.1394
10603TIP3    H253225   1.090   3.823   1.835  0.6341 -0.5781  0.0459
10604TIP3   OH253226   0.769   6.680  13.409  0.1341  0.2312 -0.1325
10604TIP3    H153227   0.766   6.585  13.405 -1.0668  0.2248  0.4122
10604TIP3    H253228   0.719   6.702  13.488 -2.2539  1.4269 -1.8722
10605TIP3   OH253229   2.802   4.320  15.519 -0.4214 -0.6090 -0.0242
10605TIP3    H153230   2.761   4.395  15.475  0.7037  1.5875  2.4072
10605TIP3    H253231   2.735   4.288  15.579 -0.6293 -1.0868 -0.4983
10606TIP3   OH253232   5.722   4.841  14.265 -0.0005 -0.5303  0.3622
10606TIP3    H153233   5.705   4.880  14.351 -0.0256  2.2213 -0.7645
10606TIP3    H253234   5.670   4.895  14.204  1.7987 -0.8918 -1.6076
10607TIP3   OH253235   2.023   4.755  10.846  0.6951 -0.2240  0.7097
10607TIP3    H153236   2.095   4.792  10.897 -0.3149 -0.1459  2.1385
10607TIP3    H253237   1.984   4.830  10.801  1.4823 -0.2671 -0.0715
10608TIP3   OH253238   0.620   4.921   4.648  0.0572  0.5462  0.3599
10608TIP3    H153239   0.612   4.978   4.725 -1.5223 -0.8472  1.2787
10608TIP3    H253240   0.694   4.863   4.669  0.0765  0.6286  0.5215
10609TIP3   OH253241   3.465   0.788   0.767 -0.3496 -0.0414  0.1652
10609TIP3    H153242   3.553   0.760   0.792 -0.0525 -0.8712 -1.6083
10609TIP3    H253243   3.477   0.875   0.729 -0.3545  0.0181  0.3009
10610TIP3   OH253244   2.161   1.038   4.084 -0.3493 -0.0445  0.0739
10610TIP3    H153245   2.201   1.120   4.055 -4.0099  2.4276  1.3330
10610TIP3    H253246   2.198   1.022   4.171  1.9664 -1.0378 -1.0201
10611TIP3   OH253247   4.252   5.318   3.492 -0.0320  0.3624 -0.1921
10611TIP3    H153248   4.281   5.331   3.402  0.4957 -1.2584 -0.2825
10611TIP3    H253249   4.156   5.314   3.486 -0.1224  2.1075 -0.3927
10612TIP3   OH253250   6.624   3.066  11.576  0.0147  0.1201  0.1483
10612TIP3    H153251   6.602   3.118  11.498  1.2354 -0.4525 -0.6143
10612TIP3    H253252   6.684   3.122  11.625  0.0992  0.0574  0.1173
10613TIP3   OH253253   0.750   5.003   0.127 -0.2615 -0.0196 -0.0560
10613TIP3    H153254   0.770   5.011   0.033 -1.2972 -0.9286 -0.3794
10613TIP3    H253255   0.676   4.943   0.130 -0.2471  0.0094  1.3611
10614TIP3   OH253256   5.078   0.146   6.262  0.4412 -0.2187 -0.2649
10614TIP3    H153257   5.146   0.201   6.301  0.7617 -0.7706 -0.0279
10614TIP3    H253258   5.086   0.062   6.307 -1.8801  0.3503  1.3753
10615TIP3   OH253259   1.283   1.670  16.965 -0.3263 -0.0902 -0.6127
10615TIP3    H153260   1.256   1.618  17.040 -0.6384 -1.3157 -1.5565
10615TIP3    H253261   1.248   1.624  16.889  0.4444  0.8266 -1.5578
10616TIP3   OH253262   5.257   0.609  13.230  0.5609  0.1481 -0.1229
10616TIP3    H153263   5.341   0.627  13.272  0.0582 -1.4125  1.6970
10616TIP3    H253264   5.280   0.581  13.141  1.9373  0.0478  0.2432
10617TIP3   OH253265   1.484   1.190   4.052 -0.6367 -0.5857 -0.0844
10617TIP3    H153266   1.539   1.157   3.981  1.6216  1.1104  0.7665
10617TIP3    H253267   1.397   1.195   4.013  0.1975 -1.2394 -2.2225
10618TIP3   OH253268   3.186   3.741  16.618  0.4522 -0.2107  0.2420
10618TIP3    H153269   3.218   3.822  16.580 -2.2955  0.4011 -0.9911
10618TIP3    H253270   3.147   3.767  16.701  0.3510 -0.4355  0.2666
10619TIP3   OH253271   5.661   2.278  13.609 -0.2670  0.6926  0.1999
10619TIP3    H153272   5.691   2.362  13.574  1.1798 -0.0842 -0.5330
10619TIP3    H253273   5.701   2.213  13.552 -0.2545 -0.5380  1.5478
10620TIP3   OH253274   4.642   0.119   2.059 -0.0692 -0.2434 -0.3579
10620TIP3    H153275   4.558   0.116   2.012 -0.0867 -0.9290 -0.2949
10620TIP3    H253276   4.640   0.202   2.107 -1.2169 -0.7920  0.5723
10621TIP3   OH253277   1.713   0.746   4.637  0.4528  0.0118  0.2648
10621TIP3    H153278   1.803   0.762   4.607  0.1860  1.1747  0.0365
10621TIP3    H253279   1.659   0.762   4.561  0.0674 -1.2072  0.2599
10622TIP3   OH253280   6.038   4.263   5.657  0.2691 -0.0907  0.6325
10622TIP3    H153281   5.955   4.220   5.677 -0.0976  0.5408  0.4878
10622TIP3    H253282   6.087   4.258   5.739 -0.2134  0.1943  0.9493
10623TIP3   OH253283   0.863   1.402   0.864  0.2818 -0.3112 -0.0751
10623TIP3    H153284   0.823   1.406   0.951  1.0520 -0.9501  0.3183
10623TIP3    H253285   0.955   1.382   0.881  0.7305  0.8741 -0.9773
10624TIP3   OH253286   5.327   1.185  14.651 -0.0953  0.1275 -0.4948
10624TIP3    H153287   5.285   1.114  14.698  1.0728  0.3022  0.8679
10624TIP3    H253288   5.264   1.257  14.653 -0.0357  0.1621  0.9125
10625TIP3   OH253289   4.776   3.052  14.991 -0.6830  0.2786 -1.0950
10625TIP3    H153290   4.849   3.070  15.050 -2.1749  0.2080  0.8621
10625TIP3    H253291   4.781   2.958  14.976 -0.4231  0.2573 -0.8973
10626TIP3   OH253292   6.449   4.493   3.579 -0.2403 -0.3204  0.7031
10626TIP3    H153293   6.464   4.489   3.484 -0.2670 -1.2715  0.7237
10626TIP3    H253294   6.515   4.553   3.612 -1.5368  1.6678 -0.1594
10627TIP3   OH253295   0.985   5.350  14.055  0.4309 -0.3322 -0.3322
10627TIP3    H153296   0.963   5.418  14.119 -0.2157 -2.5880  2.0094
10627TIP3    H253297   0.953   5.384  13.972  1.0616  2.6229  0.5345
10628TIP3   OH253298   0.339   4.627  11.790  0.5589 -0.4241 -0.0740
10628TIP3    H153299   0.318   4.719  11.806 -0.9473 -0.1579 -2.8370
10628TIP3    H253300   0.367   4.624  11.699  1.1991 -2.6308  0.1289
10629TIP3   OH253301   2.110   3.650   1.083 -0.2388  0.4856 -0.0927
10629TIP3    H153302   2.193   3.681   1.048 -0.3787 -0.2439 -1.1400
10629TIP3    H253303   2.050   3.654   1.008  0.1336 -3.8067 -0.8547
10630TIP3   OH253304   6.070   1.503   0.930 -0.2516 -0.1615  0.0718
10630TIP3    H153305   5.994   1.444   0.931  0.1822 -0.7149  0.3415
10630TIP3    H253306   6.039   1.580   0.882 -1.4054  0.1922  1.3145
10631TIP3   OH253307   6.422   3.720  10.551  0.5499 -0.7036 -0.8040
10631TIP3    H153308   6.449   3.766  10.630  0.6634 -1.1966 -0.5484
10631TIP3    H253309   6.501   3.715  10.498  0.3794 -0.0144 -1.1366
10632TIP3   OH253310   6.275   3.575   5.604  0.2074  0.3457  0.5767
10632TIP3    H153311   6.285   3.660   5.561  1.1007 -0.2929 -0.5616
10632TIP3    H253312   6.309   3.512   5.540 -0.0152 -0.8275  1.5705
10633TIP3   OH253313   1.445   4.058  11.886 -0.1309  0.3688  0.8733
10633TIP3    H153314   1.426   4.142  11.928 -1.9887  0.3528  0.1034
10633TIP3    H253315   1.524   4.075  11.834 -1.7770  2.3163 -1.1401
10634TIP3   OH253316   0.343   4.612   4.188 -0.2340 -0.6978  0.3230
10634TIP3    H153317   0.270   4.630   4.246 -0.5188  0.7096 -0.4516
10634TIP3    H253318   0.389   4.538   4.230 -1.1039 -0.4900  1.6919
10635TIP3   OH253319   2.641   6.744   5.895 -0.0834  0.0707  0.2247
10635TIP3    H153320   2.585   6.679   5.937  2.7306 -1.1083  2.5335
10635TIP3    H253321   2.588   6.780   5.825 -2.6235 -3.0497  0.3089
10636TIP3   OH253322   2.160   5.004  12.118 -0.1087  0.0289 -0.5644
10636TIP3    H153323   2.209   4.955  12.184 -2.1909 -1.6879 -0.1690
10636TIP3    H253324   2.171   5.096  12.143  0.3092 -0.4915  1.3445
10637TIP3   OH253325   4.875   1.696   4.866  0.0011  0.3321  0.1015
10637TIP3    H153326   4.831   1.780   4.852  1.0287  0.7809 -0.5410
10637TIP3    H253327   4.826   1.655   4.937 -2.2991  0.2003 -1.4575
10638TIP3   OH253328   0.017   3.359   3.536 -0.4927 -0.2538 -0.1959
10638TIP3    H153329   0.039   3.295   3.603  0.0726 -0.0603 -0.1973
10638TIP3    H253330   0.070   3.436   3.557 -0.4599 -0.1223 -0.7462
10639TIP3   OH253331   0.295   3.818   4.708 -0.4734  0.6118  0.4971
10639TIP3    H153332   0.287   3.857   4.622  2.0273 -1.8347 -1.0147
10639TIP3    H253333   0.383   3.842   4.738  0.7194 -2.6290 -0.0163
10640TIP3   OH253334   3.289   2.563  13.417  0.7171 -0.3025  0.1593
10640TIP3    H153335   3.332   2.605  13.342  1.3590 -2.3304 -0.6924
10640TIP3    H253336   3.231   2.498  13.377 -1.2417  0.6048  1.3810
10641TIP3   OH253337   5.069   0.433  12.984 -0.6861  0.1855 -0.0158
10641TIP3    H153338   5.064   0.366  13.052 -0.7786 -0.5077 -0.6846
10641TIP3    H253339   5.119   0.504  13.023  2.1362 -1.5089 -0.2892
10642TIP3   OH253340   0.568   4.242   5.573 -0.1131  0.0521 -0.3221
10642TIP3    H153341   0.597   4.329   5.600 -0.3021  0.2410 -0.7088
10642TIP3    H253342   0.565   4.247   5.477 -0.0018 -0.4196 -0.3531
10643TIP3   OH253343   3.634   2.372   4.917  0.0941 -0.4327  0.1323
10643TIP3    H153344   3.725   2.359   4.944 -0.4517 -0.8430  1.9485
10643TIP3    H253345   3.593   2.415   4.992 -0.9560  0.8359 -1.1242
10644TIP3   OH253346   1.985   2.831   5.640  0.4054 -0.1529  0.3582
10644TIP3    H153347   1.904   2.786   5.661 -0.2608  0.3347 -1.0231
10644TIP3    H253348   1.957   2.909   5.591  1.6814  0.2136  0.1731
10645TIP3   OH253349   2.560   1.853   5.090 -0.0217 -0.0505  0.6970
10645TIP3    H153350   2.653   1.831   5.098 -0.3775 -2.3138 -0.4923
10645TIP3    H253351   2.526   1.848   5.179  0.5851 -1.4948  0.8789
10646TIP3   OH253352   1.096   2.936  16.115  0.1178  0.0127 -0.1730
10646TIP3    H153353   1.058   2.864  16.166 -0.1081 -0.0582 -0.4414
10646TIP3    H253354   1.170   2.896  16.069  0.8470  0.2635  0.7433
10647TIP3   OH253355   4.299   5.404  15.437  0.0316  0.1981 -0.0674
10647TIP3    H153356   4.325   5.321  15.478  1.9229  0.1213 -1.3229
10647TIP3    H253357   4.212   5.422  15.474  0.6455 -1.0263  2.1791
10648TIP3   OH253358   5.022   5.668   4.755  0.3771  0.8574 -0.2787
10648TIP3    H153359   5.051   5.652   4.845 -0.6999 -1.4321 -0.2544
10648TIP3    H253360   4.931   5.696   4.763  0.2674  0.6229 -0.6423
10649TIP3   OH253361   4.667   3.508   0.148 -0.3793 -0.3234 -0.2978
10649TIP3    H153362   4.632   3.579   0.095 -1.3264  0.1970  0.9718
10649TIP3    H253363   4.665   3.541   0.238  2.6710 -0.5468 -0.0190
10650TIP3   OH253364   2.288   3.887   3.043  0.1373  0.3117 -0.4143
10650TIP3    H153365   2.366   3.860   3.092 -0.6522 -1.6462 -0.1357
10650TIP3    H253366   2.235   3.934   3.107  0.2155 -0.0707 -0.0632
10651TIP3   OH253367   3.247   0.999   4.798  0.3038 -0.3552 -0.3563
10651TIP3    H153368   3.307   1.058   4.754  2.2593 -0.2473  2.2437
10651TIP3    H253369   3.209   1.052   4.869 -1.0837 -1.0937 -0.5169
10652TIP3   OH253370   5.182   6.208  16.524  0.0021  0.1297 -0.2015
10652TIP3    H153371   5.192   6.200  16.429  0.8076 -0.5001 -0.0810
10652TIP3    H253372   5.269   6.188  16.558 -0.3445  0.1075  0.6854
10653TIP3   OH253373   6.037   2.910  12.523  0.1839 -0.3786 -0.2695
10653TIP3    H153374   6.057   2.817  12.534  0.0634 -0.3758 -0.0302
10653TIP3    H253375   6.070   2.931  12.435 -1.1891 -1.0332 -0.9698
10654TIP3   OH253376   3.249   5.456   3.051  0.1382  0.2269  0.1860
10654TIP3    H153377   3.283   5.369   3.028 -1.0240  0.0216 -0.8491
10654TIP3    H253378   3.239   5.454   3.146  0.9141 -0.4747  0.2596
10655TIP3   OH253379   4.011   2.468  11.038  0.2526 -0.1640 -0.3605
10655TIP3    H153380   4.004   2.547  10.985 -0.2376  0.0720  0.0456
10655TIP3    H253381   3.985   2.397  10.979  0.3369  0.0199 -0.6201
10656TIP3   OH253382   5.391   5.403  12.613 -0.2160 -0.4063 -0.1135
10656TIP3    H153383   5.365   5.439  12.528 -0.3207 -0.2498 -0.0169
10656TIP3    H253384   5.448   5.470  12.651 -1.1896  0.1123  0.4901
10657TIP3   OH253385   0.559   2.764   1.909  0.6919  0.1741  0.2442
10657TIP3    H153386   0.512   2.686   1.878  1.4119  0.2235 -1.0625
10657TIP3    H253387   0.559   2.756   2.004 -1.6274 -0.0096  0.2867
10658TIP3   OH253388   2.168   4.886  15.275  0.0885 -0.4961  0.6604
10658TIP3    H153389   2.192   4.938  15.198 -1.0408  1.5547  1.6107
10658TIP3    H253390   2.249   4.878  15.325  0.3747 -0.0369  0.2763
10659TIP3   OH253391   3.950   0.438   4.081 -0.0149  0.3398 -0.1378
10659TIP3    H153392   3.939   0.419   4.174  0.5965 -0.6595 -0.2583
10659TIP3    H253393   3.867   0.478   4.055  0.0574  1.2523  0.9786
10660TIP3   OH253394   6.308   6.381   2.986  0.1407  0.1521 -0.2174
10660TIP3    H153395   6.269   6.383   3.073 -1.1023  0.5218 -0.7541
10660TIP3    H253396   6.370   6.454   2.985 -0.5368  0.7474  0.0607
10661TIP3   OH253397   5.568   5.011  13.395 -0.7114  0.5449 -0.1475
10661TIP3    H153398   5.561   4.933  13.340 -2.3155  0.2455  0.4372
10661TIP3    H253399   5.584   4.977  13.483 -1.0680  0.8939  0.0548
10662TIP3   OH253400   3.475   3.764   5.270  0.4495  0.0183  0.5946
10662TIP3    H153401   3.568   3.746   5.282  0.5489 -0.3347 -0.6390
10662TIP3    H253402   3.443   3.692   5.215 -0.4629  0.3786  0.6266
10663TIP3   OH253403   5.906   2.948  15.406  0.2299  0.5124 -0.8650
10663TIP3    H153404   5.987   2.919  15.363 -0.3065 -0.7432 -1.0623
10663TIP3    H253405   5.879   2.874  15.460 -1.7070  0.2222 -2.1316
10664TIP3   OH253406   5.458   0.150  11.692  0.0700 -0.9135  0.3958
10664TIP3    H153407   5.483   0.242  11.683 -1.2106 -0.1286  3.6446
10664TIP3    H253408   5.420   0.127  11.607 -0.6514  1.9209 -0.1346
10665TIP3   OH253409   3.003   0.487   2.762  0.7040 -0.1678 -0.3959
10665TIP3    H153410   2.923   0.514   2.717  0.9606  0.8431 -0.2668
10665TIP3    H253411   2.975   0.470   2.852  0.3238 -1.5178 -0.7391
10666TIP3   OH253412   3.073   3.863   3.281  0.4592  0.1837 -0.3643
10666TIP3    H153413   3.066   3.889   3.189 -1.5514  1.0295 -0.0249
10666TIP3    H253414   3.116   3.937   3.323 -0.9543  0.9534 -0.2168
10667TIP3   OH253415   4.840   5.280  15.580 -0.0231  0.2366 -0.3007
10667TIP3    H153416   4.768   5.308  15.636  0.8355  1.0930  0.4100
10667TIP3    H253417   4.806   5.289  15.491 -1.1567 -0.4435  0.0443
10668TIP3   OH253418   4.462   6.594   0.121  0.5193 -0.3477 -0.2209
10668TIP3    H153419   4.430   6.684   0.119  0.2106 -0.4254  0.6311
10668TIP3    H253420   4.515   6.585   0.042 -1.0219 -0.0118 -1.3338
10669TIP3   OH253421   5.172   2.931   4.033 -0.8564  0.1110  0.2842
10669TIP3    H153422   5.092   2.967   3.994 -0.9755 -0.6119 -0.1529
10669TIP3    H253423   5.168   2.837   4.015 -0.1823 -0.0197  0.7533
10670TIP3   OH253424   4.802   0.918  16.356  0.0973  0.1151  0.5622
10670TIP3    H153425   4.785   1.004  16.317  1.0641 -0.8723 -2.3112
10670TIP3    H253426   4.896   0.904  16.344 -0.4390 -2.4544 -1.7519
10671TIP3   OH253427   1.576   0.020   3.006 -0.3117  0.3324  0.1773
10671TIP3    H153428   1.583   0.081   2.932  1.4908  2.7780  2.1638
10671TIP3    H253429   1.667  -0.001   3.028 -0.8272 -0.5753  1.5206
10672TIP3   OH253430   5.258   6.287   1.969 -0.1193  0.6765 -0.3007
10672TIP3    H153431   5.308   6.207   1.987 -0.9002  0.2232 -0.1337
10672TIP3    H253432   5.323   6.358   1.978  0.8336 -0.0096 -1.5318
10673TIP3   OH253433   6.629   3.966  14.025 -0.2087  0.2717  0.0292
10673TIP3    H153434   6.537   3.973  14.050 -0.5746  2.8566 -1.6652
10673TIP3    H253435   6.661   4.056  14.023  2.2214 -0.5002 -0.0214
10674TIP3   OH253436   2.581   4.664  11.096  0.0132  0.2646  0.1449
10674TIP3    H153437   2.549   4.746  11.059 -0.0929  1.2343  2.2117
10674TIP3    H253438   2.524   4.597  11.058 -0.6834  1.2794 -0.6857
10675TIP3   OH253439   1.335   1.836   2.811  0.6313  0.2557  0.3093
10675TIP3    H153440   1.390   1.890   2.868  1.4194 -0.8069  0.5874
10675TIP3    H253441   1.271   1.798   2.870  0.9185 -0.1733  0.3473
10676TIP3   OH253442   6.755   6.395  11.837 -0.4982 -0.0518  0.4797
10676TIP3    H153443   6.831   6.346  11.867 -1.3744 -0.1634  2.7500
10676TIP3    H253444   6.683   6.362  11.891 -1.8374  1.1892 -0.4639
10677TIP3   OH253445   5.308   4.914  16.006 -0.1139 -0.1870  0.8017
10677TIP3    H153446   5.295   4.974  15.933 -1.1077 -0.7243  0.5265
10677TIP3    H253447   5.256   4.951  16.077  1.2600  0.6178  1.4276
10678TIP3   OH253448   6.053   2.859  11.224  0.2131 -0.3113 -0.0744
10678TIP3    H153449   6.080   2.897  11.141 -2.6066 -1.4609 -1.6666
10678TIP3    H253450   6.029   2.769  11.203 -0.6212 -0.6234  1.9620
10679TIP3   OH253451   4.182   6.722   6.243 -0.3312  0.1485  0.0982
10679TIP3    H153452   4.199   6.776   6.320  1.4494 -0.3673  0.1108
10679TIP3    H253453   4.269   6.693   6.214 -0.6150  2.2921 -3.5738
10680TIP3   OH253454   1.011   2.771   2.485 -0.3028  0.2489  0.6755
10680TIP3    H153455   0.964   2.692   2.462  0.7311 -0.7201  1.7347
10680TIP3    H253456   1.072   2.785   2.413  0.9049 -1.1043  1.3810
10681TIP3   OH253457   3.856   5.956  17.052  0.3920  0.0177  0.3343
10681TIP3    H153458   3.814   6.029  17.097  0.0189 -0.6895  1.1838
10681TIP3    H253459   3.933   5.993  17.010 -0.0593  0.9838  0.3499
10682TIP3   OH253460   5.492   1.556   1.477  0.0395 -0.5325 -0.2751
10682TIP3    H153461   5.451   1.615   1.541  1.3387 -1.1913  1.2097
10682TIP3    H253462   5.489   1.605   1.394  0.8285  1.5362  0.8512
10683TIP3   OH253463   1.144   2.151  13.997  0.1399 -0.4130  1.0621
10683TIP3    H153464   1.133   2.226  14.056 -0.6499  0.2470  0.1166
10683TIP3    H253465   1.064   2.151  13.944 -0.0401 -2.1562  1.2769
10684TIP3   OH253466   3.564   3.341   3.537  0.0312  0.9586 -0.5039
10684TIP3    H153467   3.470   3.332   3.553  0.4453 -2.1747  0.8262
10684TIP3    H253468   3.594   3.401   3.606 -0.4366 -1.4974  2.0335
10685TIP3   OH253469   3.365   1.486   4.527  0.2793  0.2629  0.1064
10685TIP3    H153470   3.299   1.513   4.463 -0.0164 -2.1752 -0.7478
10685TIP3    H253471   3.423   1.561   4.535 -1.8812  2.0668 -0.0222
10686TIP3   OH253472   0.748   4.960  10.939 -0.2398 -0.5546  0.7951
10686TIP3    H153473   0.814   5.029  10.945 -1.4631  0.5834  1.9066
10686TIP3    H253474   0.673   5.003  10.898 -0.7986 -1.3976  0.9138
10687TIP3   OH253475   1.508   5.751  15.183 -0.1416 -0.4588  0.1056
10687TIP3    H153476   1.547   5.816  15.124 -1.3734 -0.7577 -1.0801
10687TIP3    H253477   1.554   5.669  15.162  0.7658 -0.1929  0.9548
10688TIP3   OH253478   5.534   5.139  15.854  0.1520  0.4714  0.0043
10688TIP3    H153479   5.620   5.105  15.831 -0.5228  0.5782 -3.1495
10688TIP3    H253480   5.473   5.085  15.804 -1.5366  1.3012  1.0653
10689TIP3   OH253481   2.032   3.978   1.914 -0.2456 -0.1638  0.5269
10689TIP3    H153482   1.949   3.984   1.867 -0.8108 -1.3654  1.3281
10689TIP3    H253483   2.099   3.988   1.846 -1.0473 -1.3332 -0.4658
10690TIP3   OH253484   3.823   6.367  14.144 -0.8902 -0.5955 -0.0639
10690TIP3    H153485   3.807   6.432  14.076  1.5367 -0.5213 -0.6631
10690TIP3    H253486   3.754   6.302  14.132 -1.3781  0.1607 -1.6179
10691TIP3   OH253487   1.247   1.837  15.187 -0.3554 -0.3335  0.0344
10691TIP3    H153488   1.327   1.889  15.189 -0.5722  0.0148  2.1376
10691TIP3    H253489   1.200   1.867  15.110  0.6590  0.8407 -0.1569
10692TIP3   OH253490   4.036   1.160  14.257  0.0691  0.0501  0.2183
10692TIP3    H153491   4.106   1.225  14.261 -0.4970  0.7095 -0.1378
10692TIP3    H253492   4.023   1.133  14.348 -0.5871  1.4563  0.5841
10693TIP3   OH253493   4.526   5.972   0.578 -0.3820  0.4633 -0.4261
10693TIP3    H153494   4.601   5.914   0.587 -0.9571 -0.5014 -1.5311
10693TIP3    H253495   4.453   5.914   0.557 -1.3066  1.4445 -0.0244
10694TIP3   OH253496   6.467   5.169   1.900  0.0320 -0.1150 -0.0847
10694TIP3    H153497   6.465   5.222   1.820 -1.2838 -0.6515 -0.4391
10694TIP3    H253498   6.501   5.227   1.967  0.4793  0.5694 -0.8891
10695TIP3   OH253499   5.412   1.503  11.958  0.2535 -0.6387  0.1328
10695TIP3    H153500   5.435   1.585  12.002 -0.9314 -0.6573  0.8381
10695TIP3    H253501   5.324   1.518  11.924  0.6035 -1.1202 -1.0425
10696TIP3   OH253502   4.397   4.322  12.360  0.4448  0.0876  0.2122
10696TIP3    H153503   4.356   4.379  12.295  0.3681  0.5848  0.6802
10696TIP3    H253504   4.378   4.233  12.330  0.9954  0.2985 -0.8005
10697TIP3   OH253505   6.104   5.569  14.782 -0.4163 -0.5326  0.5481
10697TIP3    H153506   6.133   5.574  14.873  0.4555 -1.7959  0.3609
10697TIP3    H253507   6.161   5.629  14.735 -1.6222  1.0150  0.9771
10698TIP3   OH253508   3.474   1.044  15.474 -0.4829  0.5874 -0.6710
10698TIP3    H153509   3.549   1.097  15.499  0.7007 -0.9474 -0.7949
10698TIP3    H253510   3.512   0.974  15.421 -1.9417 -0.4884 -0.3431
10699TIP3   OH253511   3.739   0.622  13.464 -0.3588  0.0918 -0.9714
10699TIP3    H153512   3.763   0.607  13.555 -0.9780  0.6802 -0.7095
10699TIP3    H253513   3.672   0.556  13.445  2.5206 -2.7761 -2.2345
10700TIP3   OH253514   4.385   5.755  14.840  0.2531  0.2039  0.1744
10700TIP3    H153515   4.292   5.773  14.824  0.0747  0.8363  1.7517
10700TIP3    H253516   4.431   5.816  14.783 -0.3079  0.4155 -0.0613
10701TIP3   OH253517   5.669   0.474   4.372  0.2342  0.2203  0.3247
10701TIP3    H153518   5.592   0.530   4.362 -0.2863 -0.2154  1.7624
10701TIP3    H253519   5.672   0.423   4.291 -1.0156  0.1914  0.2826
10702TIP3   OH253520   2.410   3.658  14.041 -0.1594 -0.3229 -0.2328
10702TIP3    H153521   2.350   3.677  13.970 -0.2068  0.8392  0.0971
10702TIP3    H253522   2.418   3.740  14.089  1.8414 -0.3674 -0.3745
10703TIP3   OH253523   3.568   6.166   6.389 -0.2628  0.5504  0.4075
10703TIP3    H153524   3.607   6.132   6.469 -0.9316  0.3334  0.6405
10703TIP3    H253525   3.477   6.182   6.410 -0.4183  0.6178 -0.2720
10704TIP3   OH253526   6.688   1.635   2.279  0.6503  0.2990  0.2766
10704TIP3    H153527   6.618   1.574   2.303 -2.1497  3.5993  1.1842
10704TIP3    H253528   6.671   1.713   2.331  2.9005  2.6215 -2.1672
10705TIP3   OH253529   2.802   3.054  17.075 -0.2189  0.4529 -0.1382
10705TIP3    H153530   2.862   3.097  17.137 -1.2265 -0.2137  1.3454
10705TIP3    H253531   2.853   2.982  17.039  0.0677  0.2416  0.6698
10706TIP3   OH253532   1.210   3.485   2.557  0.6566  0.4712 -0.1540
10706TIP3    H153533   1.244   3.496   2.469  3.3325 -2.1883  0.4009
10706TIP3    H253534   1.285   3.501   2.614 -0.7452  1.0812  1.6454
10707TIP3   OH253535   2.433   1.815  17.326  0.4164  0.0810 -0.4753
10707TIP3    H153536   2.441   1.881  17.256 -1.2043 -2.3476 -3.2055
10707TIP3    H253537   2.466   1.735  17.286 -2.7749 -1.9599  0.6460
10708TIP3   OH253538   5.714   1.303  10.795  0.3323 -0.1353 -0.2825
10708TIP3    H153539   5.801   1.272  10.821 -0.1010 -0.1251  1.2697
10708TIP3    H253540   5.727   1.397  10.778  0.6310 -0.1445 -0.1164
10709TIP3   OH253541   1.383   5.109  12.826  0.0156 -0.3859 -0.4300
10709TIP3    H153542   1.357   5.187  12.875 -1.4864 -1.7698  1.1003
10709TIP3    H253543   1.448   5.066  12.882  0.4306 -0.5236 -1.0090
10710TIP3   OH253544   1.365   6.716  14.786 -0.3813  0.6444  0.5505
10710TIP3    H153545   1.348   6.798  14.832  1.6613  1.2997  0.2291
10710TIP3    H253546   1.337   6.732  14.696  1.7146  1.7148  0.0237
10711TIP3   OH253547   3.607   5.824   1.571 -0.1435  0.1505 -0.5823
10711TIP3    H153548   3.527   5.867   1.601 -0.2582 -0.3624 -0.1395
10711TIP3    H253549   3.591   5.731   1.586 -0.1588 -0.1312 -2.1060
10712TIP3   OH253550   3.053   3.550  15.909  0.3522  0.4479 -0.1138
10712TIP3    H153551   3.110   3.626  15.899 -1.2307  1.5371 -1.2803
10712TIP3    H253552   3.093   3.482  15.854  0.5472  1.1892 -0.9036
10713TIP3   OH253553   6.609   6.084  15.399 -0.0445  0.8370 -0.3227
10713TIP3    H153554   6.591   6.164  15.349 -2.2593  0.6669  0.0803
10713TIP3    H253555   6.590   6.109  15.490 -1.8800 -0.3702 -0.3132
10714TIP3   OH253556   3.868   0.348  17.122  0.1958  0.5171 -0.1241
10714TIP3    H153557   3.923   0.285  17.169 -1.0225 -1.0802 -0.7598
10714TIP3    H253558   3.930   0.411  17.086  1.5439 -0.6900 -0.0209
10715TIP3   OH253559   3.180   5.680  12.305  0.0111  0.0139  0.2801
10715TIP3    H153560   3.242   5.661  12.376 -0.3139  0.3642  0.6633
10715TIP3    H253561   3.094   5.671  12.345 -0.2427 -1.5616 -0.5173
10716TIP3   OH253562   5.946   4.966  11.526  0.6230  0.1370 -0.2349
10716TIP3    H153563   6.003   4.950  11.451  0.0547  0.0328 -0.6527
10716TIP3    H253564   5.991   4.925  11.600 -0.6228 -3.3144 -1.1789
10717TIP3   OH253565   0.049   3.915  12.338  0.1514  0.1051  0.1391
10717TIP3    H153566   0.024   3.988  12.395 -2.0964  0.8253 -1.6176
10717TIP3    H253567   0.097   3.955  12.266  0.4576 -0.4069  0.0533
10718TIP3   OH253568   0.912   2.352   3.540 -0.3421  0.0311  0.0951
10718TIP3    H153569   0.903   2.273   3.593 -0.8279  0.6231  0.9225
10718TIP3    H253570   0.825   2.393   3.544  0.0802  0.9371  0.2119
10719TIP3   OH253571   6.716   2.955  12.854 -0.3273 -0.3176  0.1174
10719TIP3    H153572   6.697   2.861  12.861 -0.1634 -0.5554 -2.0470
10719TIP3    H253573   6.746   2.980  12.942  1.5232 -2.7239  0.2752
10720TIP3   OH253574   6.539   1.251  15.829  0.0599  0.1807  0.7380
10720TIP3    H153575   6.509   1.220  15.914 -1.4330  2.3754  1.0905
10720TIP3    H253576   6.578   1.337  15.847  0.2626  0.4253 -0.6979
10721TIP3   OH253577   3.477   3.588   3.985 -0.1281  0.3888 -0.2383
10721TIP3    H153578   3.504   3.599   4.076 -1.9203  1.6077  0.2065
10721TIP3    H253579   3.472   3.493   3.972  1.3110  0.1847  0.5363
10722TIP3   OH253580   1.862   1.235  15.499  0.3923  0.3644  0.2327
10722TIP3    H153581   1.935   1.286  15.535 -0.2977 -0.3781  2.8534
10722TIP3    H253582   1.789   1.251  15.559 -1.1844 -0.1674 -1.4441
10723TIP3   OH253583   3.584   2.078   1.318 -0.1379 -0.1403 -0.6310
10723TIP3    H153584   3.491   2.075   1.296 -0.1793  0.2449 -0.5278
10723TIP3    H253585   3.586   2.084   1.414 -0.1177  2.5634 -0.7053
10724TIP3   OH253586   5.670   0.136  13.445  0.2417  0.7098 -0.4088
10724TIP3    H153587   5.660   0.044  13.418 -0.3604  0.9521 -1.0470
10724TIP3    H253588   5.761   0.143  13.474  0.0329 -0.3146  0.5471
10725TIP3   OH253589   3.602   3.788  14.992 -0.1777  0.2870  0.1075
10725TIP3    H153590   3.657   3.854  15.034 -0.1051  0.6004 -0.4610
10725TIP3    H253591   3.608   3.809  14.899 -0.0064 -0.6370 -0.0999
10726TIP3   OH253592   4.109   4.546   4.364  0.1897  0.3890  0.0586
10726TIP3    H153593   4.109   4.614   4.432  3.5679  0.2949  0.3035
10726TIP3    H253594   4.082   4.466   4.409  0.7789  0.6526  0.8866
10727TIP3   OH253595   6.179   3.517  13.397 -0.0742  0.4575  0.3859
10727TIP3    H153596   6.234   3.513  13.475 -1.4493  1.4503  1.4580
10727TIP3    H253597   6.240   3.534  13.326  1.5770 -2.9413  0.7475
10728TIP3   OH253598   4.563   1.305  16.836 -0.3532 -0.1406 -0.3710
10728TIP3    H153599   4.593   1.234  16.779  0.9773  0.5397 -0.5602
10728TIP3    H253600   4.641   1.331  16.885 -0.6715  1.5226 -0.6776
10729TIP3   OH253601   5.215   4.763   2.462  0.2856  0.1425 -0.2052
10729TIP3    H153602   5.193   4.675   2.433  2.1845 -0.5322  0.2098
10729TIP3    H253603   5.163   4.776   2.541  0.6558 -1.0058  0.2523
10730TIP3   OH253604   6.608   0.136   5.730  0.2053 -0.3102  0.5486
10730TIP3    H153605   6.692   0.093   5.710  0.6343  0.5195  0.5499
10730TIP3    H253606   6.567   0.151   5.645 -0.4258 -1.6453  0.5930
10731TIP3   OH253607   6.657   5.047   0.372  0.5718  0.1672  0.1437
10731TIP3    H153608   6.678   5.126   0.321  0.1289 -0.0935 -0.4448
10731TIP3    H253609   6.565   5.030   0.354  1.0209 -1.3342 -0.9069
10732TIP3   OH253610   5.728   5.193   0.877  0.0338 -0.5379  0.3831
10732TIP3    H153611   5.685   5.262   0.927 -1.9593 -1.6529  0.2931
10732TIP3    H253612   5.696   5.112   0.916  1.2607 -1.4311 -0.3912
10733TIP3   OH253613   6.666   1.703  13.670 -0.2423 -0.1017  0.2513
10733TIP3    H153614   6.618   1.717  13.751  1.4763 -0.8284  1.4542
10733TIP3    H253615   6.598   1.683  13.605 -1.6064 -0.1922  1.6508
10734TIP3   OH253616   3.584   3.042  16.429 -0.6380 -0.5394 -0.4732
10734TIP3    H153617   3.517   3.106  16.452 -2.3595 -1.9918 -1.2472
10734TIP3    H253618   3.557   3.008  16.344  0.3599 -2.1017 -0.2058
10735TIP3   OH253619   1.561   5.948   1.280 -0.5745  0.2822 -0.0507
10735TIP3    H153620   1.570   6.044   1.281 -2.2079  0.5344 -2.0584
10735TIP3    H253621   1.651   5.916   1.273  0.2197  1.4987  2.8107
10736TIP3   OH253622   1.475   5.677  11.400 -0.1585  0.1061  0.1368
10736TIP3    H153623   1.502   5.764  11.372  0.3106  0.0095  0.2699
10736TIP3    H253624   1.414   5.693  11.472  1.1383  0.3326  1.2434
10737TIP3   OH253625   5.720   5.059  16.296  0.4058  0.2743 -0.4075
10737TIP3    H153626   5.626   5.069  16.281  0.1644 -0.6185  0.4512
10737TIP3    H253627   5.760   5.116  16.231 -0.7607  3.3302  1.3517
10738TIP3   OH253628   5.174   5.626   2.171 -0.0871  0.1433  0.1515
10738TIP3    H153629   5.110   5.642   2.102 -0.6637 -0.6630  0.4869
10738TIP3    H253630   5.147   5.683   2.243  0.2412  0.6383 -0.1134
10739TIP3   OH253631   1.538   3.995  10.518 -0.0143  0.3217 -0.3678
10739TIP3    H153632   1.447   4.013  10.542  0.3924 -0.6636  2.2526
10739TIP3    H253633   1.582   4.079  10.528 -0.6107  0.8199 -1.7202
10740TIP3   OH253634   4.278   2.797  17.187  0.0366  0.4101  0.2023
10740TIP3    H153635   4.259   2.751  17.105  0.8559  2.0350 -0.9681
10740TIP3    H253636   4.223   2.754  17.252 -0.0961 -1.4209 -1.0276
10741TIP3   OH253637   3.199   5.169  12.016 -0.0027  0.5036 -0.0517
10741TIP3    H153638   3.218   5.105  12.084  1.7888 -1.3551 -2.1007
10741TIP3    H253639   3.133   5.126  11.961  0.2555  0.9622 -0.7301
10742TIP3   OH253640   5.621   5.920  11.109  0.0045 -0.0810 -0.2006
10742TIP3    H153641   5.697   5.899  11.163 -1.4544  0.5861  2.2832
10742TIP3    H253642   5.580   5.836  11.092 -0.6045 -0.1847  1.5459
10743TIP3   OH253643   3.892   0.231   4.773 -0.3045 -0.4493  0.2878
10743TIP3    H153644   3.844   0.153   4.744  1.4789 -1.1165 -1.0411
10743TIP3    H253645   3.839   0.305   4.741 -0.7172 -1.1535 -0.7140
10744TIP3   OH253646   6.025   3.356   4.356 -0.5515 -0.7940 -0.4789
10744TIP3    H153647   6.113   3.389   4.336 -0.3122 -1.0440  0.1398
10744TIP3    H253648   6.035   3.261   4.360 -0.7332 -0.7856  0.1586
10745TIP3   OH253649   5.888   2.231   2.401  0.2821 -0.4502 -0.0818
10745TIP3    H153650   5.838   2.221   2.319 -0.8736  0.6305  0.4674
10745TIP3    H253651   5.845   2.171   2.462  1.2122 -1.3361 -0.2741
10746TIP3   OH253652   6.031   2.091  12.527 -0.1683  0.4583 -0.1278
10746TIP3    H153653   6.017   2.186  12.529 -0.7506  0.4099  2.8056
10746TIP3    H253654   6.001   2.061  12.613 -0.8956 -2.5459 -1.3193
10747TIP3   OH253655   3.461   3.059  13.972 -0.4963  0.3019 -0.4908
10747TIP3    H153656   3.424   3.081  13.886 -2.3099  1.0707  0.4456
10747TIP3    H253657   3.489   2.968  13.963 -0.3057  0.4851 -2.0069
10748TIP3   OH253658   5.573   4.679   1.600  0.6604  0.3490  0.1923
10748TIP3    H153659   5.639   4.748   1.607  1.5628 -0.3420 -1.0984
10748TIP3    H253660   5.622   4.601   1.575 -0.6114 -0.2357 -0.5853
10749TIP3   OH253661   0.592   4.149  10.572  0.7928  0.5889 -0.0672
10749TIP3    H153662   0.502   4.118  10.576  0.6872  0.7383 -1.0075
10749TIP3    H253663   0.644   4.070  10.560  0.6712  0.6146 -0.7936
10750TIP3   OH253664   1.175   4.346  14.161 -0.7319 -0.3411  0.0444
10750TIP3    H153665   1.269   4.332  14.151 -0.9744 -1.1189 -1.3467
10750TIP3    H253666   1.157   4.326  14.253  0.3876 -0.5704  0.2222
10751TIP3   OH253667   4.803   0.188  14.597  0.6153 -0.1578 -0.0125
10751TIP3    H153668   4.871   0.239  14.642  1.2134 -0.0627 -1.0017
10751TIP3    H253669   4.721   0.225  14.630  1.0370  0.0895  0.7980
10752TIP3   OH253670   3.884   4.808   2.723  0.3088  0.2637  0.2251
10752TIP3    H153671   3.927   4.724   2.738  1.9430  1.2293  1.3030
10752TIP3    H253672   3.923   4.840   2.641 -0.1067  0.0876 -0.0402
10753TIP3   OH253673   5.258   0.702   1.459  0.5747  0.3946 -0.0694
10753TIP3    H153674   5.296   0.762   1.523  1.4937  1.2046 -1.3203
10753TIP3    H253675   5.283   0.615   1.489  1.9245  0.8182  0.1072
10754TIP3   OH253676   4.230   1.454   1.540  0.1323 -0.0852 -0.0769
10754TIP3    H153677   4.138   1.438   1.560  0.4089  0.3895  1.7681
10754TIP3    H253678   4.242   1.548   1.555  0.7249  0.0269 -1.1837
10755TIP3   OH253679   4.277   0.584  14.328 -0.6656 -0.1471 -0.2153
10755TIP3    H153680   4.320   0.557  14.409 -0.6435  1.0084  0.1820
10755TIP3    H253681   4.238   0.669  14.349 -1.4783 -0.2726 -1.1386
10756TIP3   OH253682   3.489   4.993  12.947 -0.4655  0.1573 -0.1321
10756TIP3    H153683   3.479   5.022  13.037  0.0882  0.8657 -0.2890
10756TIP3    H253684   3.466   4.900  12.949 -2.1122  0.5445  0.4107
10757TIP3   OH253685   5.689   2.209  11.632 -0.0730 -0.1452 -0.0945
10757TIP3    H153686   5.725   2.120  11.629  0.7532  0.1963 -0.5268
10757TIP3    H253687   5.602   2.198  11.672 -1.1030 -1.5271 -2.4696
10758TIP3   OH253688   6.681   1.413  16.772  0.4513  0.2499 -0.6574
10758TIP3    H153689   6.731   1.427  16.692  0.2959 -2.3722 -1.3059
10758TIP3    H253690   6.730   1.459  16.840  1.9819  0.4133 -1.8277
10759TIP3   OH253691   5.863   1.782  16.286 -1.0279  0.7980  0.4264
10759TIP3    H153692   5.769   1.791  16.300 -0.8802  0.7258  1.4862
10759TIP3    H253693   5.881   1.838  16.210 -1.6288  2.2420  1.3109
10760TIP3   OH253694   3.854   5.950   1.692 -0.1236  0.5001  0.0500
10760TIP3    H153695   3.789   5.899   1.644 -1.1170  2.1649 -0.4908
10760TIP3    H253696   3.808   5.977   1.772  0.5401  0.1668  0.5529
10761TIP3   OH253697   6.604   6.360  12.733  0.2500  0.6416  0.0645
10761TIP3    H153698   6.517   6.343  12.769  0.1441  1.7043  0.3501
10761TIP3    H253699   6.644   6.273  12.725 -0.0999  0.2633  1.8203
10762TIP3   OH253700   6.347   6.543   1.968  0.8153 -0.1006  0.0395
10762TIP3    H153701   6.397   6.543   2.050 -0.8888 -1.9885  1.1669
10762TIP3    H253702   6.407   6.506   1.904  1.7217  0.1104  0.7310
10763TIP3   OH253703   4.978   3.691  14.842 -1.6538 -0.1323 -0.5019
10763TIP3    H153704   5.059   3.698  14.791  0.0503 -1.5044  1.8099
10763TIP3    H253705   4.972   3.774  14.889 -0.1290 -0.9126  1.1988
10764TIP3   OH253706   1.178   1.098  11.363 -0.4384  0.3925 -0.0537
10764TIP3    H153707   1.273   1.088  11.369 -0.2068  1.0840 -1.7263
10764TIP3    H253708   1.155   1.152  11.438  0.0736 -1.8748  1.8353
10765TIP3   OH253709   1.670   2.282  16.267  0.2902  0.3329 -0.0321
10765TIP3    H153710   1.660   2.197  16.224 -0.2216  0.7202 -0.6870
10765TIP3    H253711   1.586   2.297  16.310  0.6134  0.2018  0.6736
10766TIP3   OH253712   0.278   2.770   1.070  0.0796 -0.6232 -0.1419
10766TIP3    H153713   0.289   2.706   0.999 -0.9921  0.3759 -1.2628
10766TIP3    H253714   0.356   2.758   1.125  0.0913 -2.6057 -0.5104
10767TIP3   OH253715   1.704   1.347   4.143 -0.3788 -0.3834  0.6109
10767TIP3    H153716   1.631   1.289   4.122 -0.7297  0.1894  0.2275
10767TIP3    H253717   1.673   1.400   4.216 -0.7221  0.5280 -0.1715
10768TIP3   OH253718   5.864   2.178   4.835  0.0198  0.0218  0.2289
10768TIP3    H153719   5.937   2.202   4.777  1.5457 -0.2078  1.9756
10768TIP3    H253720   5.850   2.256   4.889 -1.7930  0.4482 -0.7540
10769TIP3   OH253721   1.095   3.514  17.052 -0.0701  0.4692  0.1012
10769TIP3    H153722   1.127   3.447  16.992 -0.3686  1.4812 -1.2441
10769TIP3    H253723   1.155   3.510  17.127 -1.1261 -2.4487  0.8944
10770TIP3   OH253724   6.453   1.315  12.881  0.3527  0.2825  0.9976
10770TIP3    H153725   6.472   1.221  12.890 -0.1876 -0.0414 -0.8037
10770TIP3    H253726   6.538   1.358  12.895  0.3443 -0.3077  3.3231
10771TIP3   OH253727   2.444   0.544  14.506  0.1299  0.2847 -0.1784
10771TIP3    H153728   2.387   0.620  14.515 -0.0497  0.0557  0.8529
10771TIP3    H253729   2.385   0.469  14.515  0.5010  0.0416  0.2931
10772TIP3   OH253730   6.338   4.383  13.677 -0.3937  0.0720 -0.2376
10772TIP3    H153731   6.272   4.431  13.727 -0.7912 -0.4962 -0.2169
10772TIP3    H253732   6.310   4.292  13.681  0.1115 -0.1048 -0.6682
10773TIP3   OH253733   2.197   5.425  14.853  0.3520  0.4598 -0.4289
10773TIP3    H153734   2.201   5.520  14.864  1.8100  0.1291  3.2876
10773TIP3    H253735   2.289   5.398  14.841 -0.0429 -0.5247 -1.5189
10774TIP3   OH253736   2.283   5.474  16.635 -0.7648  0.1986  0.5997
10774TIP3    H153737   2.350   5.539  16.612  1.0570 -0.7269  2.8508
10774TIP3    H253738   2.281   5.414  16.560 -1.3668  1.9156 -0.8365
10775TIP3   OH253739   3.103   5.367  15.774 -0.4928  0.7527 -0.5362
10775TIP3    H153740   3.069   5.399  15.858  0.9960 -1.9092  1.1983
10775TIP3    H253741   3.180   5.422  15.757 -0.0209  0.4456  0.5453
10776TIP3   OH253742   6.516   3.467   2.126 -0.2375 -0.5437 -0.5584
10776TIP3    H153743   6.572   3.406   2.174 -1.1955 -1.9753 -1.1928
10776TIP3    H253744   6.577   3.527   2.083  0.7124 -0.6669  0.5638
10777TIP3   OH253745   5.115   6.257  12.244  0.1089 -0.2498 -0.2906
10777TIP3    H153746   5.030   6.301  12.247 -0.7937 -1.8354 -1.4566
10777TIP3    H253747   5.176   6.327  12.219 -1.0310  0.6450 -0.6798
10778TIP3   OH253748   3.890   5.609   4.578  0.2273 -0.0666  0.7306
10778TIP3    H153749   3.917   5.649   4.496 -0.4574 -0.6230  0.2122
10778TIP3    H253750   3.851   5.680   4.628 -2.1361 -0.2448 -0.6909
10779TIP3   OH253751   6.092   1.725  17.276  0.2156 -0.6771 -0.0286
10779TIP3    H153752   6.096   1.820  17.269 -0.2981 -0.6940 -0.6048
10779TIP3    H253753   6.031   1.698  17.207  1.4926 -1.5396 -0.8658
10780TIP3   OH253754   2.926   2.094  11.890 -0.0296  0.0920  0.1348
10780TIP3    H153755   3.001   2.133  11.935  2.0469 -5.2781  2.1769
10780TIP3    H253756   2.945   2.107  11.797  2.5032  0.5233  0.6433
10781TIP3   OH253757   2.563   3.424  11.781 -0.3176  0.3458  0.3708
10781TIP3    H153758   2.576   3.519  11.782 -1.9294  0.7864 -3.1119
10781TIP3    H253759   2.651   3.387  11.784  0.3931  1.9830  0.8664
10782TIP3   OH253760   6.562   2.245   1.422 -0.0750 -0.5138 -0.0992
10782TIP3    H153761   6.494   2.180   1.402 -0.4861  0.0673 -0.6347
10782TIP3    H253762   6.515   2.314   1.470  0.6192 -1.2288  1.7000
10783TIP3   OH253763   5.312   2.998  12.349 -0.3715  0.2687  0.4386
10783TIP3    H153764   5.403   2.982  12.324 -0.5632 -1.2115  0.5664
10783TIP3    H253765   5.273   3.039  12.272  0.1885  0.0762  0.0434
10784TIP3   OH253766   5.842   6.604  15.884  0.5884 -0.1831 -0.6335
10784TIP3    H153767   5.928   6.634  15.914 -0.2873  2.4727 -0.5428
10784TIP3    H253768   5.830   6.647  15.799 -0.5808 -0.6606 -0.7290
10785TIP3   OH253769   4.345   3.470  15.013  0.0343  0.0318  0.2660
10785TIP3    H153770   4.404   3.436  14.946  0.0029 -0.9190  0.6912
10785TIP3    H253771   4.282   3.523  14.966  1.1308  0.9439 -0.2203
10786TIP3   OH253772   4.481   0.014   4.009  0.9838  0.1575  0.1100
10786TIP3    H153773   4.551  -0.050   3.996  1.1471  0.4013 -0.2138
10786TIP3    H253774   4.486   0.071   3.933 -0.8844 -1.0372 -1.0224
10787TIP3   OH253775   3.391   2.031  15.629  0.5647  0.1644 -0.4894
10787TIP3    H153776   3.483   2.028  15.653  1.1897  1.3322 -2.5491
10787TIP3    H253777   3.371   2.123  15.615 -0.2425 -0.2321 -2.3594
10788TIP3   OH253778   2.260   4.727   0.566  0.3013 -0.2149 -0.3742
10788TIP3    H153779   2.192   4.785   0.601 -0.9889 -0.8002 -1.7555
10788TIP3    H253780   2.250   4.734   0.471  0.4302 -2.3039 -0.5801
10789TIP3   OH253781   3.434   2.728  14.680 -0.0361 -0.4654 -0.2273
10789TIP3    H153782   3.498   2.720  14.609  0.7401 -0.4946  0.4631
10789TIP3    H253783   3.387   2.645  14.679 -0.2548 -0.3448 -0.9084
10790TIP3   OH253784   1.345   1.558   2.005  0.9112  0.1874 -0.5813
10790TIP3    H153785   1.279   1.623   1.984  0.0188 -0.1803  0.9118
10790TIP3    H253786   1.418   1.609   2.042  0.3986  0.3949  0.1686
10791TIP3   OH253787   5.978   3.097  11.823  0.7880 -0.1730  0.2213
10791TIP3    H153788   5.991   3.189  11.846 -1.6596  0.2751  0.0399
10791TIP3    H253789   5.967   3.053  11.907  2.4918 -0.4496  0.3402
10792TIP3   OH253790   6.194   3.990   4.740  0.3112  0.2867 -0.1116
10792TIP3    H153791   6.144   3.919   4.781  1.1938 -0.9101 -1.0425
10792TIP3    H253792   6.130   4.061   4.729 -1.7540 -1.8044 -2.9335
10793TIP3   OH253793   1.761   4.409  13.253 -0.3312 -0.6600 -0.4807
10793TIP3    H153794   1.789   4.367  13.171 -2.9118 -2.5756 -0.5082
10793TIP3    H253795   1.669   4.429  13.239 -0.6848 -0.5110  1.7588
10794TIP3   OH253796   3.122   0.786  14.766  0.3996 -0.1750  0.0427
10794TIP3    H153797   3.215   0.775  14.784  0.7279  0.6233 -1.0461
10794TIP3    H253798   3.118   0.816  14.675 -1.0523 -2.1647 -0.6169
10795TIP3   OH253799   2.595   0.825   2.381  0.2565  0.2189 -0.0577
10795TIP3    H153800   2.553   0.754   2.332 -0.4467  0.4056  0.2689
10795TIP3    H253801   2.688   0.812   2.366  0.1299 -0.7295 -0.0613
10796TIP3   OH253802   0.535   5.254   2.794 -0.1043  0.9311 -0.0567
10796TIP3    H153803   0.596   5.328   2.794  1.2770 -0.1652 -0.1182
10796TIP3    H253804   0.591   5.176   2.802 -1.5898 -0.0621  1.2214
10797TIP3   OH253805   3.367   4.241   4.594  0.2587 -0.1044 -0.4024
10797TIP3    H153806   3.307   4.214   4.525 -0.5623  0.4699  0.0725
10797TIP3    H253807   3.373   4.336   4.585 -0.4468  0.0767  0.7572
10798TIP3   OH253808   6.596   3.936   3.579  0.0079 -0.0281 -0.5360
10798TIP3    H153809   6.598   3.968   3.489  0.9729  2.3343  0.2138
10798TIP3    H253810   6.671   3.877   3.585  0.2886  0.2547 -1.1547
10799TIP3   OH253811   5.009   1.021   1.060 -0.4569 -0.4228 -0.0372
10799TIP3    H153812   5.063   0.942   1.060 -0.0756 -0.1780 -1.1925
10799TIP3    H253813   5.070   1.090   1.088 -0.4761 -0.3360 -0.2138
10800TIP3   OH253814   2.517   5.100  11.169 -0.1514  0.1380  0.4285
10800TIP3    H153815   2.603   5.140  11.179 -1.0791  2.3270  0.1838
10800TIP3    H253816   2.457   5.174  11.161 -1.7927 -1.2972 -1.7201
10801TIP3   OH253817   6.348   6.356  11.789  0.8156  0.0972 -0.2402
10801TIP3    H153818   6.277   6.360  11.854  0.1124 -0.7726 -0.9351
10801TIP3    H253819   6.428   6.351  11.842  0.4212  1.5307  0.5616
10802TIP3   OH253820   5.552   2.733   0.137  0.5425 -0.4896  0.4890
10802TIP3    H153821   5.541   2.685   0.220  0.6559 -1.0840  0.1674
10802TIP3    H253822   5.538   2.667   0.069  1.6147 -0.2776  0.0404
10803TIP3   OH253823   2.978   6.492  12.794  0.0957  0.4309  0.5579
10803TIP3    H153824   3.000   6.401  12.771  1.0832  0.9317 -0.5760
10803TIP3    H253825   3.062   6.537  12.795 -0.4017  1.3569  1.0082
10804TIP3   OH253826   2.292   1.712   2.277  0.4267  0.4405  0.3214
10804TIP3    H153827   2.287   1.636   2.334  1.5036  0.3536  0.3269
10804TIP3    H253828   2.215   1.764   2.299 -0.5448 -0.8314  0.0243
10805TIP3   OH253829   1.154   1.544  12.634 -0.0255 -0.1178  0.0850
10805TIP3    H153830   1.142   1.551  12.539  0.8377 -0.5574 -0.0668
10805TIP3    H253831   1.129   1.630  12.667  2.4014  1.0456 -0.8545
10806TIP3   OH253832   2.836   4.389  16.365 -0.1358  0.4001 -0.1936
10806TIP3    H153833   2.781   4.366  16.440 -0.4402 -0.0648 -0.5562
10806TIP3    H253834   2.874   4.474  16.388  0.2412 -0.0104  0.7496
10807TIP3   OH253835   1.134   2.220  12.943 -0.8368  0.0754  0.1026
10807TIP3    H153836   1.194   2.287  12.974  0.7342 -1.2113 -0.0749
10807TIP3    H253837   1.139   2.226  12.847  1.0584 -1.7477  0.0409
10808TIP3   OH253838   4.192   1.803  17.173 -0.0273 -0.1758 -0.4480
10808TIP3    H153839   4.160   1.892  17.187  0.9546  0.0229  0.6779
10808TIP3    H253840   4.127   1.747  17.216  0.6693  0.1705  1.1126
10809TIP3   OH253841   4.978   2.808   0.409  0.0924 -0.5437 -0.0840
10809TIP3    H153842   4.956   2.887   0.458  2.5115  0.4937 -0.5538
10809TIP3    H253843   4.983   2.740   0.476 -1.9435 -0.3618  0.3331
10810TIP3   OH253844   4.878   5.009   3.772  0.2834  0.4150  0.3533
10810TIP3    H153845   4.971   4.989   3.777  0.3967  0.4804 -1.1025
10810TIP3    H253846   4.834   4.930   3.802  0.7874  0.7849  2.2129
10811TIP3   OH253847   6.127   4.338   5.932  0.6803  0.2182  0.1370
10811TIP3    H153848   6.077   4.295   6.001 -0.9612  0.0870 -1.0669
10811TIP3    H253849   6.126   4.431   5.956  0.5603  0.1123  0.5476
10812TIP3   OH253850   5.047   2.429  16.549  0.3126 -0.1686 -0.0487
10812TIP3    H153851   5.084   2.470  16.627  0.6948 -0.4665 -0.0757
10812TIP3    H253852   5.071   2.336  16.556 -0.1127 -0.2967 -0.2467
10813TIP3   OH253853   2.169   2.411  17.260 -0.7302  0.4861  0.4189
10813TIP3    H153854   2.075   2.409  17.277 -0.9842 -1.2230 -0.8410
10813TIP3    H253855   2.191   2.320  17.237  1.2205  0.8564  0.6467
10814TIP3   OH253856   0.272   3.824  14.404 -0.1875 -0.8160 -0.2810
10814TIP3    H153857   0.308   3.753  14.351  0.9832 -0.4188 -0.0593
10814TIP3    H253858   0.180   3.829  14.379 -0.8840 -3.8308  1.2269
10815TIP3   OH253859   0.223   3.351   5.275  0.1333 -0.5759 -0.2532
10815TIP3    H153860   0.150   3.301   5.238 -0.7552  0.6310 -0.2174
10815TIP3    H253861   0.257   3.402   5.201 -0.6226  0.6473  0.2050
10816TIP3   OH253862   4.095   4.253   4.909  0.0407 -0.2925 -0.2697
10816TIP3    H153863   4.049   4.210   4.837  1.1313  0.4421 -1.4364
10816TIP3    H253864   4.072   4.201   4.986  0.0438 -2.0073 -1.3629
10817TIP3   OH253865   1.476   4.494  12.543 -0.4271  0.2090 -0.1463
10817TIP3    H153866   1.533   4.570  12.555 -0.7798  0.3741  0.5062
10817TIP3    H253867   1.520   4.443  12.475  1.3596 -0.4669  1.4224
10818TIP3   OH253868   1.193   4.973   6.283 -0.0387 -0.2106 -0.2605
10818TIP3    H153869   1.237   4.890   6.301  0.6504 -0.1981 -1.7231
10818TIP3    H253870   1.224   4.998   6.195  0.2050  1.8707  0.3617
10819TIP3   OH253871   1.644   6.449  13.842 -0.2578 -0.1275  0.1588
10819TIP3    H153872   1.622   6.433  13.750  0.4675  1.3062 -0.3049
10819TIP3    H253873   1.582   6.396  13.891 -3.2902  1.9577 -1.0916
10820TIP3   OH253874   5.383   3.000   5.223 -0.3415 -0.1157 -0.8743
10820TIP3    H153875   5.306   3.001   5.165 -0.1805  0.6747 -1.0983
10820TIP3    H253876   5.383   3.088   5.262 -1.1594 -1.0259  1.2923
10821TIP3   OH253877   1.172   3.852   6.253 -0.3297 -0.5170  0.3480
10821TIP3    H153878   1.266   3.871   6.244 -0.6016  0.7649  0.1502
10821TIP3    H253879   1.163   3.821   6.343  0.0519  0.8933  0.9006
10822TIP3   OH253880   2.846   1.926   2.840  0.4090 -0.1712 -0.0437
10822TIP3    H153881   2.754   1.942   2.815  0.3887  0.7269  0.5638
10822TIP3    H253882   2.894   1.935   2.758  0.0772  0.4933 -0.1750
10823TIP3   OH253883   0.533   6.203   3.959  0.3617 -0.2307 -0.0476
10823TIP3    H153884   0.580   6.120   3.954  0.7336  0.0346 -1.1553
10823TIP3    H253885   0.551   6.247   3.876 -0.5682  0.5679  0.1452
10824TIP3   OH253886   1.832   1.370  11.866  0.0326 -0.3689  0.5760
10824TIP3    H153887   1.801   1.431  11.800  0.5677  0.6352  1.2338
10824TIP3    H253888   1.926   1.385  11.871 -0.1050  0.1946  2.1480
10825TIP3   OH253889   4.390   5.526   3.639 -0.0868 -0.2472  0.0611
10825TIP3    H153890   4.347   5.450   3.601  2.1609 -1.7965  0.3697
10825TIP3    H253891   4.457   5.489   3.697  0.5917  1.9813  0.8117
10826TIP3   OH253892   0.847   0.900  10.691 -0.4066  0.8982 -0.3776
10826TIP3    H153893   0.919   0.837  10.696 -0.7178  0.5280 -0.4931
10826TIP3    H253894   0.853   0.949  10.773 -0.0742  0.8143 -0.3486
10827TIP3   OH253895   6.556   2.619  15.243 -0.1165 -0.0432  0.4410
10827TIP3    H153896   6.599   2.614  15.328  0.6732 -1.1836  0.0038
10827TIP3    H253897   6.604   2.558  15.188 -0.6674  0.6043 -0.8112
10828TIP3   OH253898   6.099   2.590  11.692 -0.5915  0.7959  0.1018
10828TIP3    H153899   6.191   2.618  11.692 -0.1849 -0.2217 -2.6742
10828TIP3    H253900   6.093   2.524  11.761  1.0812  0.0227 -0.4464
10829TIP3   OH253901   4.633   2.790   3.243 -0.4760  0.6580 -0.3585
10829TIP3    H153902   4.564   2.767   3.181  0.6993  0.4315 -1.6169
10829TIP3    H253903   4.613   2.881   3.267 -0.8192  0.8408 -1.2694
10830TIP3   OH253904   2.668   0.778  15.132 -0.1941 -0.3980 -0.0006
10830TIP3    H153905   2.683   0.800  15.040  0.0641 -1.1410 -0.1401
10830TIP3    H253906   2.583   0.734  15.132 -0.4568  0.0973  0.2028
10831TIP3   OH253907   5.618   3.252  11.549 -0.0100 -0.5077 -0.4721
10831TIP3    H153908   5.708   3.232  11.522 -0.9776 -2.0958 -2.7995
10831TIP3    H253909   5.612   3.218  11.638  2.3714  1.9781  0.7990
10832TIP3   OH253910   6.698   5.327  16.555 -0.5233 -0.4353 -0.1553
10832TIP3    H153911   6.650   5.254  16.594  0.1726 -0.4447  0.7062
10832TIP3    H253912   6.699   5.394  16.623  0.3321 -0.2778 -0.3099
10833TIP3   OH253913   2.954   1.935  11.661 -0.3021  0.3937 -0.4367
10833TIP3    H153914   3.026   1.872  11.655  0.0338  0.5058  1.8073
10833TIP3    H253915   2.888   1.890  11.713 -1.0688  1.0159 -0.8667
10834TIP3   OH253916   3.632   0.333  16.986  0.3131 -0.2079  0.1401
10834TIP3    H153917   3.708   0.316  17.041  0.5573  0.7204  0.1082
10834TIP3    H253918   3.596   0.247  16.967  1.4976 -0.6791 -0.0397
10835TIP3   OH253919   5.577   4.394  16.342  0.5009  0.0892 -0.4087
10835TIP3    H153920   5.637   4.450  16.391  2.3690 -2.3076  0.1891
10835TIP3    H253921   5.633   4.337  16.290 -1.3408 -0.6069 -1.7362
10836TIP3   OH253922   6.387   2.273   4.566  0.0285 -0.2377 -0.3519
10836TIP3    H153923   6.467   2.266   4.617 -1.8298 -1.0176  2.7240
10836TIP3    H253924   6.385   2.364   4.536  1.9405 -0.1580 -0.3458
10837TIP3   OH253925   6.568   3.799  12.328 -0.0745  0.0589  0.2837
10837TIP3    H153926   6.648   3.829  12.372 -0.6660  0.2627  1.2558
10837TIP3    H253927   6.503   3.865  12.351 -1.0610 -1.2219  1.3209
10838TIP3   OH253928   2.945   6.469   3.010  0.0491 -0.2970 -0.0484
10838TIP3    H153929   2.905   6.523   2.942 -1.2135 -1.1468 -0.0172
10838TIP3    H253930   2.896   6.387   3.007  1.7767 -1.3655  0.0613
10839TIP3   OH253931   1.686   4.594   0.180 -0.2657  0.9712 -0.6813
10839TIP3    H153932   1.659   4.640   0.100 -1.4471 -0.8974 -1.4090
10839TIP3    H253933   1.667   4.502   0.163  2.0712  0.1446  0.7112
10840TIP3   OH253934   0.911   4.218   5.339 -0.2852  0.1737  0.1075
10840TIP3    H153935   0.957   4.260   5.411  1.3178 -1.2936  0.0064
10840TIP3    H253936   0.860   4.148   5.381  0.9041 -0.8917 -0.1723
10841TIP3   OH253937   1.613   3.795   0.545 -0.2423  0.7501 -0.2921
10841TIP3    H153938   1.617   3.766   0.454 -0.8040  0.8872 -0.3658
10841TIP3    H253939   1.558   3.873   0.543 -1.6387 -0.1788  0.3931
10842TIP3   OH253940   3.565   2.890  14.305 -0.1364  0.5986  0.3160
10842TIP3    H153941   3.589   2.980  14.328 -0.6887  1.3823 -1.8560
10842TIP3    H253942   3.469   2.891  14.300 -0.0971  0.3069 -1.0543
10843TIP3   OH253943   3.751   0.075  14.110  0.8651  0.2049 -0.4354
10843TIP3    H153944   3.729   0.063  14.202  0.2830  2.7055 -0.1967
10843TIP3    H253945   3.846   0.064  14.106  0.6079 -3.1092 -0.1721
10844TIP3   OH253946   6.479   4.974   5.566 -0.5304  0.5920 -0.0743
10844TIP3    H153947   6.553   4.956   5.625  0.8695  0.5688 -1.7526
10844TIP3    H253948   6.409   4.917   5.598  0.5148 -0.1614  0.9650
10845TIP3   OH253949   1.598   2.528   3.613  0.1159  0.0293  0.0873
10845TIP3    H153950   1.679   2.533   3.562 -0.1717  0.6853 -0.3157
10845TIP3    H253951   1.627   2.528   3.704  0.5221  1.2543 -0.0310
10846TIP3   OH253952   4.433   6.114   2.948 -0.1007  0.4086  0.2788
10846TIP3    H153953   4.360   6.135   2.890  1.1733  1.6502 -0.9577
10846TIP3    H253954   4.483   6.048   2.901 -0.0571  0.0555  0.8114
10847TIP3   OH253955   6.554   0.555  13.295  0.1672  0.7742 -0.3744
10847TIP3    H153956   6.489   0.618  13.326 -0.2510  1.4820 -2.4901
10847TIP3    H253957   6.513   0.470  13.308 -0.3581  1.0983  0.1277
10848TIP3   OH253958   4.036   1.069   1.830 -0.0473 -0.2176  0.5595
10848TIP3    H153959   3.948   1.101   1.811  0.2959 -0.6896 -2.1947
10848TIP3    H253960   4.087   1.148   1.848 -0.9322  0.0721  2.0116
10849TIP3   OH253961   5.080   2.659   3.213  0.3123  0.4803  0.1308
10849TIP3    H153962   5.110   2.684   3.126  1.2596  0.3345  0.4021
10849TIP3    H253963   5.070   2.564   3.209 -0.6095  0.5811 -0.1007
10850TIP3   OH253964   0.693   3.748   5.557 -0.1577 -0.5686  0.0400
10850TIP3    H153965   0.672   3.724   5.648 -0.1501 -2.0640 -0.3296
10850TIP3    H253966   0.678   3.668   5.507  0.5004  0.0485 -1.1874
10851TIP3   OH253967   5.085   2.521   0.888 -0.4658 -0.1384 -0.1368
10851TIP3    H153968   5.040   2.475   0.960 -1.9548  0.9388 -0.3196
10851TIP3    H253969   5.162   2.468   0.869  1.0027  0.4246  3.4382
10852TIP3   OH253970   1.905   0.810   3.416  0.2652  0.6154  0.4535
10852TIP3    H153971   1.908   0.717   3.437  1.1528  0.7069  0.8078
10852TIP3    H253972   1.997   0.838   3.421 -0.0111  1.5402  0.5183
10853TIP3   OH253973   3.156   2.221  11.958 -0.3652 -0.0464  0.6483
10853TIP3    H153974   3.219   2.253  12.023  1.0015  0.7493 -0.9779
10853TIP3    H253975   3.210   2.174  11.895 -1.6769 -0.9105  0.1358
10854TIP3   OH253976   5.504   0.602   4.007  0.5144 -0.0960  0.5001
10854TIP3    H153977   5.440   0.575   3.941  0.5841 -0.3270  0.5283
10854TIP3    H253978   5.483   0.694   4.023 -0.8946 -0.5939  1.7324
10855TIP3   OH253979   4.168   3.850   5.164  0.6599 -0.6531 -0.2759
10855TIP3    H153980   4.125   3.764   5.167  0.4087 -0.5064  0.9713
10855TIP3    H253981   4.217   3.855   5.246  0.9099  0.2734 -0.4738
10856TIP3   OH253982   1.526   0.262   3.978  0.4411  0.4540  0.4387
10856TIP3    H153983   1.502   0.290   3.890 -2.2319  0.5630  1.1411
10856TIP3    H253984   1.545   0.343   4.025  0.1238  0.5336  0.4316
10857TIP3   OH253985   2.317   1.339   3.620 -0.0970 -0.0594 -0.5971
10857TIP3    H153986   2.255   1.412   3.621  0.3335  0.3763  2.2557
10857TIP3    H253987   2.262   1.261   3.631 -0.2744  0.3208  1.8898
10858TIP3   OH253988   1.834   6.395  17.017  0.0118 -0.6657  0.0219
10858TIP3    H153989   1.786   6.416  17.097  0.2450  0.9315 -0.2136
10858TIP3    H253990   1.838   6.299  17.015 -0.2311 -0.7441  1.7754
10859TIP3   OH253991   2.323   6.730   2.950  0.8352  0.1425 -0.2274
10859TIP3    H153992   2.242   6.679   2.960  1.1490 -0.0876  1.3305
10859TIP3    H253993   2.350   6.750   3.039  2.1639  0.7690 -0.7470
10860TIP3   OH253994   3.241   0.237   4.897 -0.0653 -0.1554  0.4559
10860TIP3    H153995   3.178   0.221   4.968 -2.6170 -0.3074 -1.6979
10860TIP3    H253996   3.205   0.190   4.822  2.4814  0.0783 -1.0256
10861TIP3   OH253997   3.695   4.121  11.214 -0.2213 -0.0510 -0.4204
10861TIP3    H153998   3.676   4.049  11.274 -2.2469  0.1231 -0.7597
10861TIP3    H253999   3.759   4.086  11.153  0.1457 -0.9744  0.4795
10862TIP3   OH254000   0.134   5.869  14.540 -0.2208  0.0634  0.1750
10862TIP3    H154001   0.147   5.775  14.555 -0.8210  0.1159  1.1122
10862TIP3    H254002   0.083   5.898  14.615 -1.0250  0.9199 -0.6856
10863TIP3   OH254003   5.139   2.389   3.363 -0.2815 -0.0807 -0.1696
10863TIP3    H154004   5.194   2.451   3.411 -1.8283  1.2695 -0.0202
10863TIP3    H254005   5.172   2.393   3.273  0.3186  0.1438  0.0546
10864TIP3   OH254006   5.645   3.693   6.438 -0.5750 -0.1491 -0.5775
10864TIP3    H154007   5.633   3.787   6.426 -0.5813 -0.0969 -0.1793
10864TIP3    H254008   5.736   3.677   6.416 -0.5776 -0.0512 -0.6600
10865TIP3   OH254009   2.497   2.542   1.450 -0.0090 -0.2914  0.5025
10865TIP3    H154010   2.552   2.590   1.511  0.0608 -0.4767  0.5889
10865TIP3    H254011   2.413   2.532   1.496 -0.4623  0.8788 -0.0349
10866TIP3   OH254012   0.022   6.527   6.132  0.6055 -0.6675  0.5449
10866TIP3    H154013  -0.017   6.444   6.103  1.7718 -1.2603  0.6270
10866TIP3    H254014   0.102   6.535   6.080  0.3681  0.5559  0.3361
10867TIP3   OH254015   3.837   0.585   4.635 -0.4506  0.8664  0.3264
10867TIP3    H154016   3.794   0.563   4.718 -0.3726 -0.2802  0.0763
10867TIP3    H254017   3.765   0.592   4.572 -0.6002  2.6464  0.6539
10868TIP3   OH254018   6.554   3.486  15.419 -0.5508 -0.2715  0.2207
10868TIP3    H154019   6.575   3.579  15.412 -0.7580 -0.2170  0.3317
10868TIP3    H254020   6.468   3.477  15.378  0.0232 -0.6294 -0.9382
10869TIP3   OH254021   2.019   2.552   3.355 -0.0192  0.4740  0.0930
10869TIP3    H154022   1.956   2.495   3.309 -0.0910  0.6740 -0.0596
10869TIP3    H254023   1.979   2.567   3.440 -0.7275  1.5188 -0.4102
10870TIP3   OH254024   3.430   0.166   0.210  0.7505 -0.2078  0.5583
10870TIP3    H154025   3.344   0.206   0.202 -0.1088 -1.6229  2.0596
10870TIP3    H254026   3.454   0.178   0.301  1.4685 -1.1386  0.5105
10871TIP3   OH254027   1.089   6.735   6.725 -0.0090 -0.4477  0.6814
10871TIP3    H154028   1.000   6.754   6.694  0.2681 -0.3390 -0.0692
10871TIP3    H254029   1.135   6.704   6.647  1.2708  1.7662  0.4787
10872TIP3   OH254030   2.470   2.647  11.565 -0.1541 -0.2221  0.5940
10872TIP3    H154031   2.409   2.597  11.510 -0.5470 -1.2821  1.9264
10872TIP3    H254032   2.557   2.622  11.533 -0.3469 -1.7234  1.1547
10873TIP3   OH254033   4.865   0.504  13.592  0.1040  0.3490  1.0719
10873TIP3    H154034   4.903   0.425  13.554 -3.8862 -0.9441 -0.7483
10873TIP3    H254035   4.819   0.474  13.670 -1.0585  0.9381  0.6310
10874TIP3   OH254036   2.693   2.247   3.594  0.1667 -0.1327 -0.2131
10874TIP3    H154037   2.747   2.235   3.515 -1.2228  1.4184 -1.4858
10874TIP3    H254038   2.643   2.327   3.576  0.1345  0.5478  2.4772
10875TIP3   OH254039   6.228   2.417   1.914  0.4971 -0.2436  0.6458
10875TIP3    H154040   6.266   2.476   1.848  2.4661 -0.3514  1.5977
10875TIP3    H254041   6.244   2.462   1.997  1.7770 -1.9480  1.3650
10876TIP3   OH254042   5.959   5.013   5.046  0.6429 -0.0248  0.2096
10876TIP3    H154043   6.041   5.062   5.049  0.9692 -0.5862  1.2176
10876TIP3    H254044   5.894   5.075   5.013  0.9576  1.2179  1.7925
10877TIP3   OH254045   2.767   6.134  13.055 -0.3455 -0.1053  0.2132
10877TIP3    H154046   2.770   6.213  13.002  2.5220  0.2092  0.7083
10877TIP3    H254047   2.725   6.162  13.137 -0.3326  0.6244 -0.0221
10878TIP3   OH254048   1.024   0.228   3.422  0.5280 -0.0254 -0.0386
10878TIP3    H154049   1.047   0.138   3.446  1.0534 -0.0006 -0.4217
10878TIP3    H254050   0.934   0.222   3.389  0.5061 -0.3853  0.0864
10879TIP3   OH254051   5.730   1.575   2.847 -0.3063 -0.0863  0.4520
10879TIP3    H154052   5.634   1.582   2.844 -0.3749 -0.7040  1.0097
10879TIP3    H254053   5.747   1.482   2.863  0.3372  0.2966  2.2163
10880TIP3   OH254054   0.471   1.131  15.514 -0.0043  0.3369 -0.5967
10880TIP3    H154055   0.564   1.151  15.504  0.1564  0.9660  1.5299
10880TIP3    H254056   0.432   1.213  15.545 -1.1087 -0.1371 -0.6932
10881TIP3   OH254057   3.424   6.133   0.470  0.2901  0.1206  0.0389
10881TIP3    H154058   3.509   6.174   0.484  0.0498  0.5388  0.3003
10881TIP3    H254059   3.436   6.078   0.393  0.7441  0.3337 -0.0429
10882TIP3   OH254060   2.983   1.585  11.822 -0.4553  0.1312  0.0177
10882TIP3    H154061   3.028   1.597  11.906 -0.4988  2.5023 -0.2259
10882TIP3    H254062   3.036   1.519  11.777  0.5356  0.0290  1.2439
10883TIP3   OH254063   5.314   6.145   5.231 -0.4132  0.3392  0.5229
10883TIP3    H154064   5.239   6.137   5.173 -0.9150 -0.2964  1.2507
10883TIP3    H254065   5.289   6.213   5.294  0.0466  0.8753  0.1433
10884TIP3   OH254066   0.359   3.858  11.216  0.4840 -0.5633 -0.2814
10884TIP3    H154067   0.313   3.835  11.135  1.4495 -0.5333 -0.8604
10884TIP3    H254068   0.292   3.855  11.284 -0.0636 -1.9605 -0.8554
10885TIP3   OH254069   0.733   2.871   0.064 -0.0027 -0.3571  0.1522
10885TIP3    H154070   0.647   2.866   0.105  1.5553 -0.6931  3.8003
10885TIP3    H254071   0.752   2.965   0.058 -0.5853 -0.2836 -0.6785
10886TIP3   OH254072   4.381   6.132   5.509  0.4029 -0.3642  0.0111
10886TIP3    H154073   4.330   6.061   5.547  1.9648 -0.7402  1.5639
10886TIP3    H254074   4.377   6.118   5.414 -0.9323 -1.3376  0.1950
10887TIP3   OH254075   4.045   2.388  16.888 -0.2849 -0.1641  0.0894
10887TIP3    H154076   4.067   2.295  16.888 -0.4609 -0.2242  1.0943
10887TIP3    H254077   3.952   2.391  16.911 -0.1850  0.2700  0.4552
10888TIP3   OH254078   4.123   0.054   3.600 -0.0104 -0.6007  0.1686
10888TIP3    H154079   4.125   0.148   3.585 -0.7595 -0.5765  0.1769
10888TIP3    H254080   4.043   0.039   3.650  0.7236 -1.0921  1.2575
10889TIP3   OH254081   0.654   4.974   6.051  0.1971  0.3275  0.1001
10889TIP3    H154082   0.574   5.019   6.080  0.8128  1.7110 -0.2389
10889TIP3    H254083   0.623   4.893   6.011 -0.8695 -0.2903  2.0181
10890TIP3   OH254084   0.739   6.020  11.656  0.1434 -0.3884  0.1594
10890TIP3    H154085   0.803   6.091  11.657  2.1129 -2.0820  1.1105
10890TIP3    H254086   0.720   6.003  11.749 -2.2162  0.4707 -0.1025
10891TIP3   OH254087   3.758   0.767  13.219  0.4517  0.0610  0.1679
10891TIP3    H154088   3.717   0.853  13.205  1.8799  0.5171 -1.5678
10891TIP3    H254089   3.737   0.745  13.310 -1.3621  1.4626  0.1461
10892TIP3   OH254090   1.777   4.128  13.453  0.2942  0.0144  0.8003
10892TIP3    H154091   1.839   4.158  13.519  2.0744  3.3039 -2.0205
10892TIP3    H254092   1.768   4.203  13.393 -2.1855 -2.2362 -1.9472
10893TIP3   OH254093   5.201   0.340  16.052 -0.6112  0.0878 -0.1965
10893TIP3    H154094   5.289   0.304  16.062 -0.6239  0.2524  0.5470
10893TIP3    H254095   5.160   0.286  15.984  0.0841  0.0550 -0.5950
10894TIP3   OH254096   4.289   0.743   3.878 -0.3670  0.5511  0.1745
10894TIP3    H154097   4.384   0.748   3.891 -0.3067 -1.3261  0.6322
10894TIP3    H254098   4.256   0.826   3.913  0.8822  0.2730  2.1643
10895TIP3   OH254099   4.328   2.156  14.826  0.9627 -0.1822 -0.2243
10895TIP3    H154100   4.379   2.093  14.776  1.6426  1.4116 -1.6489
10895TIP3    H254101   4.384   2.234  14.831 -1.2269  1.6385 -1.8271
10896TIP3   OH254102   4.011   5.445   4.784 -0.2212 -0.3968 -0.3866
10896TIP3    H154103   3.966   5.504   4.844 -0.3184  0.5148 -1.3246
10896TIP3    H254104   3.982   5.473   4.697 -0.0315 -1.6339 -0.8786
10897TIP3   OH254105   0.100   5.848  17.100  0.3554  0.6049 -0.3811
10897TIP3    H154106   0.114   5.851  17.195 -1.2168  1.7148 -0.1411
10897TIP3    H254107   0.009   5.877  17.089 -0.1030 -1.2985 -2.0998
10898TIP3   OH254108   3.394   5.048  11.747  0.2554  0.2346  0.3620
10898TIP3    H154109   3.388   5.141  11.723  0.3169 -0.0720 -0.9130
10898TIP3    H254110   3.406   5.049  11.842  0.9206  1.5582  0.2932
10899TIP3   OH254111   6.085   5.033   3.279 -0.0186  0.1640  0.5181
10899TIP3    H154112   6.016   5.097   3.261 -2.1022 -1.9713  0.4048
10899TIP3    H254113   6.095   4.985   3.197  1.5577  0.3553  0.5725
10900TIP3   OH254114   6.044   5.985  17.194 -0.0905  0.1950  0.5468
10900TIP3    H154115   6.086   6.058  17.150 -2.1745  0.9956 -0.2198
10900TIP3    H254116   5.967   5.966  17.142 -0.3267 -1.6955  1.4848
10901TIP3   OH254117   4.376   3.314  13.046  0.0005 -0.6707  0.2140
10901TIP3    H154118   4.392   3.408  13.042  1.4681 -0.9369 -1.0700
10901TIP3    H254119   4.365   3.295  13.139 -0.4398  0.7738  0.4754
10902TIP3   OH254120   0.136   4.653   4.347 -0.6057 -0.4161  0.1609
10902TIP3    H154121   0.125   4.748   4.349  0.5249 -0.2798  0.6720
10902TIP3    H254122   0.052   4.620   4.314 -0.8525  0.7746 -0.4574
10903TIP3   OH254123   4.000   3.977  15.669 -0.0320  0.0326 -0.1834
10903TIP3    H154124   3.959   3.902  15.713 -1.0343 -0.1351 -1.3566
10903TIP3    H254125   3.968   3.973  15.579  2.1375  0.2597 -1.0124
10904TIP3   OH254126   2.591   2.581   2.976 -0.2263  0.8410 -0.2445
10904TIP3    H154127   2.631   2.570   2.890  0.9752 -0.0380  0.3863
10904TIP3    H254128   2.657   2.628   3.027 -0.6127  0.6796  0.4147
10905TIP3   OH254129   3.845   4.119  17.174  0.7271 -0.7230  0.8148
10905TIP3    H154130   3.760   4.075  17.182  0.4455 -0.4442 -0.4469
10905TIP3    H254131   3.887   4.075  17.100  0.0706  1.6398 -1.0679
10906TIP3   OH254132   0.918   1.894   0.942 -1.0619 -0.3217 -0.1354
10906TIP3    H154133   0.925   1.987   0.963 -2.0044 -0.4674  0.9365
10906TIP3    H254134   0.896   1.892   0.849 -0.5596  0.4972 -0.2846
10907TIP3   OH254135   3.963   2.920  14.595  0.0843  0.4304 -0.1776
10907TIP3    H154136   4.057   2.905  14.578  0.1513 -2.1343  1.7730
10907TIP3    H254137   3.959   2.940  14.688 -1.3422  0.2670 -0.1865
10908TIP3   OH254138   5.547   2.994   1.553 -0.2688  0.2592  0.5543
10908TIP3    H154139   5.595   3.070   1.521 -0.2777 -0.6329 -1.8104
10908TIP3    H254140   5.608   2.921   1.542 -1.2849 -0.5115 -0.1739
10909TIP3   OH254141   4.601   4.126   1.619 -0.1115 -0.1785 -0.1142
10909TIP3    H154142   4.614   4.069   1.695  1.2924 -0.8153 -0.8042
10909TIP3    H254143   4.682   4.175   1.612 -0.6073  0.5799 -0.6440
10910TIP3   OH254144   3.035   3.135  15.055  0.5335  0.0299  0.3200
10910TIP3    H154145   3.127   3.159  15.045  0.2063  0.7305 -1.2893
10910TIP3    H254146   3.012   3.094  14.972 -0.8053  0.5438  0.4206
10911TIP3   OH254147   2.081   2.810  12.461 -0.2879  0.3744  0.2657
10911TIP3    H154148   2.085   2.865  12.383  0.4045 -1.1147 -0.7946
10911TIP3    H254149   2.011   2.849  12.514 -1.8390  0.5349 -1.7735
10912TIP3   OH254150   0.864   2.612   2.014 -0.1205 -0.5152  0.2145
10912TIP3    H154151   0.781   2.576   2.043 -0.2112 -0.2066  0.3314
10912TIP3    H254152   0.848   2.705   2.004  0.1607 -0.4826  0.0599
10913TIP3   OH254153   4.147   0.961   3.912 -0.5722 -0.4737  0.4404
10913TIP3    H154154   4.088   1.005   3.973  1.5519  0.2318  2.0876
10913TIP3    H254155   4.100   0.963   3.828 -2.2771  1.2860  1.3631
10914TIP3   OH254156   4.008   3.097  11.454  0.0728 -0.3790  0.2747
10914TIP3    H154157   3.928   3.146  11.435 -0.7205 -1.9719 -0.7245
10914TIP3    H254158   4.002   3.074  11.546  0.3105  1.0795  0.6818
10915TIP3   OH254159   3.012   1.279  13.348  0.6882  0.3326 -0.0029
10915TIP3    H154160   3.013   1.183  13.351 -1.8638  0.1953 -1.2105
10915TIP3    H254161   3.064   1.306  13.424 -0.3581 -2.0205  1.6740
10916TIP3   OH254162   1.615   3.734   4.113  0.1666  0.4943  0.3008
10916TIP3    H154163   1.687   3.671   4.118 -0.7244 -0.4487  1.6763
10916TIP3    H254164   1.627   3.776   4.027  1.2777 -0.9278 -0.2854
10917TIP3   OH254165   4.792   3.032  16.213  0.0911 -0.0020 -0.1402
10917TIP3    H154166   4.790   3.089  16.136 -1.2549 -2.2069 -1.8752
10917TIP3    H254167   4.737   3.076  16.277 -1.4487  0.4012 -1.6608
10918TIP3   OH254168   1.101   4.732   5.282 -0.2477 -0.0390 -0.2528
10918TIP3    H154169   1.077   4.653   5.232  0.8656 -0.6433  0.1392
10918TIP3    H254170   1.146   4.699   5.359  1.5645  1.0125 -0.7995
10919TIP3   OH254171   5.121   0.688  12.877  0.2163  0.5399  0.2691
10919TIP3    H154172   5.138   0.748  12.804 -2.4497 -0.0518 -0.9603
10919TIP3    H254173   5.186   0.618  12.866  0.2058  0.7386 -1.2205
10920TIP3   OH254174   4.893   4.874  11.957  0.6541 -0.7698  0.1537
10920TIP3    H154175   4.803   4.877  11.926  0.8669 -1.2686 -0.5401
10920TIP3    H254176   4.887   4.849  12.049  0.0234  0.3983  0.4512
10921TIP3   OH254177   2.610   5.825  15.769 -0.5067  0.4309 -0.1161
10921TIP3    H154178   2.634   5.795  15.681 -1.5998 -0.5654 -0.0945
10921TIP3    H254179   2.524   5.786  15.785 -0.0767  0.1268  1.6308
10922TIP3   OH254180   0.763   6.645  16.463  0.2104 -0.2028 -0.3809
10922TIP3    H154181   0.792   6.712  16.524 -2.0364 -0.1285  0.7332
10922TIP3    H254182   0.792   6.675  16.377  0.5975  1.3864  0.2793
10923TIP3   OH254183   0.293   0.807   2.430 -0.0154 -0.1856  0.2089
10923TIP3    H154184   0.351   0.878   2.456 -0.2806  0.1582 -0.1349
10923TIP3    H254185   0.207   0.833   2.463 -0.2456 -0.0178 -0.5147
10924TIP3   OH254186   0.403   5.592  16.714 -0.2912 -0.0498 -0.1579
10924TIP3    H154187   0.353   5.568  16.636  0.3656  0.3419 -0.7093
10924TIP3    H254188   0.415   5.687  16.706  0.0861 -0.0648  0.2413
10925TIP3   OH254189   5.340   1.300   5.794  0.1230 -0.2217 -0.1547
10925TIP3    H154190   5.418   1.246   5.785  0.9548  1.2193 -2.5371
10925TIP3    H254191   5.365   1.367   5.859  0.0548 -1.0388  0.7314
10926TIP3   OH254192   6.642   3.742   3.935 -0.2744 -0.0501 -0.0656
10926TIP3    H154193   6.621   3.778   4.021 -0.0036  0.1296 -0.0718
10926TIP3    H254194   6.705   3.804   3.898 -0.8142  0.1771 -0.6242
10927TIP3   OH254195   6.190   2.240   6.413  0.1340  0.1537  0.2443
10927TIP3    H154196   6.098   2.243   6.438 -0.1648 -0.0983 -0.7909
10927TIP3    H254197   6.221   2.155   6.445  0.0194  0.2604  0.6353
10928TIP3   OH254198   4.884   1.431  15.959  0.2657 -0.0874  0.1165
10928TIP3    H154199   4.866   1.500  16.023 -1.8640  0.1843 -0.6958
10928TIP3    H254200   4.979   1.436  15.945  0.7780  0.0101  2.9939
10929TIP3   OH254201   0.408   1.314   5.478 -0.4411 -0.2460  0.2837
10929TIP3    H154202   0.414   1.398   5.431 -0.6939  0.0445  0.7638
10929TIP3    H254203   0.316   1.307   5.504 -0.0856  0.1681  1.7586
10930TIP3   OH254204   5.656   4.449   5.872  0.1519  0.3096  0.8378
10930TIP3    H154205   5.684   4.509   5.803  1.3643 -1.0159  0.1055
10930TIP3    H254206   5.574   4.412   5.841  1.4472 -1.4457 -0.7336
10931TIP3   OH254207   3.401   4.993   2.197  0.2482  0.6884  0.0973
10931TIP3    H154208   3.313   5.021   2.222  0.1525 -0.6314  1.3638
10931TIP3    H254209   3.389   4.941   2.118 -0.4703 -1.4980  1.5634
10932TIP3   OH254210   2.780   0.251  14.806  0.5457  0.3468  0.0811
10932TIP3    H154211   2.811   0.219  14.891 -0.0187  0.0997  0.1967
10932TIP3    H254212   2.733   0.331  14.827  1.3071  0.8564 -0.1232
10933TIP3   OH254213   2.592   4.446   4.208  0.1547  0.2320 -0.2377
10933TIP3    H154214   2.509   4.399   4.217  0.6787 -0.4140  1.7886
10933TIP3    H254215   2.643   4.394   4.146 -1.2712  1.1972 -2.3260
10934TIP3   OH254216   5.435   0.009   2.558  0.5692 -0.1631 -0.0140
10934TIP3    H154217   5.462  -0.055   2.623 -0.2372  0.0572  0.5464
10934TIP3    H254218   5.383   0.073   2.606 -1.1214 -0.6639 -1.0732
10935TIP3   OH254219   3.254   6.396  12.599  0.1838 -0.4776 -0.2545
10935TIP3    H154220   3.289   6.451  12.669  1.2730  0.2182 -1.2941
10935TIP3    H254221   3.280   6.307  12.624  0.9173 -0.1941  0.0371
10936TIP3   OH254222   6.592   0.470   1.291  0.2037 -0.1949 -0.2971
10936TIP3    H154223   6.611   0.516   1.209  0.6451 -0.1218 -0.1585
10936TIP3    H254224   6.668   0.413   1.304  0.6845  0.6277  0.6438
10937TIP3   OH254225   5.665   4.858  11.109 -0.4095  0.4011  0.1782
10937TIP3    H154226   5.579   4.894  11.130 -0.5387  0.5239 -0.5217
10937TIP3    H254227   5.676   4.785  11.169 -0.8615  0.5857  0.4924
10938TIP3   OH254228   4.682   0.614  11.550 -0.2458 -0.0905  0.3373
10938TIP3    H154229   4.776   0.624  11.535 -0.2328 -0.8255 -0.1288
10938TIP3    H254230   4.666   0.660  11.632  0.3680  0.7647 -0.0049
10939TIP3   OH254231   2.141   6.740   3.717  0.3246  0.2022 -0.1227
10939TIP3    H154232   2.055   6.699   3.723  1.1636 -1.5319  0.4193
10939TIP3    H254233   2.135   6.817   3.774 -1.1180  0.6185 -0.7883
10940TIP3   OH254234   4.104   1.121  11.248 -0.9000 -0.0987 -0.2064
10940TIP3    H154235   4.016   1.131  11.211 -0.6326 -1.3800 -1.3022
10940TIP3    H254236   4.162   1.135  11.173 -0.3249 -2.5228 -0.2940
10941TIP3   OH254237   1.729   4.085   2.097 -0.2905  0.1509  0.6691
10941TIP3    H154238   1.738   4.112   2.188  1.0246 -2.1965  1.3014
10941TIP3    H254239   1.648   4.033   2.095  1.0585 -2.0596  1.1521
10942TIP3   OH254240   5.618   3.729   1.062  0.3471 -0.3180 -0.4547
10942TIP3    H154241   5.554   3.756   1.128 -0.6747 -0.5715 -1.3152
10942TIP3    H254242   5.645   3.641   1.090  2.7201  0.9299  1.6336
10943TIP3   OH254243   1.274   3.196   4.414  0.1949  0.3280  0.6278
10943TIP3    H154244   1.362   3.212   4.382 -0.0302 -1.6268 -1.2186
10943TIP3    H254245   1.285   3.176   4.507  1.8925 -1.1878  0.1525
10944TIP3   OH254246   3.406   0.408  12.234 -0.0687 -0.2434  0.3632
10944TIP3    H154247   3.455   0.369  12.306 -2.6535 -2.0844  1.2760
10944TIP3    H254248   3.423   0.350  12.160 -0.9287 -0.9731  0.7208
10945TIP3   OH254249   6.711   5.129   3.272  0.9921 -0.5228  0.0158
10945TIP3    H154250   6.772   5.155   3.341  1.0107 -1.7452  0.4937
10945TIP3    H254251   6.690   5.038   3.293 -0.9512 -0.1467 -0.1743
10946TIP3   OH254252   2.900   1.938   5.580  0.3696  0.3399  0.0358
10946TIP3    H154253   2.881   1.877   5.651 -1.4068 -0.8223 -1.3255
10946TIP3    H254254   2.965   1.893   5.526 -1.3252 -0.7027 -1.2563
10947TIP3   OH254255   2.871   1.454  14.550  0.1809 -0.6911  0.0825
10947TIP3    H154256   2.801   1.400  14.513  0.2037 -0.7795  0.1669
10947TIP3    H254257   2.825   1.528  14.591  0.0744 -1.2045  0.9081
10948TIP3   OH254258   3.169   4.270  11.857 -0.0249 -0.4695 -0.0050
10948TIP3    H154259   3.264   4.272  11.843  0.3244 -2.3611  1.7635
10948TIP3    H254260   3.147   4.359  11.886  1.5157 -0.4766  1.2957
10949TIP3   OH254261   5.341   0.135  11.956 -0.2653 -0.4460  0.6442
10949TIP3    H154262   5.335   0.141  11.861 -0.5725 -0.4392  0.6639
10949TIP3    H254263   5.324   0.043  11.976  0.9024 -0.6881  0.6122
10950TIP3   OH254264   5.923   2.508   5.518 -0.1129  0.0586 -0.5567
10950TIP3    H154265   5.955   2.460   5.442  0.0902  0.4351 -0.7129
10950TIP3    H254266   6.003   2.540   5.561 -0.1517 -1.2086  0.5300
10951TIP3   OH254267   3.641   3.554   0.794 -0.0037 -0.6020  0.0800
10951TIP3    H154268   3.702   3.484   0.817 -1.6891 -1.9028  0.7782
10951TIP3    H254269   3.623   3.541   0.701 -0.4596 -1.2464  0.2509
10952TIP3   OH254270   2.065   3.509  12.077 -0.2505  0.2973  0.2554
10952TIP3    H154271   2.081   3.562  12.155 -1.8149  1.9111 -0.4218
10952TIP3    H254272   2.143   3.521  12.023 -0.2553  1.3762  0.4520
10953TIP3   OH254273   5.724   3.092   1.835  0.2804 -0.1567 -0.4298
10953TIP3    H154274   5.735   3.000   1.810 -2.7527 -0.0696 -2.6601
10953TIP3    H254275   5.782   3.140   1.776  2.2460 -0.5678  1.0686
10954TIP3   OH254276   1.653   6.203  11.554  0.3602 -0.1412  0.2375
10954TIP3    H154277   1.745   6.192  11.578  0.4574  0.2029  0.0331
10954TIP3    H254278   1.614   6.117  11.568  1.0379 -0.6835 -1.0483
10955TIP3   OH254279   4.462   2.434  14.742 -0.0079 -0.6844  0.0350
10955TIP3    H154280   4.423   2.519  14.726 -0.0776 -0.5362  0.9522
10955TIP3    H254281   4.496   2.407  14.657 -1.6569 -0.6016 -0.6984
10956TIP3   OH254282   2.788   3.111   2.557  0.3812 -0.3801  0.1391
10956TIP3    H154283   2.735   3.169   2.611  1.1791 -1.3668  2.0551
10956TIP3    H254284   2.728   3.080   2.489 -0.8377  0.3483  0.8492
10957TIP3   OH254285   4.058   6.729  15.374 -0.2059 -0.1053  0.1992
10957TIP3    H154286   4.116   6.794  15.335 -1.7933 -1.0388 -4.3310
10957TIP3    H254287   3.973   6.773  15.380 -1.3809 -1.5728 -3.2390
10958TIP3   OH254288   3.362   0.005  11.697 -0.0423 -0.5663 -0.0109
10958TIP3    H154289   3.395   0.085  11.656 -0.2131 -1.0782 -1.2151
10958TIP3    H254290   3.278  -0.010  11.653  1.0413 -2.6678 -1.5611
10959TIP3   OH254291   0.399   5.585  15.115  0.2386 -0.0815 -0.0589
10959TIP3    H154292   0.400   5.527  15.040 -0.3961  0.2551 -0.3347
10959TIP3    H254293   0.407   5.673  15.078 -2.9728  0.3470 -0.0377
10960TIP3   OH254294   3.684   3.686   4.910  0.2194 -0.6718 -0.5579
10960TIP3    H154295   3.595   3.662   4.935  0.0993  1.2571  1.1454
10960TIP3    H254296   3.739   3.648   4.978  0.5926 -0.8905 -0.9760
10961TIP3   OH254297   3.657   0.112   1.426  0.1097  0.0571  0.5105
10961TIP3    H154298   3.686   0.109   1.517 -0.4915 -0.3328  0.7017
10961TIP3    H254299   3.671   0.023   1.394  2.8539  0.8064 -0.6326
10962TIP3   OH254300   5.377   6.414  16.244  0.1819  0.3106 -0.6504
10962TIP3    H154301   5.368   6.472  16.319 -1.0377 -0.0034 -0.5451
10962TIP3    H254302   5.290   6.377  16.231  0.3318  0.4541 -2.3024
10963TIP3   OH254303   5.168   4.589  14.632  0.0517 -0.7657 -0.1213
10963TIP3    H154304   5.261   4.580  14.610  0.0084 -1.0923 -0.1745
10963TIP3    H254305   5.165   4.586  14.727  0.5176  3.1203  0.1859
10964TIP3   OH254306   3.923   0.499  12.230  0.2674  0.2172 -0.9886
10964TIP3    H154307   3.893   0.434  12.294 -0.3783  2.5574  1.2602
10964TIP3    H254308   3.937   0.448  12.149  1.2996 -2.9276  0.9854
10965TIP3   OH254309   1.634   3.018   2.347  0.3544 -0.0665  0.7366
10965TIP3    H154310   1.644   2.983   2.436  0.3241  3.5760  2.3176
10965TIP3    H254311   1.723   3.041   2.320  0.4859 -1.8865 -0.6463
10966TIP3   OH254312   3.475   3.446  16.072 -0.5115  0.4256  0.3582
10966TIP3    H154313   3.452   3.369  16.124 -2.5062  0.6106 -0.1719
10966TIP3    H254314   3.411   3.512  16.098 -1.0644  0.7675 -1.6857
10967TIP3   OH254315   2.836   0.856   4.176 -0.5962 -0.3306 -0.3881
10967TIP3    H154316   2.839   0.951   4.173 -2.2965 -0.2586 -0.9018
10967TIP3    H254317   2.842   0.828   4.085  0.5576 -0.7771 -0.1981
10968TIP3   OH254318   0.696   1.863  14.675 -0.0422 -0.5567  0.2471
10968TIP3    H154319   0.661   1.892  14.759  1.5614 -1.8638  1.4416
10968TIP3    H254320   0.665   1.773  14.666  0.3358 -0.6443 -0.2262
10969TIP3   OH254321   5.012   1.597  15.090  0.3909 -0.5253  0.7340
10969TIP3    H154322   5.106   1.604  15.071  0.4615 -2.5351  0.1661
10969TIP3    H254323   4.982   1.688  15.095  2.1473  0.1531 -0.1433
10970TIP3   OH254324   0.200   1.568   2.647 -0.4194  0.1581 -0.2826
10970TIP3    H154325   0.220   1.524   2.729 -1.7103 -0.1846 -0.1238
10970TIP3    H254326   0.205   1.662   2.668  1.9010  0.1505 -0.5176
10971TIP3   OH254327   3.563   5.700   2.826  0.4172  0.2142 -0.5382
10971TIP3    H154328   3.497   5.766   2.849  1.4821  0.5977  1.7164
10971TIP3    H254329   3.522   5.648   2.757 -1.9791  0.8309  0.3213
10972TIP3   OH254330   4.685   5.681  14.218  0.1767  0.0997 -0.2005
10972TIP3    H154331   4.739   5.731  14.157  0.5507 -1.0860 -0.8525
10972TIP3    H254332   4.747   5.624  14.264 -0.0486  1.1587  1.5150
10973TIP3   OH254333   6.571   5.510   2.036 -0.0567 -0.1158  0.0949
10973TIP3    H154334   6.649   5.454   2.043  1.5977  2.1050  0.5227
10973TIP3    H254335   6.529   5.502   2.121  1.2872  0.7703  0.8871
10974TIP3   OH254336   1.222   0.260   3.223 -0.3416  0.1208  0.2101
10974TIP3    H154337   1.168   0.254   3.302  1.8428 -1.6049  1.6888
10974TIP3    H254338   1.182   0.198   3.162  0.6451 -2.1725  1.7810
10975TIP3   OH254339   0.976   2.985   1.611  0.0562 -0.2482 -0.0451
10975TIP3    H154340   1.061   2.957   1.646 -0.3902  0.8764  2.1285
10975TIP3    H254341   0.914   2.920   1.642  0.0872 -1.1485 -1.7552
10976TIP3   OH254342   5.822   4.939   3.112 -0.1883 -0.6448 -0.5534
10976TIP3    H154343   5.782   4.903   3.191  0.9189  0.6948  0.6785
10976TIP3    H254344   5.749   4.974   3.061 -0.7358  1.1936  1.3443
10977TIP3   OH254345   1.718   3.491  11.271 -0.1437  0.4264 -0.2940
10977TIP3    H154346   1.627   3.465  11.260 -0.2982  0.5726  0.6251
10977TIP3    H254347   1.738   3.472  11.362  1.1804 -0.9645 -0.8248
10978TIP3   OH254348   4.275   0.027  14.262 -0.1644 -0.3224 -0.2048
10978TIP3    H154349   4.190   0.020  14.219 -0.1354  2.7090 -1.0074
10978TIP3    H254350   4.262   0.093  14.330  0.4502 -3.1873  2.9721
10979TIP3   OH254351   2.989   4.975   0.516 -0.1755  0.5041 -0.4396
10979TIP3    H154352   3.060   4.917   0.487 -0.0284  0.3858  0.1443
10979TIP3    H254353   3.023   5.017   0.595 -0.4017  1.1559 -0.6813
10980TIP3   OH254354   1.137   1.369  15.359 -0.2067 -0.5186  0.5226
10980TIP3    H154355   1.231   1.370  15.373 -0.3547  0.9320  1.6307
10980TIP3    H254356   1.099   1.369  15.447 -1.2539 -1.5551  0.0946
10981TIP3   OH254357   5.801   3.519   1.097 -0.1707  0.2019 -0.2291
10981TIP3    H154358   5.813   3.451   1.163  1.6838  0.5631 -0.1481
10981TIP3    H254359   5.788   3.471   1.015 -1.6813 -0.2382  0.2347
10982TIP3   OH254360   3.087   1.290   3.063 -0.2116 -0.3457 -0.0970
10982TIP3    H154361   3.043   1.286   2.979 -0.9945  1.0293  0.2147
10982TIP3    H254362   3.054   1.214   3.111 -0.8481 -0.3520 -0.5303
10983TIP3   OH254363   3.451   5.623   1.789  0.1251  0.1254 -0.7396
10983TIP3    H154364   3.420   5.564   1.720 -0.5070 -0.9270  0.4173
10983TIP3    H254365   3.455   5.569   1.867  0.0450  1.4980  0.2387
10984TIP3   OH254366   0.638   5.234  11.653 -0.4299  0.2994 -0.5868
10984TIP3    H154367   0.672   5.317  11.686 -1.0143  0.4890 -0.4544
10984TIP3    H254368   0.657   5.236  11.559  1.1021 -0.1792 -0.3083
10985TIP3   OH254369   6.550   6.540   0.665  0.5470  0.1199 -0.3530
10985TIP3    H154370   6.602   6.511   0.590 -0.3542 -1.8644 -0.2721
10985TIP3    H254371   6.561   6.471   0.730 -1.6155 -0.0298 -0.0743
10986TIP3   OH254372   1.700   2.374   0.834  0.0465  0.0179 -0.5022
10986TIP3    H154373   1.624   2.329   0.870  0.1166  0.9379  0.8296
10986TIP3    H254374   1.723   2.440   0.899  0.9176  0.9267 -1.6881
10987TIP3   OH254375   0.362   4.978   3.179  0.3157  0.9387 -0.2042
10987TIP3    H154376   0.346   4.945   3.091 -0.6452  0.7176  0.0356
10987TIP3    H254377   0.445   4.940   3.205  0.0953  0.1573 -0.6166
10988TIP3   OH254378   0.587   1.265   0.187 -0.3776 -0.8816 -0.3581
10988TIP3    H154379   0.586   1.255   0.091  1.6996 -0.1428 -0.5097
10988TIP3    H254380   0.649   1.336   0.203 -1.1821 -0.5332  1.5420
10989TIP3   OH254381   2.305   2.561  14.574  0.4782 -0.9202 -0.7874
10989TIP3    H154382   2.218   2.544  14.612  0.4933 -1.0784 -0.8216
10989TIP3    H254383   2.362   2.495  14.614  0.6160 -0.7123 -0.6423
10990TIP3   OH254384   2.858   0.932  14.922 -0.4846 -0.2343 -0.3192
10990TIP3    H154385   2.909   0.852  14.938  0.4665  0.1289 -1.3732
10990TIP3    H254386   2.860   0.943  14.827  0.4088  1.6526 -0.1447
10991TIP3   OH254387   2.692   1.773   5.405  0.6418  0.6597  0.3258
10991TIP3    H154388   2.730   1.743   5.323  0.2550  4.2930 -1.3809
10991TIP3    H254389   2.730   1.860   5.419 -1.0843  1.1302  2.7523
10992TIP3   OH254390   4.643   5.421  10.808  0.2052  0.2529  0.3404
10992TIP3    H154391   4.659   5.511  10.836 -0.7357 -0.2101  2.5457
10992TIP3    H254392   4.555   5.423  10.772  0.0816  0.1592  0.6386
10993TIP3   OH254393   2.332   3.039   4.750 -0.2983  0.0563 -0.3777
10993TIP3    H154394   2.278   3.079   4.683  0.0213  0.1480 -0.5821
10993TIP3    H254395   2.421   3.068   4.730 -0.0594 -0.7615 -0.5391
10994TIP3   OH254396   4.058   4.478   0.562  0.5228 -0.2946 -0.0033
10994TIP3    H154397   4.025   4.562   0.529 -2.3720 -1.0560  0.6254
10994TIP3    H254398   4.021   4.413   0.503  0.5477 -1.2727  1.0297
10995TIP3   OH254399   6.168   3.065   6.932 -0.2025  0.0208 -0.1944
10995TIP3    H154400   6.159   3.126   7.005  0.3656  1.8118 -1.5362
10995TIP3    H254401   6.242   3.010   6.956  0.9610  1.5676 -0.0171
10996TIP3   OH254402   5.763   1.009   2.712  0.0640  0.0569  0.3946
10996TIP3    H154403   5.669   0.998   2.721 -0.1661 -0.6940 -2.1123
10996TIP3    H254404   5.773   1.093   2.668  0.5778  0.1838  0.7476
10997TIP3   OH254405   2.350   0.574   4.544 -0.0733  0.7950 -0.0467
10997TIP3    H154406   2.278   0.599   4.601 -0.0859 -1.8117  1.2224
10997TIP3    H254407   2.323   0.492   4.505  2.2604 -0.3962  0.6499
10998TIP3   OH254408   4.397   0.775  16.423  0.1216 -0.5613  0.6188
10998TIP3    H154409   4.469   0.779  16.360 -1.7147  1.6661 -1.5639
10998TIP3    H254410   4.426   0.829  16.496  1.1305 -0.7119  0.3442
10999TIP3   OH254411   2.668   2.771   3.908 -0.3627 -0.0009 -0.2490
10999TIP3    H154412   2.728   2.793   3.979 -0.3032 -0.2307 -0.2295
10999TIP3    H254413   2.581   2.774   3.948 -0.3633  0.3068 -0.2711
11000TIP3   OH254414   0.362   2.229   2.868  0.5303  0.0441 -0.5884
11000TIP3    H154415   0.301   2.303   2.876  2.1897  1.4671 -0.4853
11000TIP3    H254416   0.355   2.183   2.952 -0.1249  0.4149 -0.4340
11001TIP3   OH254417   0.182   4.695  15.637  0.3446 -0.6133  0.0294
11001TIP3    H154418   0.206   4.637  15.566  0.5865 -2.5022  1.5863
11001TIP3    H254419   0.265   4.725  15.673  0.3751 -2.4799  1.6837
11002TIP3   OH254420   4.091   4.189   6.070 -0.0335 -0.3934 -0.1294
11002TIP3    H154421   4.134   4.218   5.990 -0.6215  0.6837 -0.0856
11002TIP3    H254422   4.162   4.175   6.133  0.2526  2.4770  0.3088
11003TIP3   OH254423   1.145   5.929   3.636  0.2481 -0.1075 -0.7576
11003TIP3    H154424   1.196   6.010   3.637 -1.1829  0.8775  1.8043
11003TIP3    H254425   1.062   5.952   3.677 -0.4586 -2.7577 -0.5052
11004TIP3   OH254426   1.662   4.746  15.024  0.4393 -0.3422  0.5865
11004TIP3    H154427   1.717   4.673  15.055 -0.0046 -1.3614 -0.8935
11004TIP3    H254428   1.595   4.704  14.970 -0.6728  1.0617  0.8185
11005TIP3   OH254429   4.609   4.487   2.927  0.2726  0.1398  0.0023
11005TIP3    H154430   4.524   4.483   2.971 -0.4834  1.6370 -1.2203
11005TIP3    H254431   4.635   4.396   2.916 -1.1379 -0.3469  0.4469
11006TIP3   OH254432   0.175   5.378  15.087  0.0291  0.0726 -0.2944
11006TIP3    H154433   0.139   5.292  15.106 -0.4380 -0.4891 -3.2592
11006TIP3    H254434   0.261   5.361  15.048  0.3216  1.0099 -0.0999
11007TIP3   OH254435   4.714   3.493   2.666  0.2761  0.4457 -0.3248
11007TIP3    H154436   4.662   3.506   2.745 -1.1700 -1.4619 -0.8729
11007TIP3    H254437   4.803   3.518   2.691 -0.2246  0.3106  1.7702
11008TIP3   OH254438   5.748   5.365   5.362  0.0597  0.1045 -0.4059
11008TIP3    H154439   5.800   5.445   5.365  2.0105 -1.0588 -1.3964
11008TIP3    H254440   5.770   5.318   5.443 -0.3716  0.1448 -0.2623
11009TIP3   OH254441   4.478   3.421   2.504  0.3776  0.0431 -0.2039
11009TIP3    H154442   4.570   3.443   2.518  1.1004 -2.3148 -0.8709
11009TIP3    H254443   4.463   3.344   2.558 -1.6061  1.1062  0.8790
11010TIP3   OH254444   3.099   6.632  15.837 -0.5838 -0.2205  0.2625
11010TIP3    H154445   3.149   6.552  15.819  0.0001  0.5570 -2.0039
11010TIP3    H254446   3.017   6.619  15.790 -0.9113  0.1030  0.7431
11011TIP3   OH254447   5.949   3.886  16.027  0.2807 -0.1455 -0.5287
11011TIP3    H154448   6.043   3.867  16.035  0.2073 -0.1012  0.5776
11011TIP3    H254449   5.920   3.902  16.117 -0.7097  0.2361 -0.9033
11012TIP3   OH254450   4.358   4.274  13.533 -0.1358 -0.1467 -0.1615
11012TIP3    H154451   4.443   4.317  13.527 -0.2358  0.0886  0.0936
11012TIP3    H254452   4.365   4.199  13.474  0.0258  0.2446 -0.6493
11013TIP3   OH254453   5.470   0.736  10.543 -0.1652 -0.5078  0.2016
11013TIP3    H154454   5.410   0.808  10.561  0.1204  0.5141 -2.4629
11013TIP3    H254455   5.427   0.685  10.474  0.6576 -1.5686  0.4441
11014TIP3   OH254456   2.002   0.581   5.933 -0.3370  0.6151 -0.2399
11014TIP3    H154457   2.034   0.552   5.848  1.3574 -3.0371  1.4144
11014TIP3    H254458   2.065   0.647   5.961 -2.2863  3.7619 -2.6597
11015TIP3   OH254459   0.536   6.672   1.299  0.2327 -0.2883 -0.5409
11015TIP3    H154460   0.549   6.649   1.392 -0.0765 -0.4016 -0.5249
11015TIP3    H254461   0.471   6.741   1.300 -1.8270 -2.1240 -0.8188
11016TIP3   OH254462   3.398   2.873   5.018 -0.3109  0.0731 -0.1036
11016TIP3    H154463   3.420   2.895   4.928 -0.8970  1.2653  0.0308
11016TIP3    H254464   3.305   2.895   5.026  0.3242  2.4594  1.5014
11017TIP3   OH254465   1.591   0.994   4.200  0.2934  0.3823  0.4212
11017TIP3    H154466   1.577   0.948   4.117  1.8174  1.6691 -0.6320
11017TIP3    H254467   1.552   1.080   4.186 -2.0113 -0.2920  2.1511
11018TIP3   OH254468   1.255   0.135  17.227  0.5636  0.0934  0.1249
11018TIP3    H154469   1.199   0.065  17.259  0.3128  0.6951  1.0531
11018TIP3    H254470   1.344   0.107  17.248  0.3804  0.6325  1.7031
11019TIP3   OH254471   1.450   5.970   2.398 -0.6584 -0.0702 -0.3770
11019TIP3    H154472   1.482   5.920   2.473 -0.6015 -1.0410 -1.0379
11019TIP3    H254473   1.392   5.911   2.351  1.5363 -0.5586 -2.7138
11020TIP3   OH254474   4.720   5.332   2.581 -0.2016  0.1000 -0.1409
11020TIP3    H154475   4.701   5.340   2.674 -0.9059 -2.1148 -0.0458
11020TIP3    H254476   4.655   5.387   2.538 -0.9154 -0.1372  0.6107
11021TIP3   OH254477   4.271   1.898  16.234 -0.2264  0.5664  0.0744
11021TIP3    H154478   4.360   1.862  16.241 -0.7916 -0.6106  2.3716
11021TIP3    H254479   4.259   1.914  16.141  1.1702 -2.5368 -0.7881
11022TIP3   OH254480   4.057   1.639  13.122 -0.2336 -0.2973 -0.5344
11022TIP3    H154481   4.055   1.659  13.028  2.0640  2.0925 -0.1832
11022TIP3    H254482   4.147   1.658  13.149 -1.0895  0.1036  2.3782
11023TIP3   OH254483   5.650   5.875  15.024 -0.5001  0.0692 -0.1089
11023TIP3    H154484   5.690   5.804  15.074 -2.1204  0.0912  1.3131
11023TIP3    H254485   5.580   5.908  15.081 -1.5778  0.9817 -1.8649
11024TIP3   OH254486   3.526   0.031   0.478 -0.0941  0.3769 -0.7215
11024TIP3    H154487   3.503   0.072   0.562  1.4267 -3.1344  1.6878
11024TIP3    H254488   3.454  -0.028   0.459  1.1757 -1.6550  0.3261
11025TIP3   OH254489   5.596   4.085   3.511 -0.2126 -0.6075  0.0953
11025TIP3    H154490   5.536   4.117   3.444 -0.2397 -0.0783  0.3712
11025TIP3    H254491   5.677   4.134   3.496 -0.8445  1.0680  1.7314
11026TIP3   OH254492   4.355   6.081  13.676  0.0930  0.2301 -0.0491
11026TIP3    H154493   4.306   6.000  13.661  0.5093 -0.0597  0.1396
11026TIP3    H254494   4.301   6.130  13.738  0.2228 -0.2484  0.4407
11027TIP3   OH254495   2.303   5.324   5.858  0.0602 -0.6434  0.1690
11027TIP3    H154496   2.298   5.392   5.791 -1.1073 -1.0615 -0.1932
11027TIP3    H254497   2.317   5.243   5.808 -1.3362 -1.0270  0.3680
11028TIP3   OH254498   5.345   0.420   6.067 -0.2120 -0.1209  0.1644
11028TIP3    H154499   5.302   0.474   6.134  2.5593  2.3506  0.1436
11028TIP3    H254500   5.429   0.463   6.052 -0.2155 -1.2026 -4.1454
11029TIP3   OH254501   0.326   0.869   4.102  0.1655 -0.3836 -0.8935
11029TIP3    H154502   0.260   0.817   4.147  0.7744 -0.6488 -0.2698
11029TIP3    H254503   0.277   0.931   4.048 -0.6091  0.2687  0.5050
11030TIP3   OH254504   4.100   0.786  14.382 -0.3229  0.1017  0.2182
11030TIP3    H154505   4.056   0.766  14.464 -1.9132  0.7931 -0.4304
11030TIP3    H254506   4.031   0.819  14.324  0.8401  0.1259 -1.2361
11031TIP3   OH254507   1.499   3.559   6.244  0.0103 -0.7040 -0.6864
11031TIP3    H154508   1.441   3.574   6.318  0.0071 -0.5551 -0.7180
11031TIP3    H254509   1.522   3.466   6.249  1.7350 -0.2555  0.7749
11032TIP3   OH254510   4.273   1.037   0.268  0.2580 -0.4435 -0.4779
11032TIP3    H154511   4.241   0.983   0.340  0.2246 -1.9088 -1.5429
11032TIP3    H254512   4.242   0.993   0.189  0.7132  0.8434 -1.4141
11033TIP3   OH254513   4.477   4.698  15.015  0.5932  0.4034  0.2316
11033TIP3    H154514   4.475   4.767  15.081  1.1467  1.0443 -0.4107
11033TIP3    H254515   4.403   4.718  14.957 -0.7003 -0.8890  1.3473
11034TIP3   OH254516   2.032   0.466  13.894 -0.5758  0.3058 -0.2800
11034TIP3    H154517   1.954   0.432  13.938 -0.5105  0.2419 -0.2125
11034TIP3    H254518   2.093   0.393  13.894 -0.1713  0.6356  0.4976
11035TIP3   OH254519   6.277   5.243  15.856  0.3153  0.3544  0.1477
11035TIP3    H154520   6.358   5.212  15.897  1.1615  1.5340 -0.5563
11035TIP3    H254521   6.307   5.298  15.783 -1.1292  0.5120 -0.3477
11036TIP3   OH254522   4.246   5.044  13.858 -0.3403 -0.1394 -0.0748
11036TIP3    H154523   4.236   4.953  13.830  1.7924 -0.0817 -1.2339
11036TIP3    H254524   4.317   5.042  13.921 -1.0542  0.5926  0.7685
11037TIP3   OH254525   0.940   4.604  12.536  0.1991 -0.2393 -0.8797
11037TIP3    H154526   0.950   4.654  12.456 -0.7726 -0.4734 -1.1575
11037TIP3    H254527   1.023   4.555  12.544  1.0884  1.2470 -0.6847
11038TIP3   OH254528   5.120   4.567   0.243 -0.1940  0.5797 -0.7639
11038TIP3    H154529   5.172   4.532   0.315 -0.1785  2.4412  0.1920
11038TIP3    H254530   5.184   4.607   0.184 -0.4139  2.2936  0.0868
11039TIP3   OH254531   0.413   2.379  17.035  0.5344  0.2058 -0.3927
11039TIP3    H154532   0.321   2.358  17.022  0.4483 -0.5256  1.2157
11039TIP3    H254533   0.427   2.370  17.129  1.7787  2.2661 -0.3061
11040TIP3   OH254534   0.084   4.188   0.586 -0.3796  0.1960  0.0888
11040TIP3    H154535   0.120   4.276   0.595 -1.3865  0.5218  1.3626
11040TIP3    H254536   0.142   4.132   0.639 -0.4760  0.3388  0.3496
11041TIP3   OH254537   4.984   1.037  12.742 -0.2853  0.3245  0.6231
11041TIP3    H154538   4.965   1.016  12.833  0.1615 -0.0394  0.6383
11041TIP3    H254539   5.076   1.012  12.731 -0.7641 -1.1414 -0.3519
11042TIP3   OH254540   6.058   0.987  15.397  0.2551  0.0579  0.5117
11042TIP3    H154541   6.136   0.931  15.397  1.0356  1.0332 -1.6050
11042TIP3    H254542   6.093   1.076  15.397 -0.8878  0.5214  0.0394
11043TIP3   OH254543   0.473   5.881   3.735 -0.3599  0.2671  0.1825
11043TIP3    H154544   0.487   5.884   3.830 -1.1009  1.2504  0.2855
11043TIP3    H254545   0.531   5.949   3.701  0.8135 -0.8992 -0.2207
11044TIP3   OH254546   3.376   0.304  13.073  0.6732  0.7648 -0.5683
11044TIP3    H154547   3.421   0.327  13.154  1.7559 -0.0687 -0.9087
11044TIP3    H254548   3.444   0.263  13.019  0.2503  2.2801 -2.3405
11045TIP3   OH254549   3.412   4.959  11.479 -0.6656  0.2447  0.0126
11045TIP3    H154550   3.416   4.979  11.572  0.7223  0.8478 -0.1555
11045TIP3    H254551   3.379   5.039  11.438 -0.1851  0.3843 -0.1154
11046TIP3   OH254552   6.488   3.892  16.197  0.2911 -0.0273 -0.2895
11046TIP3    H154553   6.434   3.829  16.245  0.2959 -0.6262 -1.0372
11046TIP3    H254554   6.573   3.891  16.241  0.1789 -0.2859 -0.0832
11047TIP3   OH254555   1.317   1.666  14.474 -0.9046  0.0875  0.3424
11047TIP3    H154556   1.395   1.674  14.530 -0.0900 -3.1410 -0.1036
11047TIP3    H254557   1.347   1.694  14.388 -0.2784 -0.8681  0.2353
11048TIP3   OH254558   0.729   0.312   2.681 -0.0331 -0.3468  0.1677
11048TIP3    H154559   0.819   0.292   2.655 -0.2583  0.3629 -1.2657
11048TIP3    H254560   0.725   0.408   2.682 -0.9599 -0.3608 -0.5660
11049TIP3   OH254561   3.512   2.062   5.154  0.0863  0.3949  0.5382
11049TIP3    H154562   3.455   2.025   5.222  0.3450  0.9414  1.0587
11049TIP3    H254563   3.452   2.108   5.096 -0.1591 -0.2408  0.2765
11050TIP3   OH254564   6.625   5.101  12.514  0.0368  0.2432 -0.6169
11050TIP3    H154565   6.538   5.104  12.554 -0.0128  1.4835 -0.7965
11050TIP3    H254566   6.620   5.161  12.440  1.5817  1.8117  0.4704
11051TIP3   OH254567   1.493   2.985   5.681  0.6492 -0.2509  0.1998
11051TIP3    H154568   1.464   3.007   5.770  1.7931  0.7299  0.3535
11051TIP3    H254569   1.412   2.976   5.632  0.0166  1.2751  0.8762
11052TIP3   OH254570   3.784   5.613  13.707 -0.0069  0.1379 -0.2847
11052TIP3    H154571   3.767   5.695  13.752 -1.2753  0.0973 -0.6458
11052TIP3    H254572   3.828   5.558  13.772 -2.4505 -0.1914  1.1944
11053TIP3   OH254573   1.681   5.320  14.600 -0.4094  0.3772 -0.3649
11053TIP3    H154574   1.702   5.403  14.557 -0.9205  1.1551  0.8206
11053TIP3    H254575   1.587   5.325  14.618 -0.5832 -0.7673 -0.8887
11054TIP3   OH254576   5.427   5.492   5.440 -0.4528  0.3341 -0.3385
11054TIP3    H154577   5.367   5.455   5.375  1.3729  0.1060 -2.0089
11054TIP3    H254578   5.470   5.565   5.395  1.1058 -0.0251  0.4688
11055TIP3   OH254579   2.039   3.329   1.502  0.6308  0.0378 -0.1745
11055TIP3    H154580   2.023   3.346   1.409  0.5322  3.1395  0.3371
11055TIP3    H254581   2.127   3.364   1.518  0.1641  0.6566  1.1402
11056TIP3   OH254582   3.374   2.673   5.926 -0.0287  0.0849  0.6292
11056TIP3    H154583   3.460   2.642   5.897  0.1053  1.6839 -0.8996
11056TIP3    H254584   3.331   2.596   5.962  0.3495 -1.8815 -2.6920
11057TIP3   OH254585   2.891   0.542  17.166 -0.0777  0.2294  0.1099
11057TIP3    H154586   2.804   0.528  17.129  0.4888 -1.6785 -0.6515
11057TIP3    H254587   2.943   0.575  17.093  0.7175 -2.2814 -0.5641
11058TIP3   OH254588   2.040   4.589   4.183 -0.0308  0.4783  0.4304
11058TIP3    H154589   1.962   4.645   4.180 -1.3072 -0.9183  3.5718
11058TIP3    H254590   2.107   4.643   4.224  0.4500  1.3762 -1.4387
11059TIP3   OH254591   2.160   5.582   2.197  0.3622 -0.3303 -0.5935
11059TIP3    H154592   2.073   5.551   2.173  0.0592  0.3089 -0.3494
11059TIP3    H254593   2.189   5.521   2.265  1.1763 -2.0687 -2.4022
11060TIP3   OH254594   5.110   4.008   2.253 -0.1515  0.1283  0.2558
11060TIP3    H154595   5.144   3.926   2.219  0.8428  0.6371 -0.0217
11060TIP3    H254596   5.111   3.997   2.348  0.9991  0.1946  0.2646
11061TIP3   OH254597   0.267   2.073  14.842 -0.3607 -0.0225  0.5377
11061TIP3    H154598   0.319   2.109  14.771 -2.5840 -0.2512 -1.3131
11061TIP3    H254599   0.231   2.150  14.887 -1.7392  0.1828 -0.8173
11062TIP3   OH254600   5.118   0.377   4.758 -0.0287 -0.1723  0.0852
11062TIP3    H154601   5.098   0.314   4.689  0.5259  0.0564 -0.2902
11062TIP3    H254602   5.034   0.417   4.779  0.1599  1.7303 -2.3769
11063TIP3   OH254603   3.718   6.661  14.734 -0.2954 -0.3452  0.0261
11063TIP3    H154604   3.714   6.572  14.699  1.1702 -0.7353  0.8077
11063TIP3    H254605   3.725   6.649  14.828 -3.5024  0.6882  0.5224
11064TIP3   OH254606   3.911   1.148  12.332  0.5804 -0.2650  0.6126
11064TIP3    H154607   3.886   1.223  12.385 -0.2773  1.0439 -1.5175
11064TIP3    H254608   3.829   1.115  12.296  1.2068 -0.4305 -0.7371
11065TIP3   OH254609   3.202   0.089   3.457  0.0832 -0.3225  0.2298
11065TIP3    H154610   3.292   0.122   3.457  0.0470 -0.0191 -2.3183
11065TIP3    H254611   3.209   0.001   3.418 -0.8227  0.1336 -1.0259
11066TIP3   OH254612   2.568   4.173  14.794  0.0578 -0.4576  0.3500
11066TIP3    H154613   2.556   4.140  14.883 -2.0811  0.6875  0.5539
11066TIP3    H254614   2.501   4.128  14.742 -1.6752  1.9900  0.2738
11067TIP3   OH254615   4.719   1.272  13.029  0.0851 -0.2040  0.1522
11067TIP3    H154616   4.759   1.312  13.107  1.7383  0.0064 -0.7632
11067TIP3    H254617   4.637   1.234  13.062  0.8833 -0.4122  2.0720
11068TIP3   OH254618   2.434   2.168  15.021 -0.1502 -0.0352 -0.0829
11068TIP3    H154619   2.463   2.156  15.111  0.0148  0.2186 -0.1001
11068TIP3    H254620   2.504   2.129  14.968 -0.3777 -0.4309 -0.0947
11069TIP3   OH254621   1.298   1.589  13.036 -0.5602 -0.6646 -0.1652
11069TIP3    H154622   1.272   1.634  13.116  0.5543 -0.4346  0.0902
11069TIP3    H254623   1.276   1.497  13.052  0.3429 -0.7457  0.7389
11070TIP3   OH254624   2.461   4.846   5.858  0.1235  0.1338  0.1907
11070TIP3    H154625   2.524   4.789   5.902 -0.2957 -0.1847  0.3788
11070TIP3    H254626   2.401   4.786   5.813  1.1235  0.4502 -1.6564
11071TIP3   OH254627   1.175   1.383  10.685  0.5806  0.7372 -0.6863
11071TIP3    H154628   1.152   1.437  10.760 -0.0961 -0.5076  0.0404
11071TIP3    H254629   1.205   1.445  10.619  0.5644  1.9188  0.3745
11072TIP3   OH254630   4.331   3.390  16.013 -0.4217  0.0017 -0.6284
11072TIP3    H154631   4.387   3.418  16.086 -2.5965  2.0533  0.3769
11072TIP3    H254632   4.338   3.461  15.949 -0.9802 -0.2773 -1.0090
11073TIP3   OH254633   5.775   5.557   1.712 -0.2864 -0.0046  0.2601
11073TIP3    H154634   5.733   5.609   1.780  0.6348  1.2866 -0.1267
11073TIP3    H254635   5.869   5.572   1.725 -0.0503 -0.7139 -0.5396
11074TIP3   OH254636   3.270   5.850  13.184  0.8419  1.1120 -0.4944
11074TIP3    H154637   3.349   5.798  13.200  0.1301 -0.2871 -1.3265
11074TIP3    H254638   3.303   5.934  13.152  2.0434  1.4768  1.5327
11075TIP3   OH254639   3.133   1.655  10.880 -0.0178 -0.1935 -0.4959
11075TIP3    H154640   3.185   1.674  10.802  1.5324  0.1809  0.5732
11075TIP3    H254641   3.163   1.569  10.908  0.3297  0.1810  0.3364
11076TIP3   OH254642   1.659   3.917   3.523  0.0546  0.6133  0.3365
11076TIP3    H154643   1.680   3.847   3.585 -0.4395 -0.2641 -0.4640
11076TIP3    H254644   1.585   3.964   3.563  0.1163  0.4186  0.6797
11077TIP3   OH254645   1.324   2.704  14.107  0.0051 -0.3310  0.0998
11077TIP3    H154646   1.264   2.777  14.089  1.8363  1.1623 -0.2690
11077TIP3    H254647   1.307   2.641  14.037 -0.3442  0.5833 -0.6573
11078TIP3   OH254648   2.975   5.695  15.590  0.1436  0.1265 -0.0044
11078TIP3    H154649   3.010   5.772  15.546 -0.9298  0.1040 -0.9438
11078TIP3    H254650   2.949   5.726  15.677  1.6105  0.3331  0.3848
11079TIP3   OH254651   4.135   4.751   5.228  0.0035 -0.1669  0.0745
11079TIP3    H154652   4.146   4.673   5.282 -1.3210 -0.1634  0.3903
11079TIP3    H254653   4.140   4.718   5.138 -1.0801 -0.7201  0.2035
11080TIP3   OH254654   0.332   3.267  12.655  0.4664 -0.4701  0.2809
11080TIP3    H154655   0.393   3.302  12.720  0.1316 -1.1531  0.9773
11080TIP3    H254656   0.259   3.232  12.707 -0.3118 -0.0696 -0.5174
11081TIP3   OH254657   0.950   5.170  10.942  0.7616  0.1627  0.6909
11081TIP3    H154658   1.001   5.226  11.000  1.1683 -1.0474  1.5472
11081TIP3    H254659   0.891   5.230  10.896 -1.4109  1.0069  4.1492
11082TIP3   OH254660   2.670   1.603  13.837 -0.4332  0.7749  0.1955
11082TIP3    H154661   2.708   1.688  13.815 -1.9624  1.3195 -0.5279
11082TIP3    H254662   2.693   1.547  13.762  1.1501  0.3185  0.9808
11083TIP3   OH254663   5.764   3.825   2.271  0.1125 -0.1633 -0.0662
11083TIP3    H154664   5.772   3.878   2.192  1.3421 -2.6748 -1.7475
11083TIP3    H254665   5.677   3.786   2.265 -1.4469  2.6285  1.9616
11084TIP3   OH254666   5.355   4.282   3.421 -0.0631 -0.0837  0.3051
11084TIP3    H154667   5.293   4.231   3.473  0.1237  1.2139  1.8969
11084TIP3    H254668   5.350   4.371   3.457  1.7316  0.3741 -0.4134
11085TIP3   OH254669   4.519   3.797   5.868  0.0727  0.5280 -0.3716
11085TIP3    H154670   4.447   3.857   5.884  2.1426  3.9199 -2.5961
11085TIP3    H254671   4.486   3.737   5.801 -1.0013  1.4469 -0.6911
11086TIP3   OH254672   1.651   2.907  15.478 -0.2272 -0.4104 -0.1422
11086TIP3    H154673   1.726   2.862  15.438 -1.1191 -2.3857  0.3028
11086TIP3    H254674   1.670   2.906  15.572 -1.6706 -2.8088  0.2181
11087TIP3   OH254675   3.206   1.399  10.947  0.1333 -0.0192 -0.1015
11087TIP3    H154676   3.266   1.341  10.993  0.7194 -0.6500 -1.5790
11087TIP3    H254677   3.145   1.340  10.903 -1.7555  0.6083  1.5224
11088TIP3   OH254678   4.297   2.823   5.536  0.1423  0.1732  0.9685
11088TIP3    H154679   4.294   2.830   5.631  0.2066  1.1136  0.9094
11088TIP3    H254680   4.357   2.891   5.508 -0.9745  0.8710  0.1702
11089TIP3   OH254681   0.738   5.517  12.951 -0.3558 -0.3278  0.0509
11089TIP3    H154682   0.775   5.526  13.039  0.2147  0.7970 -0.2881
11089TIP3    H254683   0.646   5.493  12.967 -1.5498  4.0879  1.1636
11090TIP3   OH254684   1.691   3.589  11.541 -0.3520 -0.0465 -0.1192
11090TIP3    H154685   1.660   3.533  11.612  2.7277 -1.7000  0.1154
11090TIP3    H254686   1.720   3.670  11.585 -0.2627 -0.2789  0.2556
11091TIP3   OH254687   5.834   5.359   1.420 -0.3852  0.3495  0.2332
11091TIP3    H154688   5.912   5.308   1.441  0.5503  2.0067  0.9510
11091TIP3    H254689   5.763   5.316   1.469  0.4770  0.0827  1.2787
11092TIP3   OH254690   6.440   0.755  12.025  0.4891  0.0233  0.6020
11092TIP3    H154691   6.516   0.698  12.033  0.4911  0.0514  0.7718
11092TIP3    H254692   6.460   0.812  11.950 -0.4096 -1.6052 -0.9619
11093TIP3   OH254693   1.853   0.867   4.244 -0.6279 -0.0522 -0.4392
11093TIP3    H154694   1.774   0.914   4.217 -2.0823 -2.5709 -0.9206
11093TIP3    H254695   1.907   0.863   4.165 -0.6577  0.4593 -0.4895
11094TIP3   OH254696   1.249   0.158   5.146  0.4023  0.0372 -0.1743
11094TIP3    H154697   1.209   0.129   5.064  2.4233  0.9900 -1.5997
11094TIP3    H254698   1.244   0.253   5.143  0.1662  0.0763  1.0134
11095TIP3   OH254699   0.401   2.286   5.946 -0.2955 -0.2224 -0.1922
11095TIP3    H154700   0.402   2.354   6.014  1.7961 -1.6735  1.3625
11095TIP3    H254701   0.492   2.278   5.918 -0.5298 -2.1380 -0.5484
11096TIP3   OH254702   3.630   3.240   0.972  0.1833  0.1419  0.4212
11096TIP3    H154703   3.624   3.307   1.041  0.3744 -0.3760  0.9499
11096TIP3    H254704   3.700   3.272   0.915 -0.6715  1.1035 -0.1389
11097TIP3   OH254705   5.735   5.399   4.572  0.2840 -0.1178 -0.3751
11097TIP3    H154706   5.829   5.412   4.578  0.3083  0.0978 -1.0600
11097TIP3    H254707   5.709   5.452   4.496  0.0931 -2.5442 -2.1017
11098TIP3   OH254708   5.633   2.507   1.567  0.2660  0.2934  0.2712
11098TIP3    H154709   5.719   2.464   1.564  1.1484  2.0331 -1.1389
11098TIP3    H254710   5.578   2.455   1.508  0.7647  0.0288  0.0351
11099TIP3   OH254711   3.251   4.676   3.845  0.2941  0.3866  0.1810
11099TIP3    H154712   3.160   4.647   3.859  0.5486 -0.6086 -0.1092
11099TIP3    H254713   3.303   4.620   3.903  0.7782  0.4870 -0.1508
11100TIP3   OH254714   6.405   5.520   3.982  0.7987  0.4538  0.1315
11100TIP3    H154715   6.341   5.475   4.037 -0.5215  1.1725 -0.7700
11100TIP3    H254716   6.403   5.610   4.013  1.3460  0.4949  0.0498
11101TIP3   OH254717   3.440   0.948   2.847  0.2132 -0.1790  0.0081
11101TIP3    H154718   3.350   0.981   2.853 -0.5859 -2.0720 -0.6927
11101TIP3    H254719   3.437   0.885   2.775  1.3337 -2.5370  1.9089
11102TIP3   OH254720   2.106   2.961  11.737 -0.4878 -0.0622  0.0253
11102TIP3    H154721   2.016   2.929  11.735  0.0083 -1.5736  0.5248
11102TIP3    H254722   2.115   3.003  11.822  0.0440 -2.4328  1.2308
11103TIP3   OH254723   6.724   2.540  12.042  0.1702 -0.3127  0.1618
11103TIP3    H154724   6.733   2.459  12.091 -3.3695  0.4702  2.4853
11103TIP3    H254725   6.749   2.609  12.105 -0.7915  0.5436 -0.3629
11104TIP3   OH254726   5.345   3.627  17.222 -0.0148  0.2421 -0.1748
11104TIP3    H154727   5.439   3.637  17.236 -0.2405  1.8269  0.3825
11104TIP3    H254728   5.306   3.704  17.263 -1.7163 -1.2342  1.1818
11105TIP3   OH254729   1.106   2.924  12.376 -0.6960 -0.1330 -0.4172
11105TIP3    H154730   1.082   2.868  12.303 -1.9803  0.2579 -0.3171
11105TIP3    H254731   1.040   2.993  12.376  0.0773  0.6254  0.2860
11106TIP3   OH254732   3.253   5.374   1.250 -0.5531  0.2414  0.9607
11106TIP3    H154733   3.260   5.279   1.248  2.7437  0.3607  0.9518
11106TIP3    H254734   3.242   5.400   1.158 -2.2191 -0.1117  1.0358
11107TIP3   OH254735   4.266   6.719   0.665 -0.0208  0.2218 -0.3265
11107TIP3    H154736   4.264   6.693   0.573  0.9333 -1.6734  0.1240
11107TIP3    H254737   4.358   6.742   0.681 -0.4798  2.0939 -0.2059
11108TIP3   OH254738   3.051   4.843   0.044 -0.2209 -0.2454  0.3272
11108TIP3    H154739   3.088   4.794  -0.029 -0.9306 -0.2295 -0.0526
11108TIP3    H254740   3.127   4.872   0.095  0.2482 -0.8198 -0.0331
11109TIP3   OH254741   4.580   0.403  15.651 -0.1894  0.1879  0.3065
11109TIP3    H154742   4.652   0.385  15.712 -0.6098  1.8864  1.3723
11109TIP3    H254743   4.563   0.319  15.609  1.4019 -0.5994  1.1256
11110TIP3   OH254744   3.914   4.291  10.876 -0.0543  0.3276 -0.0580
11110TIP3    H154745   3.887   4.207  10.914 -0.3471 -1.0486 -2.9758
11110TIP3    H254746   3.847   4.353  10.904 -0.0967 -0.4914  1.8008
11111TIP3   OH254747   1.016   4.105   6.750  0.0013 -0.3245  0.2580
11111TIP3    H154748   1.015   4.045   6.676  0.2727 -0.0914  0.0638
11111TIP3    H254749   1.087   4.166   6.731  0.0751 -0.2632  0.7112
11112TIP3   OH254750   6.475   5.824   5.685 -0.1320 -0.3452 -0.6988
11112TIP3    H154751   6.529   5.840   5.608 -0.6968 -0.1734 -1.0706
11112TIP3    H254752   6.528   5.856   5.758 -0.0706  0.6118 -1.1408
11113TIP3   OH254753   3.999   3.874   2.257  0.2444 -0.0075  0.3208
11113TIP3    H154754   3.990   3.782   2.280 -2.3229 -0.1536 -0.9033
11113TIP3    H254755   4.048   3.874   2.175  1.8754 -0.1015  1.2619
11114TIP3   OH254756   3.110   3.082   0.225  0.0635  0.2852  0.1086
11114TIP3    H154757   3.092   3.114   0.313  0.8055  1.2138 -0.0570
11114TIP3    H254758   3.183   3.020   0.237 -1.2384 -1.2526  0.4021
11115TIP3   OH254759   0.789   1.700   3.990  0.1543  0.1768  0.0002
11115TIP3    H154760   0.785   1.614   3.947  0.4132 -0.3409  0.9594
11115TIP3    H254761   0.697   1.727   3.997  0.0928  0.1341 -0.6112
11116TIP3   OH254762   3.622   5.853  15.528  0.5758  1.0182  0.1615
11116TIP3    H154763   3.605   5.938  15.569 -2.0753  1.2457 -1.2082
11116TIP3    H254764   3.615   5.869  15.434 -0.8518 -0.8205 -0.1175
11117TIP3   OH254765   3.578   0.487   2.525 -0.0288  0.8483 -0.5627
11117TIP3    H154766   3.658   0.502   2.575 -0.5115 -0.6873  0.7463
11117TIP3    H254767   3.607   0.434   2.450  0.5080  2.1897 -1.3398
11118TIP3   OH254768   3.610   5.496  15.211 -0.2688  0.0469 -0.0642
11118TIP3    H154769   3.638   5.467  15.298  0.2440 -0.7202 -0.4853
11118TIP3    H254770   3.673   5.564  15.188 -0.1760 -0.0198 -0.0076
11119TIP3   OH254771   0.881   4.440   2.714  0.1361 -0.4358 -0.7183
11119TIP3    H154772   0.813   4.384   2.677  0.6385 -0.3875 -1.7376
11119TIP3    H254773   0.835   4.494   2.778 -1.1436  0.8064 -2.6094
11120TIP3   OH254774   2.491   6.350   2.421  0.1507 -0.2980  0.1882
11120TIP3    H154775   2.523   6.400   2.496 -0.9435 -0.2268  0.6167
11120TIP3    H254776   2.545   6.271   2.421 -0.2773 -0.6164  1.4637
11121TIP3   OH254777   1.882   0.484   4.470  0.5288  0.2743 -0.0583
11121TIP3    H154778   1.909   0.392   4.475 -1.7071 -0.3750  1.5463
11121TIP3    H254779   1.905   0.521   4.555  0.4597  0.9332 -0.3199
11122TIP3   OH254780   1.097   3.237   0.764  0.0271 -0.1487 -0.3982
11122TIP3    H154781   1.063   3.152   0.790 -0.0677 -0.0574 -0.2174
11122TIP3    H254782   1.165   3.218   0.700  1.0183 -0.4273  0.7190
11123TIP3   OH254783   4.464   0.969  13.453  0.3333  0.0224 -0.1535
11123TIP3    H154784   4.406   1.003  13.384  0.5817  0.4676 -0.1464
11123TIP3    H254785   4.426   1.004  13.534  1.1340  1.1094 -0.2163
11124TIP3   OH254786   4.994   1.716  16.453  0.4019 -0.3411  0.0751
11124TIP3    H154787   4.983   1.622  16.439 -0.2096 -0.1027 -1.1274
11124TIP3    H254788   5.073   1.722  16.507  2.0259 -1.4198 -2.0432
11125TIP3   OH254789   4.597   4.745   0.964 -0.2769  0.1923 -0.4449
11125TIP3    H154790   4.589   4.655   0.932 -1.4071  0.0935  0.0875
11125TIP3    H254791   4.682   4.775   0.930 -0.4674 -0.6322 -1.7215
11126TIP3   OH254792   3.947   5.903   3.813 -0.0455 -0.1384  0.7687
11126TIP3    H154793   3.987   5.847   3.747  0.8871  0.5507  0.7254
11126TIP3    H254794   4.003   5.981   3.816 -0.8082  0.4057  1.4505
11127TIP3   OH254795   3.219   4.974   3.834 -0.4933  0.0295 -0.2706
11127TIP3    H154796   3.225   4.879   3.827 -0.4177  0.0491 -0.4987
11127TIP3    H254797   3.308   5.001   3.857 -0.0849  0.1830 -1.9214
11128TIP3   OH254798   6.685   0.969  13.318  0.0560 -0.6682 -0.1909
11128TIP3    H154799   6.694   0.876  13.342 -0.9896 -1.2215 -1.7896
11128TIP3    H254800   6.660   0.968  13.226 -1.1571  1.1541  0.0589
11129TIP3   OH254801   2.284   2.602   0.075 -0.3862  0.0731 -0.2357
11129TIP3    H154802   2.213   2.652   0.114 -0.3429 -0.7281  0.9178
11129TIP3    H254803   2.243   2.522   0.045 -0.1923  0.1544 -0.7221
11130TIP3   OH254804   4.449   6.484   4.018  0.3920 -0.3078 -0.5165
11130TIP3    H154805   4.529   6.515   4.060  0.0243  0.7972 -0.5991
11130TIP3    H254806   4.462   6.504   3.925 -0.6017  1.3443 -0.3378
11131TIP3   OH254807   1.925   4.362  12.003  0.1278 -0.2526 -0.0608
11131TIP3    H154808   1.973   4.335  12.081  1.1499 -0.2648 -0.6741
11131TIP3    H254809   1.959   4.449  11.983 -0.5441 -0.0100 -0.1617
11132TIP3   OH254810   6.036   5.532   4.008 -0.0640  0.2145 -0.0558
11132TIP3    H154811   6.043   5.623   4.037  1.4358  0.4949 -1.1875
11132TIP3    H254812   5.943   5.520   3.990 -0.6976  0.7472  2.3874
11133TIP3   OH254813   2.606   3.096   4.650 -0.0863  0.3053  0.1793
11133TIP3    H154814   2.661   3.033   4.696  0.0155  1.2761  1.4672
11133TIP3    H254815   2.563   3.046   4.581  2.0486 -0.5871 -0.5877
11134TIP3   OH254816   5.456   1.268   2.627  0.8077 -0.4647  0.1725
11134TIP3    H154817   5.408   1.195   2.665 -0.2987  0.3329  0.3843
11134TIP3    H254818   5.460   1.249   2.533  0.5047 -0.7809  0.2242
11135TIP3   OH254819   6.620   4.254   4.827  0.1731  0.0812 -0.4355
11135TIP3    H154820   6.572   4.240   4.745 -2.2118 -1.1590  1.0639
11135TIP3    H254821   6.696   4.196   4.820 -0.6771 -0.9732 -1.2721
11136TIP3   OH254822   4.290   5.269   2.708 -0.2359  0.1809  0.3556
11136TIP3    H154823   4.205   5.225   2.707 -0.6314  0.8917 -1.7661
11136TIP3    H254824   4.274   5.353   2.664  1.7559 -0.0970 -1.0344
11137TIP3   OH254825   1.524   0.769  14.495 -0.3120  0.2357 -0.4505
11137TIP3    H154826   1.607   0.808  14.522  0.1971 -1.2976  0.3629
11137TIP3    H254827   1.468   0.777  14.572 -0.0495 -0.9784 -0.1116
11138TIP3   OH254828   5.365   6.346   2.828 -0.0914  0.4094 -0.1126
11138TIP3    H154829   5.456   6.323   2.813  1.0025  3.3671  1.1249
11138TIP3    H254830   5.327   6.354   2.740  1.0784  0.0184 -0.6681
11139TIP3   OH254831   5.606   1.951   5.679 -0.3253  0.0346 -0.2209
11139TIP3    H154832   5.580   1.862   5.655 -0.7583  0.2545 -0.5837
11139TIP3    H254833   5.523   1.995   5.701 -0.0158  0.0394  1.0261
11140TIP3   OH254834   0.315   4.982   4.285  0.2333 -0.3007 -0.1523
11140TIP3    H154835   0.361   4.906   4.319  0.5927 -0.0140  0.0041
11140TIP3    H254836   0.256   5.008   4.355  1.3679  0.6259  0.5013
11141TIP3   OH254837   0.064   3.272   1.256  0.1257  0.0447 -0.2261
11141TIP3    H154838   0.131   3.220   1.212  0.0428  1.4970 -2.2258
11141TIP3    H254839   0.031   3.215   1.325  1.9430 -1.4823 -0.5235
11142TIP3   OH254840   4.838   3.384   2.346 -0.2832 -0.0206 -0.4406
11142TIP3    H154841   4.795   3.468   2.358  0.2729  0.3075 -0.7082
11142TIP3    H254842   4.879   3.365   2.430  0.6392  0.5797 -0.7447
11143TIP3   OH254843   5.134   0.936   3.228  0.4282  0.3942 -0.1828
11143TIP3    H154844   5.167   1.019   3.263  0.6093 -0.8335  2.9266
11143TIP3    H254845   5.139   0.875   3.302 -0.6606 -2.1532 -2.0334
11144TIP3   OH254846   3.968   5.313   3.448  0.2850  0.1836 -0.2984
11144TIP3    H154847   3.962   5.387   3.387 -1.9266 -0.3681 -0.8339
11144TIP3    H254848   3.957   5.353   3.535  1.1584  0.7029 -0.4167
11145TIP3   OH254849   4.204   4.585  13.303 -0.1016 -0.3566  0.1749
11145TIP3    H154850   4.223   4.534  13.223 -3.3983 -0.3117 -0.7646
11145TIP3    H254851   4.236   4.673  13.283  1.2103 -0.8798 -0.1393
11146TIP3   OH254852   5.076   3.165  13.920  0.5855  0.1492  0.1261
11146TIP3    H154853   5.021   3.207  13.855  0.2318 -2.1154 -1.1593
11146TIP3    H254854   5.125   3.099  13.871  0.5973 -1.3959  2.0717
11147TIP3   OH254855   2.013   2.441   1.092  0.3156 -0.4918 -0.0086
11147TIP3    H154856   2.071   2.395   1.032 -0.4452 -0.8467 -0.4832
11147TIP3    H254857   1.972   2.509   1.039  0.2915 -0.2487  0.3174
11148TIP3   OH254858   3.546   0.480  10.916  0.1030  0.5769  0.2211
11148TIP3    H154859   3.502   0.539  10.976  0.2269  0.7160  0.1755
11148TIP3    H254860   3.477   0.421  10.885  0.0682  0.4050  0.6164
11149TIP3   OH254861   3.775   4.110  11.659  0.0993 -0.3351  0.7309
11149TIP3    H154862   3.800   4.140  11.571  0.7740 -0.8319  0.7490
11149TIP3    H254863   3.857   4.083  11.699 -0.1437  0.2944  1.6791
11150TIP3   OH254864   6.385   4.503  16.676  0.5681 -0.0735 -0.5792
11150TIP3    H154865   6.463   4.477  16.726  0.1637  0.8185  0.5676
11150TIP3    H254866   6.339   4.421  16.659  2.1426 -0.7265 -2.0155
11151TIP3   OH254867   1.309   0.918   3.461 -0.8224 -0.9617 -0.7336
11151TIP3    H154868   1.325   0.940   3.370  2.2539 -0.2327 -0.1445
11151TIP3    H254869   1.341   0.828   3.470  3.1275  0.3707  0.3946
11152TIP3   OH254870   1.435   3.269  15.328  0.4903  0.7572  0.2321
11152TIP3    H154871   1.350   3.254  15.288  0.5013  1.3058  0.0052
11152TIP3    H254872   1.484   3.321  15.264  2.0571 -1.9712 -0.9601
11153TIP3   OH254873   6.695   3.271  15.462 -0.1330  0.3273 -0.0491
11153TIP3    H154874   6.740   3.280  15.546  0.6157 -1.5500 -0.2065
11153TIP3    H254875   6.638   3.349  15.457 -0.1302  0.5380  2.1393
11154TIP3   OH254876   4.728   1.415   2.041 -0.1323  0.0173 -0.3062
11154TIP3    H154877   4.639   1.444   2.023 -0.8199 -1.3686  0.7358
11154TIP3    H254878   4.777   1.497   2.053 -1.2423  0.8003 -0.8876
11155TIP3   OH254879   5.588   5.368  13.815  0.3725 -0.3258  0.3329
11155TIP3    H154880   5.649   5.380  13.743 -0.0286 -0.8032 -0.0917
11155TIP3    H254881   5.504   5.400  13.781  0.2447 -0.2902  0.6804
11156TIP3   OH254882   6.206   6.128   0.949 -0.3257 -0.5309 -0.4063
11156TIP3    H154883   6.137   6.184   0.912  0.1169  0.8066  0.6745
11156TIP3    H254884   6.184   6.123   1.042  1.4256  0.5684  0.1095
11157TIP3   OH254885   1.880   0.033   1.706 -0.0032  0.2124 -0.0918
11157TIP3    H154886   1.916   0.001   1.623 -0.8038 -1.0974  0.0508
11157TIP3    H254887   1.835   0.114   1.683 -0.1535 -0.0994 -0.9159
11158TIP3   OH254888   5.281   1.628   0.092  0.7732  0.9104  0.6029
11158TIP3    H154889   5.208   1.682   0.122  0.6681 -0.1781  2.4643
11158TIP3    H254890   5.359   1.682   0.106  0.4529  1.6603 -0.3601
11159TIP3   OH254891   5.762   5.442  14.685 -0.3204  0.4928  0.0863
11159TIP3    H154892   5.831   5.443  14.618 -0.5124 -1.2366 -0.1653
11159TIP3    H254893   5.684   5.473  14.639 -0.3804 -0.3907 -0.4258
11160TIP3   OH254894   0.653   4.711   6.210  0.0451  0.0849 -0.4964
11160TIP3    H154895   0.691   4.778   6.266 -0.4144  0.0936 -0.1913
11160TIP3    H254896   0.684   4.628   6.246  0.8588  0.1420 -1.0554
11161TIP3   OH254897   1.461   1.352   1.183  0.1078  0.1439 -0.2001
11161TIP3    H154898   1.396   1.294   1.223 -0.8296  0.0846 -1.7371
11161TIP3    H254899   1.538   1.296   1.169 -0.7479 -0.7403 -1.5574
11162TIP3   OH254900   1.905   1.839  12.907  0.0838 -0.1391 -0.3410
11162TIP3    H154901   1.887   1.747  12.891  0.4623 -0.2175 -0.3231
11162TIP3    H254902   1.901   1.848  13.002  0.2090 -0.1689 -0.3341
11163TIP3   OH254903   4.710   4.602  12.116  0.1605 -0.3505  0.2730
11163TIP3    H154904   4.753   4.564  12.039  0.0053 -1.3766  0.6748
11163TIP3    H254905   4.683   4.526  12.168  1.0194  0.3132  1.7559
11164TIP3   OH254906   6.107   3.737   4.825 -0.0389  0.1643  0.1588
11164TIP3    H154907   6.064   3.653   4.808 -0.2674  0.8581 -3.2470
11164TIP3    H254908   6.053   3.777   4.894  0.5924 -2.7296  2.5269
11165TIP3   OH254909   5.561   2.717   2.762 -0.3042 -0.7012 -0.0001
11165TIP3    H154910   5.633   2.689   2.706  1.1410  1.3788  0.7018
11165TIP3    H254911   5.570   2.665   2.841 -1.9289 -3.1427 -1.2991
11166TIP3   OH254912   0.176   3.046  16.980  0.4251 -0.2996  0.4410
11166TIP3    H154913   0.194   2.952  16.977  0.1388 -0.5449  3.5545
11166TIP3    H254914   0.186   3.069  17.072  0.9792  2.8577 -0.3008
11167TIP3   OH254915   2.437   4.827   4.737  0.1399  0.0832 -0.0313
11167TIP3    H154916   2.461   4.919   4.728  0.6715 -0.1217 -0.7499
11167TIP3    H254917   2.443   4.791   4.648  0.6208 -0.8066  0.3486
11168TIP3   OH254918   4.918   5.482  10.655 -0.2740  0.0608 -0.2461
11168TIP3    H154919   4.844   5.534  10.622 -0.4740 -0.5524 -0.7893
11168TIP3    H254920   4.878   5.422  10.718 -0.4157 -0.9495 -1.2705
11169TIP3   OH254921   2.263   3.309   3.100  0.1474 -0.1538 -0.4318
11169TIP3    H154922   2.239   3.402   3.098  1.7039  0.3424  1.1415
11169TIP3    H254923   2.355   3.309   3.126  0.2221 -2.1460 -0.5945
11170TIP3   OH254924   3.339   2.002   5.365  0.1777 -0.5616 -0.2220
11170TIP3    H154925   3.264   2.050   5.329 -0.4176 -0.1167  1.5405
11170TIP3    H254926   3.307   1.914   5.379  0.0102 -0.3933  0.4533
11171TIP3   OH254927   4.118   0.636  12.861 -0.4065  0.3815 -0.5812
11171TIP3    H154928   4.115   0.731  12.853 -0.5641  0.2796 -1.8566
11171TIP3    H254929   4.207   0.612  12.834 -0.1783  0.2032  0.2946
11172TIP3   OH254930   4.057   0.326  10.800 -0.1755 -0.6969  0.7548
11172TIP3    H154931   4.008   0.379  10.737 -1.6328  0.3602  2.6613
11172TIP3    H254932   4.027   0.356  10.886  2.5928 -1.1994  2.0387
11173TIP3   OH254933   1.495   4.616   5.036  0.2341  0.0842 -0.1073
11173TIP3    H154934   1.450   4.625   4.952  2.1296  0.8362 -1.0989
11173TIP3    H254935   1.502   4.522   5.050 -2.2307 -0.0771  0.4606
11174TIP3   OH254936   1.174   5.784  11.103  0.6836  0.6185  0.5319
11174TIP3    H154937   1.150   5.853  11.041  0.0518 -0.8139 -0.9003
11174TIP3    H254938   1.129   5.808  11.184 -2.8124 -0.0457 -1.0100
11175TIP3   OH254939   1.580   0.231  15.174 -0.2356 -0.3927  0.0297
11175TIP3    H154940   1.545   0.278  15.098 -1.7315 -1.4494  0.0211
11175TIP3    H254941   1.675   0.242  15.167 -0.4390  0.9942 -1.0115
11176TIP3   OH254942   1.700   1.513   1.328 -0.7190  0.2409 -0.2952
11176TIP3    H154943   1.629   1.458   1.361 -1.0201  0.8223  0.0407
11176TIP3    H254944   1.766   1.512   1.398  0.4066 -1.7098 -1.3113
11177TIP3   OH254945   0.249   1.289  12.914  0.0954 -0.4512 -0.8253
11177TIP3    H154946   0.205   1.339  12.844 -1.9585 -2.5055 -1.1419
11177TIP3    H254947   0.263   1.202  12.876  0.5981 -1.0881  0.7315
11178TIP3   OH254948   6.493   4.002   4.943 -0.2752  0.3635  0.2570
11178TIP3    H154949   6.492   4.096   4.921  0.8295  0.2016 -0.5613
11178TIP3    H254950   6.484   3.958   4.859 -1.1757 -0.2903  0.6753
11179TIP3   OH254951   2.007   3.067  16.318 -0.0529 -0.0379 -0.1875
11179TIP3    H154952   1.912   3.073  16.323  0.0176  2.5975 -0.6422
11179TIP3    H254953   2.029   2.988  16.367 -2.4388 -0.5552  0.1577
11180TIP3   OH254954   4.029   4.016   1.395  0.2075 -0.1206 -0.4053
11180TIP3    H154955   4.023   3.926   1.427 -1.8538 -0.4524 -1.5563
11180TIP3    H254956   4.090   4.011   1.322  1.1320 -0.2951  0.3536
11181TIP3   OH254957   5.400   0.845  14.301  0.0821 -0.1257 -0.4497
11181TIP3    H154958   5.332   0.792  14.342  0.8622 -0.5261  0.3568
11181TIP3    H254959   5.383   0.934  14.332 -2.3479  0.5501 -3.2356
11182TIP3   OH254960   4.615   4.700  11.524 -0.2149  0.3793 -0.0494
11182TIP3    H154961   4.638   4.611  11.553 -0.1934 -0.0103 -1.1997
11182TIP3    H254962   4.691   4.753  11.548  0.1194 -0.0789 -0.0687
11183TIP3   OH254963   3.258   5.849  12.868 -0.3507 -0.2601 -0.3707
11183TIP3    H154964   3.280   5.883  12.781 -3.3674  1.8604 -0.4687
11183TIP3    H254965   3.297   5.911  12.929 -2.6890  1.4583 -0.4676
11184TIP3   OH254966   1.166   3.259   1.306 -0.1399  0.3116  0.5227
11184TIP3    H154967   1.217   3.281   1.228 -0.8696  0.9510  0.2019
11184TIP3    H254968   1.188   3.168   1.325  0.3461  0.2707 -0.2023
11185TIP3   OH254969   0.184   5.636   2.633  0.1834 -0.5411  0.4780
11185TIP3    H154970   0.236   5.616   2.710 -0.3465 -1.7164  0.5488
11185TIP3    H254971   0.094   5.638   2.664  0.0073 -0.5443 -0.0188
11186TIP3   OH254972   2.227   4.238  14.877 -0.1084  0.2327 -0.0362
11186TIP3    H154973   2.281   4.315  14.894  0.4107 -0.0094 -0.5117
11186TIP3    H254974   2.143   4.257  14.916  0.4228  0.4986  0.9974
11187TIP3   OH254975   1.856   0.329  15.181  0.1874  0.0451 -0.3454
11187TIP3    H154976   1.889   0.240  15.194  0.7752  0.1111 -1.3138
11187TIP3    H254977   1.929   0.376  15.140  0.3713  1.3387  1.3246
11188TIP3   OH254978   3.133   2.111  14.231 -0.0719  0.2156  0.2267
11188TIP3    H154979   3.118   2.198  14.194  1.6345 -1.1773 -4.3066
11188TIP3    H254980   3.220   2.117  14.271 -0.9708  1.1094  2.2112
11189TIP3   OH254981   1.551   6.041  14.670  0.0916  0.0184 -1.2356
11189TIP3    H154982   1.491   6.090  14.727 -0.2028 -0.5670 -1.0372
11189TIP3    H254983   1.633   6.091  14.674 -0.5677  1.2038 -2.0545
11190TIP3   OH254984   6.756   6.094  15.163 -0.3582 -0.3774  0.2483
11190TIP3    H154985   6.735   6.184  15.136  1.5032  0.5610  1.6730
11190TIP3    H254986   6.715   6.084  15.249  1.2224 -0.0767  1.0717
11191TIP3   OH254987   4.013   0.865  16.416 -0.3831 -0.0210 -0.1967
11191TIP3    H154988   3.975   0.908  16.492  0.6232  0.9085 -0.2013
11191TIP3    H254989   4.024   0.935  16.352  0.4666 -0.4475 -0.5286
11192TIP3   OH254990   6.736   5.035   5.072 -0.0452 -0.3584  0.0245
11192TIP3    H154991   6.777   4.950   5.053  2.4935  0.3983  1.5528
11192TIP3    H254992   6.791   5.098   5.025  0.4829  0.7066  1.9934
11193TIP3   OH254993   0.549   3.361   4.990 -0.2114  0.7424  0.2221
11193TIP3    H154994   0.529   3.401   4.906  1.0895 -1.8574 -1.4755
11193TIP3    H254995   0.644   3.368   4.998 -0.2528  0.3791  1.1583
11194TIP3   OH254996   4.667   1.659   5.124 -0.2236  0.1636  0.2161
11194TIP3    H154997   4.717   1.603   5.183 -2.2958  0.1200  2.0634
11194TIP3    H254998   4.664   1.611   5.041  1.9292 -0.2298  0.3112
11195TIP3   OH254999   5.013   5.469   3.837  0.4086  0.3683  0.2979
11195TIP3    H155000   5.073   5.542   3.853 -0.7630  1.0740  1.7776
11195TIP3    H255001   4.976   5.487   3.750  1.3814  0.6003 -0.0760
11196TIP3   OH255002   4.501   0.997  12.003  0.1691 -0.0090 -0.1677
11196TIP3    H155003   4.509   1.085  11.967  3.2394 -0.0099  0.2713
11196TIP3    H255004   4.509   1.009  12.097  1.5306 -0.7868 -0.1583
11197TIP3   OH255005   3.004   4.511  14.859  0.5901  0.5964  0.2370
11197TIP3    H155006   2.960   4.519  14.775 -1.1185 -2.6525  0.6607
11197TIP3    H255007   3.074   4.447  14.843  1.1205  0.9706  1.0057
11198TIP3   OH255008   3.198   2.506  15.021 -0.4502  0.6165  0.1410
11198TIP3    H155009   3.145   2.536  15.095  1.3058  0.1452  1.6493
11198TIP3    H255010   3.263   2.575  15.009 -0.0967  0.2085 -0.3053
11199TIP3   OH255011   5.842   6.243   3.266  0.3360  0.7464 -0.2368
11199TIP3    H155012   5.849   6.336   3.288 -0.5864  1.0983 -1.3670
11199TIP3    H255013   5.932   6.216   3.248  0.6678  1.2966  0.5204
11200TIP3   OH255014   2.267   4.340   1.798  0.1732 -0.3113  1.0487
11200TIP3    H155015   2.187   4.351   1.848 -1.6317 -1.7561 -1.3309
11200TIP3    H255016   2.242   4.289   1.722  2.9026  1.0340 -0.9665
11201TIP3   OH255017   1.078   2.683  16.886  0.2918  0.0341  0.5668
11201TIP3    H155018   1.174   2.677  16.895  0.1946 -0.5241  1.3520
11201TIP3    H255019   1.055   2.613  16.825  0.3333 -0.2204  0.8377
11202TIP3   OH255020   5.262   1.863  12.756  0.0674  0.3821  0.0559
11202TIP3    H155021   5.356   1.860  12.736  0.4882  1.7753  1.5799
11202TIP3    H255022   5.231   1.775  12.737  1.2535  0.3919 -2.3516
11203TIP3   OH255023   4.873   6.160   6.534 -0.0180 -0.1838 -0.3012
11203TIP3    H155024   4.901   6.132   6.621 -1.6652 -0.6762  0.1081
11203TIP3    H255025   4.804   6.098   6.510 -1.3992  1.4721 -0.8332
11204TIP3   OH255026   0.221   2.222   0.805  0.1529  0.1028 -0.2051
11204TIP3    H155027   0.241   2.245   0.896  1.2040 -0.1613 -0.3550
11204TIP3    H255028   0.300   2.245   0.756 -0.3559  0.1374 -1.0433
11205TIP3   OH255029   1.654   0.398  12.498 -0.1395 -0.1591  0.1129
11205TIP3    H155030   1.678   0.490  12.506  0.2888  0.1413 -3.0982
11205TIP3    H255031   1.733   0.355  12.465  0.0779 -2.0272  2.7681
11206TIP3   OH255032   1.657   0.907  12.488  0.0558  0.2992 -0.3302
11206TIP3    H155033   1.619   0.967  12.551 -0.0964  0.4456 -0.5620
11206TIP3    H255034   1.650   0.952  12.404 -0.7215 -0.3386 -0.6181
11207TIP3   OH255035   1.074   3.954  16.913  0.3266 -0.0264 -0.0737
11207TIP3    H155036   1.100   4.022  16.850  1.6869 -1.9237 -1.7014
11207TIP3    H255037   0.981   3.969  16.927  0.6935  2.5030  0.1108
11208TIP3   OH255038   6.360   1.191   5.758  0.1141 -0.1634 -0.0330
11208TIP3    H155039   6.392   1.278   5.784  0.7599 -0.4878  0.3030
11208TIP3    H255040   6.268   1.204   5.737  0.1131  0.5331  0.3738
11209TIP3   OH255041   6.501   1.376   1.981  0.3976 -0.3842  0.4755
11209TIP3    H155042   6.561   1.316   2.025  0.0520 -0.1170  1.3502
11209TIP3    H255043   6.521   1.462   2.019  0.1437 -0.1321  0.0433
11210TIP3   OH255044   2.177   3.123   0.811  0.0414  0.2360 -1.0468
11210TIP3    H155045   2.128   3.195   0.771 -0.2725 -0.6579 -2.3647
11210TIP3    H255046   2.120   3.047   0.801  0.2880 -0.1789  0.4806
11211TIP3   OH255047   3.254   0.327  12.002 -0.4985 -0.3067 -0.1019
11211TIP3    H155048   3.262   0.411  11.956 -3.0724 -0.3222 -0.7134
11211TIP3    H255049   3.161   0.318  12.019 -0.2067 -2.7838  0.4986
11212TIP3   OH255050   1.165   1.541   1.144  0.4560  0.0805  0.2004
11212TIP3    H155051   1.158   1.453   1.108  2.3559 -0.8492  1.9520
11212TIP3    H255052   1.233   1.583   1.092  0.8696 -0.1237  0.5792
11213TIP3   OH255053   2.906   0.222   3.924 -0.2570  0.9336  0.5676
11213TIP3    H155054   2.853   0.215   4.004 -1.1735  1.0453 -0.0110
11213TIP3    H255055   2.916   0.316   3.911 -1.1904  0.9567 -0.1188
11214TIP3   OH255056   4.170   1.866   4.834 -0.2637 -0.2648 -0.0141
11214TIP3    H155057   4.174   1.859   4.929 -1.8550 -2.7269 -0.0312
11214TIP3    H255058   4.077   1.873   4.814 -0.0129 -0.5821 -1.4063
11215TIP3   OH255059   4.977   4.819   5.897 -0.3716 -0.4078 -0.1047
11215TIP3    H155060   4.913   4.772   5.843  1.0792 -1.0580 -1.3418
11215TIP3    H255061   4.968   4.780   5.984 -2.2957  0.1962  0.0084
11216TIP3   OH255062   3.169   5.236  13.338  0.6952  0.5285 -0.7091
11216TIP3    H155063   3.099   5.259  13.277  0.9089  0.3566 -1.0223
11216TIP3    H255064   3.135   5.260  13.425 -0.2422 -0.7028 -0.7261
11217TIP3   OH255065   5.280   3.820  12.577 -0.6728  0.0654  0.1070
11217TIP3    H155066   5.333   3.748  12.611 -0.0719 -0.6003 -2.1139
11217TIP3    H255067   5.308   3.896  12.629  0.8000 -0.7253  0.5309
11218TIP3   OH255068   4.416   5.623   0.170  0.0951 -0.3086 -0.5314
11218TIP3    H155069   4.359   5.585   0.236  0.1225 -0.2057 -0.4492
11218TIP3    H255070   4.373   5.603   0.087  0.9810 -2.0658 -0.6165
11219TIP3   OH255071   0.662   3.794  11.191  0.1019 -0.3666 -0.1175
11219TIP3    H155072   0.566   3.789  11.186 -0.0257  1.0387  0.4777
11219TIP3    H255073   0.689   3.823  11.104  0.0117 -0.9392 -0.3417
11220TIP3   OH255074   1.391   6.127  14.467 -0.0621 -0.4388  0.8253
11220TIP3    H155075   1.414   6.060  14.402 -0.3828 -0.6439  0.9229
11220TIP3    H255076   1.426   6.093  14.550 -0.4950 -0.6319  0.9302
11221TIP3   OH255077   2.776   6.526   0.671 -0.0438 -0.4806  0.5279
11221TIP3    H155078   2.699   6.470   0.660  0.2382 -0.7980  0.1241
11221TIP3    H255079   2.760   6.602   0.615 -1.1535  0.6477  2.2871
11222TIP3   OH255080   5.609   1.564   4.006 -0.5927 -0.1192 -0.3137
11222TIP3    H155081   5.586   1.657   4.010 -0.4937 -0.0657 -0.8419
11222TIP3    H255082   5.546   1.527   3.944 -0.8510 -0.4747  0.1579
11223TIP3   OH255083   6.362   4.640   5.791  0.0034  0.4328 -0.4667
11223TIP3    H155084   6.306   4.625   5.867 -1.0633  0.6310 -1.1867
11223TIP3    H255085   6.425   4.705   5.820  0.4584 -0.4740  0.6483
11224TIP3   OH255086   3.237   3.155   4.071  0.4702 -0.3241 -0.4854
11224TIP3    H155087   3.250   3.200   3.988  0.9267  1.2028  0.3772
11224TIP3    H255088   3.195   3.072   4.047 -2.4663  1.4234 -1.9979
11225TIP3   OH255089   3.260   1.458  15.490 -0.3182  0.2474 -0.5224
11225TIP3    H155090   3.244   1.415  15.406 -0.9838  0.3038 -0.4325
11225TIP3    H255091   3.355   1.459  15.499 -0.2352  0.3866 -1.3488
11226TIP3   OH255092   0.933   4.700   1.704 -0.5459 -0.3519  0.5793
11226TIP3    H155093   0.919   4.663   1.617 -1.1860 -0.0945  0.5649
11226TIP3    H255094   0.931   4.624   1.763  0.7641 -0.6279  0.2940
11227TIP3   OH255095   4.387   2.826  12.610  0.3800 -0.7349 -0.3175
11227TIP3    H155096   4.439   2.839  12.531 -0.8880  1.0986 -0.8984
11227TIP3    H255097   4.450   2.793  12.675  2.0314  0.3905 -1.2901
11228TIP3   OH255098   4.060   4.703  11.909  0.0675  0.6827 -0.5197
11228TIP3    H155099   4.095   4.776  11.960  0.6299 -0.0820  0.2207
11228TIP3    H255100   4.091   4.719  11.820 -1.3146  2.2797 -0.7483
11229TIP3   OH255101   0.653   5.210   5.858 -0.4378 -0.6741 -0.1253
11229TIP3    H155102   0.623   5.269   5.927 -1.7913 -0.2720 -1.0267
11229TIP3    H255103   0.593   5.136   5.862  0.2144 -1.2212 -0.1206
11230TIP3   OH255104   4.455   3.888   0.141 -0.2745  0.0578 -0.8077
11230TIP3    H155105   4.420   3.977   0.152  2.3012  1.2983 -1.7969
11230TIP3    H255106   4.481   3.862   0.230  1.1179  1.3170 -0.8088
11231TIP3   OH255107   5.920   2.401  12.314  0.1712  0.1525  0.0650
11231TIP3    H155108   5.907   2.367  12.402 -0.9340  0.5016  0.0460
11231TIP3    H255109   6.012   2.384  12.295  0.1252 -1.0020  0.8196
11232TIP3   OH255110   4.317   2.317  11.505 -0.1317  0.1520  0.3729
11232TIP3    H155111   4.392   2.300  11.448 -1.5842 -0.2616 -1.5251
11232TIP3    H255112   4.325   2.410  11.528  1.1684  0.0111  0.5620
11233TIP3   OH255113   6.096   4.024   4.436 -0.0303  0.3788 -0.0602
11233TIP3    H155114   6.068   4.056   4.522 -2.8911  0.5272 -0.9519
11233TIP3    H255115   6.089   3.928   4.443 -3.5520  0.4336 -0.9844
11234TIP3   OH255116   6.484   1.275   0.689 -0.1294 -0.3702  0.2186
11234TIP3    H155117   6.463   1.182   0.688 -1.5416 -0.0671 -0.6693
11234TIP3    H255118   6.416   1.314   0.744  0.5486  0.1274  0.7237
11235TIP3   OH255119   4.600   3.348   6.212  0.9603  0.2030  0.1553
11235TIP3    H155120   4.603   3.433   6.168  2.1119  0.0479 -0.0966
11235TIP3    H255121   4.528   3.356   6.274  1.4715  1.6089  0.6058
11236TIP3   OH255122   2.389   1.436   4.875  0.4026 -0.8622  0.4833
11236TIP3    H155123   2.296   1.456   4.868  0.2363 -1.3220  1.2487
11236TIP3    H255124   2.396   1.345   4.845  1.0557  0.0302 -2.3770
11237TIP3   OH255125   2.180   1.695   0.834  1.0665 -0.1218 -0.4838
11237TIP3    H155126   2.123   1.643   0.891  0.1173  0.7947 -0.5890
11237TIP3    H255127   2.250   1.725   0.892  0.4039  0.3453  0.0885
11238TIP3   OH255128   5.958   2.856  11.477 -0.0043  1.2734  0.7796
11238TIP3    H155129   6.007   2.862  11.395  1.3711  0.4189  1.5053
11238TIP3    H255130   5.878   2.905  11.461 -0.4683 -0.1028 -1.5785
11239TIP3   OH255131   5.370   3.668  13.528 -0.1007  0.4878 -0.2961
11239TIP3    H155132   5.280   3.665  13.498 -0.1676  1.9768 -0.3184
11239TIP3    H255133   5.408   3.585  13.500 -1.4572 -0.1558 -0.2724
11240TIP3   OH255134   1.774   4.023  13.142  0.2213 -0.5761 -0.4131
11240TIP3    H155135   1.697   4.071  13.171  1.2484  0.4866  0.6892
11240TIP3    H255136   1.766   3.937  13.182 -1.1840 -1.0617 -1.6537
11241TIP3   OH255137   3.145   6.615  12.481  0.6872 -0.2847 -0.3624
11241TIP3    H155138   3.191   6.538  12.515 -0.2720 -1.1411 -0.9292
11241TIP3    H255139   3.193   6.690  12.516  0.8788 -1.1320  1.2527
11242TIP3   OH255140   6.253   5.587  14.405 -0.1894  0.1064 -0.0620
11242TIP3    H155141   6.318   5.578  14.336 -0.3430  2.2787 -0.5747
11242TIP3    H255142   6.302   5.579  14.487  0.5410  0.6319 -0.4411
11243TIP3   OH255143   4.598   5.341  16.748 -0.3647 -0.3282  0.2173
11243TIP3    H155144   4.555   5.332  16.663 -2.4177 -1.1446  1.2797
11243TIP3    H255145   4.531   5.376  16.806  1.0398  0.3792  1.4967
11244TIP3   OH255146   3.609   0.801   5.289 -0.2734 -0.2535  0.3901
11244TIP3    H155147   3.670   0.801   5.215  0.5258 -0.3290  1.0462
11244TIP3    H255148   3.653   0.750   5.357 -2.2485 -2.7735 -0.0796
11245TIP3   OH255149   1.542   3.714   6.603 -0.0121  0.2352 -0.9303
11245TIP3    H155150   1.502   3.674   6.681  2.6013 -0.8251 -0.0039
11245TIP3    H255151   1.472   3.715   6.538 -2.8395  2.6664  1.8100
11246TIP3   OH255152   2.704   0.764  13.043 -0.1101  0.2721 -0.2386
11246TIP3    H155153   2.705   0.681  13.092 -0.2150 -0.4435 -1.4071
11246TIP3    H255154   2.611   0.784  13.032 -0.1688 -0.6736 -1.8833
11247TIP3   OH255155   3.022   4.606   5.366  0.0607  0.3486 -0.0148
11247TIP3    H155156   3.052   4.608   5.275  1.8143 -0.9514  0.4759
11247TIP3    H255157   2.945   4.549   5.364 -0.2780  0.8194 -0.7746
11248TIP3   OH255158   2.868   2.453  15.346 -0.1538  0.7534 -0.9149
11248TIP3    H155159   2.860   2.358  15.360  1.1701  0.7970  0.4530
11248TIP3    H255160   2.786   2.489  15.379 -0.1628  0.1667 -0.2558
11249TIP3   OH255161   1.336   6.367  17.305  0.0424  0.2193  0.1533
11249TIP3    H155162   1.283   6.419  17.365 -0.0814  0.9089 -0.5452
11249TIP3    H255163   1.325   6.277  17.336  0.8028  0.6591  1.7877
11250TIP3   OH255164   6.534   1.235  11.346 -0.3089  0.0149 -0.5533
11250TIP3    H155165   6.534   1.144  11.315  0.0175 -0.0554 -0.3519
11250TIP3    H255166   6.530   1.228  11.441  0.2455  0.1963 -0.5103
11251TIP3   OH255167   1.172   0.474   5.974 -0.1785 -0.2362  0.0538
11251TIP3    H155168   1.157   0.500   6.065  1.2903 -0.7842  0.4821
11251TIP3    H255169   1.256   0.515   5.952 -0.1603 -0.7310 -0.8092
11252TIP3   OH255170   0.394   0.115  16.869 -0.3741 -0.6136  0.2978
11252TIP3    H155171   0.468   0.176  16.858 -0.3896 -0.5904  0.3235
11252TIP3    H255172   0.398   0.059  16.791 -0.6830 -0.2369  0.0115
11253TIP3   OH255173   0.046   0.994   2.527 -0.3678 -0.0377 -0.2908
11253TIP3    H155174   0.025   0.989   2.620  1.4491  0.5525  0.1979
11253TIP3    H255175   0.073   1.085   2.514 -3.3004  0.7081 -2.0605
11254TIP3   OH255176   4.506   4.503   2.354  0.6630  0.4140  0.7063
11254TIP3    H155177   4.415   4.530   2.369 -0.0342 -1.8750  0.9877
11254TIP3    H255178   4.532   4.549   2.274 -1.4523 -0.4121 -0.5355
11255TIP3   OH255179   2.334   6.196   5.978  0.1480 -0.0056  0.3967
11255TIP3    H155180   2.365   6.273   5.930 -1.4485  0.5180  0.1453
11255TIP3    H255181   2.345   6.219   6.070  1.1616 -0.1332  0.3186
11256TIP3   OH255182   0.776   3.996  11.328  0.3727  0.0624 -0.4063
11256TIP3    H155183   0.855   3.942  11.337 -0.7807 -1.4986  1.0869
11256TIP3    H255184   0.707   3.933  11.305 -0.0157  1.7338 -4.8608
11257TIP3   OH255185   5.239   2.917   6.039  0.2146  0.1112  0.0909
11257TIP3    H155186   5.148   2.943   6.026  0.0506 -1.1034 -1.4545
11257TIP3    H255187   5.287   3.000   6.040 -0.4282  0.6786 -3.3791
11258TIP3   OH255188   5.446   4.035   4.602  0.3087 -0.4582 -0.1450
11258TIP3    H155189   5.422   4.127   4.606 -3.7729 -1.2174 -2.1977
11258TIP3    H255190   5.533   4.031   4.641  2.5571  4.8445 -3.5272
11259TIP3   OH255191   3.586   5.420  14.586  0.3378 -0.5461  0.3542
11259TIP3    H155192   3.630   5.449  14.665 -1.6711  2.2595  0.6094
11259TIP3    H255193   3.540   5.340  14.611 -0.5793  0.4949  2.2243
11260TIP3   OH255194   0.689   4.057  14.461 -0.1930 -0.2706 -0.1274
11260TIP3    H155195   0.741   4.113  14.404 -1.5896  1.3947  0.1525
11260TIP3    H255196   0.600   4.061  14.425 -0.6580 -0.9440  0.8794
11261TIP3   OH255197   6.411   3.289   2.721 -0.6433  1.0452 -0.7463
11261TIP3    H155198   6.338   3.267   2.779 -0.8401  1.2255 -0.9297
11261TIP3    H255199   6.489   3.266   2.773 -0.8195 -1.6691 -1.5024
11262TIP3   OH255200   4.261   4.047  13.386  0.1381 -0.2189 -0.3565
11262TIP3    H155201   4.238   3.956  13.405 -1.1052  0.3742  1.3036
11262TIP3    H255202   4.184   4.082  13.342  0.3297  0.2055 -0.3586
11263TIP3   OH255203   3.066   0.455   4.777 -0.1465  0.0638  0.0727
11263TIP3    H155204   3.086   0.364   4.800 -1.1817  0.0464  1.0224
11263TIP3    H255205   3.144   0.486   4.731  0.2778 -1.2558 -0.1421
11264TIP3   OH255206   1.766   6.477  13.456  0.0849  0.3639  0.1035
11264TIP3    H155207   1.787   6.499  13.365  0.3232 -0.6111 -0.0830
11264TIP3    H255208   1.850   6.476  13.501  0.4974 -3.0816 -0.5453
11265TIP3   OH255209   2.393   1.574  12.726  0.2855  0.2806  1.0451
11265TIP3    H155210   2.313   1.565  12.779 -0.0685 -2.0710  0.2050
11265TIP3    H255211   2.444   1.496  12.746  0.0959 -0.7730 -2.0438
11266TIP3   OH255212   5.914   6.302   4.234 -0.4786 -0.0281  0.2021
11266TIP3    H155213   5.888   6.263   4.317 -0.2985  0.8488  0.6779
11266TIP3    H255214   6.003   6.269   4.219 -0.2749  0.3023  0.6701
11267TIP3   OH255215   2.564   3.058  10.914 -0.2909  0.2005 -0.1976
11267TIP3    H155216   2.498   3.038  10.848 -0.1163 -0.4375 -0.1877
11267TIP3    H255217   2.533   3.016  10.994  0.1595 -0.1835 -0.2151
11268TIP3   OH255218   3.648   6.377  15.061 -0.2423 -0.1965 -0.2094
11268TIP3    H155219   3.598   6.445  15.106 -0.9659 -0.8518 -0.0071
11268TIP3    H255220   3.678   6.319  15.132  0.3937 -0.0803 -0.3780
11269TIP3   OH255221   5.653   4.594   2.562 -0.0404 -0.2106  0.1566
11269TIP3    H155222   5.605   4.676   2.559  1.7115  0.8849  0.3321
11269TIP3    H255223   5.607   4.541   2.627 -2.0912 -0.0011 -1.0661
11270TIP3   OH255224   6.390   1.992  15.347  0.7408  0.0209  0.6403
11270TIP3    H155225   6.385   1.919  15.409 -0.9377  0.8166  1.5028
11270TIP3    H255226   6.373   1.952  15.262 -0.2597 -0.6154  1.1148
11271TIP3   OH255227   6.404   1.425   4.593  0.5432  0.2438  0.2730
11271TIP3    H155228   6.314   1.445   4.566  1.4239  0.6697 -2.7514
11271TIP3    H255229   6.430   1.500   4.647  0.1105  1.8306 -1.6102
11272TIP3   OH255230   6.361   1.603   2.098  0.3750  0.2466 -0.0498
11272TIP3    H155231   6.315   1.527   2.133  1.1376 -0.7699 -1.1882
11272TIP3    H255232   6.298   1.644   2.039  1.2786 -1.9660 -2.7466
11273TIP3   OH255233   4.165   0.511   0.383  0.1522 -0.3824 -0.8106
11273TIP3    H155234   4.105   0.583   0.364 -1.1649 -1.0303  0.5808
11273TIP3    H255235   4.113   0.432   0.367  1.0601 -0.9931 -0.8314
11274TIP3   OH255236   1.761   0.149  17.153  0.1486 -0.2807  0.1925
11274TIP3    H155237   1.791   0.065  17.188  0.9604 -0.0696  0.0262
11274TIP3    H255238   1.760   0.137  17.058  0.3135 -0.0884  0.1669
11275TIP3   OH255239   0.825   3.704  14.036  0.1066 -0.0053 -0.4250
11275TIP3    H155240   0.752   3.742  13.987 -0.7054  1.1718  1.6208
11275TIP3    H255241   0.784   3.639  14.093  0.8084 -0.0737  0.0039
11276TIP3   OH255242   0.853   2.965  15.728  0.0244 -0.6043 -0.0331
11276TIP3    H155243   0.886   3.003  15.810  0.1238 -0.3325 -0.2001
11276TIP3    H255244   0.798   3.034  15.691 -1.6245 -1.4162  0.7770
11277TIP3   OH255245   5.163   0.581  16.892  0.6062  0.0188 -0.1539
11277TIP3    H155246   5.102   0.539  16.830 -1.6726 -0.3734  2.1633
11277TIP3    H255247   5.239   0.523  16.894  0.4865 -0.2655 -2.1219
11278TIP3   OH255248   3.652   6.621   2.825  0.1886  0.1724  0.1296
11278TIP3    H155249   3.562   6.651   2.833 -0.8657 -2.9479  1.4241
11278TIP3    H255250   3.673   6.632   2.732 -1.4407  1.1199 -0.1501
11279TIP3   OH255251   4.425   2.898   4.233  0.0652  0.6078 -0.0993
11279TIP3    H155252   4.490   2.928   4.170  2.2147 -0.2557  1.5639
11279TIP3    H255253   4.411   2.806   4.213 -1.9528  1.1318 -1.4298
11280TIP3   OH255254   5.195   6.209  13.794  0.0044 -0.3656  0.3810
11280TIP3    H155255   5.104   6.193  13.818 -0.0380  0.2929  0.6871
11280TIP3    H255256   5.234   6.248  13.872  0.3705  0.0017  0.0190
11281TIP3   OH255257   1.944   2.963   1.857 -0.2883 -0.7668  0.0121
11281TIP3    H155258   2.010   2.895   1.871  1.6928  1.1314  0.4128
11281TIP3    H255259   1.956   2.990   1.766 -0.1043 -0.0201  0.2524
11282TIP3   OH255260   0.986   0.029   5.539 -0.5419  0.0862  0.1480
11282TIP3    H155261   1.017  -0.058   5.516 -0.1696  0.6878 -1.8513
11282TIP3    H255262   1.060   0.087   5.519 -0.9806  0.9372  0.8952
11283TIP3   OH255263   2.846   0.280   0.033 -0.2547  0.4303  0.0604
11283TIP3    H155264   2.765   0.331   0.029 -0.2055  0.4624 -0.5836
11283TIP3    H255265   2.913   0.343   0.060 -0.5046  0.3260  0.9445
11284TIP3   OH255266   0.966   0.566   1.363  0.2213 -0.2350 -0.2372
11284TIP3    H155267   0.939   0.517   1.440 -2.8878 -1.5068 -1.9368
11284TIP3    H255268   1.049   0.526   1.336 -0.3079 -1.9912  0.6134
11285TIP3   OH255269   3.081   3.485   2.983 -0.0020  0.2936  0.3763
11285TIP3    H155270   3.040   3.567   2.955 -0.1367 -0.3140 -1.3334
11285TIP3    H255271   3.144   3.511   3.050  0.3812  1.8799 -0.5516
11286TIP3   OH255272   3.208   6.230   0.614  0.2197 -0.2772  0.1599
11286TIP3    H155273   3.282   6.205   0.559 -0.5585 -0.5034 -0.8021
11286TIP3    H255274   3.139   6.256   0.553 -0.3891  0.2533  1.0477
11287TIP3   OH255275   4.292   5.651  11.936  0.7729  0.0418  0.0439
11287TIP3    H155276   4.329   5.587  11.996  0.4007 -1.3737 -1.1656
11287TIP3    H255277   4.306   5.614  11.849  2.0219  2.4019 -0.8513
11288TIP3   OH255278   2.634   4.751   3.986 -0.0327 -0.2998  0.3918
11288TIP3    H155279   2.704   4.815   3.973 -1.1832  0.5284 -2.5358
11288TIP3    H255280   2.658   4.706   4.067  2.8655  1.2077  0.5207
11289TIP3   OH255281   4.262   4.383  16.823 -0.2689  0.2584  0.4017
11289TIP3    H155282   4.294   4.296  16.850 -0.8323 -0.6291 -1.5875
11289TIP3    H255283   4.272   4.437  16.902  1.2955 -1.2625  1.3489
11290TIP3   OH255284   0.946   5.256   4.709  0.0161  0.1158  0.6036
11290TIP3    H155285   0.891   5.322   4.668 -2.1659 -1.1791  1.2404
11290TIP3    H255286   0.968   5.195   4.638 -0.2716  0.0845  0.5394
11291TIP3   OH255287   1.893   2.621   1.899  0.4324 -0.4814 -0.6175
11291TIP3    H155288   1.801   2.614   1.923  0.6199 -0.0581  0.2540
11291TIP3    H255289   1.892   2.669   1.816 -0.0180  2.0119  0.7253
11292TIP3   OH255290   1.863   4.342   1.092  0.6365 -0.2784  0.3280
11292TIP3    H155291   1.883   4.433   1.070  0.7832 -0.4021 -0.0735
11292TIP3    H255292   1.942   4.293   1.067  1.0086 -0.3672  1.6312
11293TIP3   OH255293   6.454   2.597  13.545 -0.3162 -0.1091 -0.0947
11293TIP3    H155294   6.509   2.531  13.503  1.7583  2.0298 -0.9811
11293TIP3    H255295   6.452   2.670  13.482 -2.5188  0.6894  0.8112
11294TIP3   OH255296   5.832   1.457   1.128  0.0380 -0.7649  0.5895
11294TIP3    H155297   5.871   1.370   1.119  0.8681 -0.3486 -0.0229
11294TIP3    H255298   5.802   1.478   1.040 -1.2118 -0.8924  0.9642
11295TIP3   OH255299   2.959   6.562   4.211  0.3728  0.2996 -0.5119
11295TIP3    H155300   3.012   6.625   4.260 -0.5029  1.5375 -1.1018
11295TIP3    H255301   2.979   6.579   4.119  0.3845 -0.5393 -0.6731
11296TIP3   OH255302   4.743   5.139   1.112 -0.9898  0.2839 -0.4280
11296TIP3    H155303   4.676   5.096   1.059 -2.1132  1.9667 -0.4639
11296TIP3    H255304   4.700   5.157   1.196  1.3636 -4.1957  2.0817
11297TIP3   OH255305   2.293   2.244   1.366 -0.2701 -0.0743  0.1938
11297TIP3    H155306   2.297   2.306   1.293 -0.3218 -1.0594 -0.6693
11297TIP3    H255307   2.374   2.258   1.414  0.2736 -0.1671 -0.6797
11298TIP3   OH255308   4.025   1.166   5.590 -0.0004 -0.5297 -0.3676
11298TIP3    H155309   3.941   1.141   5.629  0.5825  0.6435  1.8114
11298TIP3    H255310   4.089   1.111   5.635  0.6515  0.4972 -0.0107
11299TIP3   OH255311   3.927   5.859  16.526  0.8849 -0.1895  0.4025
11299TIP3    H155312   3.973   5.829  16.605  0.9824  0.5446  0.6311
11299TIP3    H255313   3.924   5.954  16.535 -0.9283 -0.2227  0.5521
11300TIP3   OH255314   2.661   1.793   4.519 -0.1903 -0.0242  0.1035
11300TIP3    H155315   2.630   1.711   4.557  1.6609 -0.2335  1.2787
11300TIP3    H255316   2.753   1.776   4.497 -0.4824  0.9091 -2.1770
11301TIP3   OH255317   1.672   6.625  14.046  0.3068  0.3787  0.1452
11301TIP3    H155318   1.586   6.667  14.048  0.1759  0.1186  0.0082
11301TIP3    H255319   1.665   6.558  13.978 -0.2460 -1.4299  1.8677
11302TIP3   OH255320   3.748   6.486   6.490  0.7044  0.3389  0.3441
11302TIP3    H155321   3.826   6.538   6.469  1.4983 -0.5934  0.8544
11302TIP3    H255322   3.782   6.397   6.503 -0.2107  0.2009  2.0785
11303TIP3   OH255323   1.136   3.791   0.050  0.0655 -0.1623 -0.1007
11303TIP3    H155324   1.120   3.699   0.071  0.2206 -0.3925 -0.9558
11303TIP3    H255325   1.224   3.793   0.012 -0.8288 -0.0623 -2.3269
11304TIP3   OH255326   1.599   4.972   3.120 -0.2931 -0.2726  0.0252
11304TIP3    H155327   1.633   5.060   3.137 -2.1490  1.2313 -3.0852
11304TIP3    H255328   1.558   4.946   3.202  0.3884  1.7328  1.0797
11305TIP3   OH255329   1.120   2.526  14.389  0.3895  0.5430 -0.5070
11305TIP3    H155330   1.123   2.443  14.436 -1.6486  0.1557 -0.9732
11305TIP3    H255331   1.208   2.535  14.350  1.5598  0.0249  1.8402
11306TIP3   OH255332   5.443   0.009  13.569 -0.1016  0.0637 -0.1044
11306TIP3    H155333   5.516  -0.046  13.600 -0.1409  0.5955  0.9897
11306TIP3    H255334   5.462   0.095  13.605 -3.3967 -0.6077  4.0458
11307TIP3   OH255335   5.614   3.854  16.190  0.4154  0.6869 -0.0914
11307TIP3    H155336   5.689   3.884  16.241 -0.0160  0.4886  0.6707
11307TIP3    H255337   5.555   3.814  16.254  0.7752 -1.4347 -1.0013
11308TIP3   OH255338   3.608   2.350   6.443 -0.4554 -0.2020  0.1443
11308TIP3    H155339   3.690   2.397   6.435  0.4936 -1.8171 -0.1218
11308TIP3    H255340   3.581   2.363   6.534  1.1263 -1.2340  0.7966
11309TIP3   OH255341   3.421   4.191   3.337  0.5795 -0.0854  0.4277
11309TIP3    H155342   3.472   4.222   3.262 -0.2259  1.7008  0.5879
11309TIP3    H255343   3.457   4.239   3.412 -0.3718  0.1294  0.7611
11310TIP3   OH255344   6.305   4.212  17.002  0.1685 -0.4462 -0.5103
11310TIP3    H155345   6.274   4.168  17.081 -0.9681 -0.7810 -1.1212
11310TIP3    H255346   6.397   4.233  17.021  0.4081 -2.0110  0.2538
11311TIP3   OH255347   3.046   3.737   0.128 -0.3995 -0.5405 -0.0255
11311TIP3    H155348   2.973   3.675   0.125  1.1580 -2.5384  0.6785
11311TIP3    H255349   3.046   3.770   0.217  1.0626 -2.6141  0.8330
11312TIP3   OH255350   5.006   6.375  16.706  0.5865  0.6272 -0.4775
11312TIP3    H155351   5.043   6.312  16.645  0.9179 -0.4480  0.7784
11312TIP3    H255352   5.044   6.459  16.680  3.1897 -0.2750  0.1214
11313TIP3   OH255353   6.062   4.344   1.056 -0.1210 -0.4436  0.0570
11313TIP3    H155354   6.088   4.252   1.050  0.7666 -0.1751 -0.4140
11313TIP3    H255355   5.967   4.343   1.043  0.0084 -1.1979 -0.9663
11314TIP3   OH255356   6.671   1.021  13.043 -0.2389  0.0854 -0.2927
11314TIP3    H155357   6.720   1.035  12.962 -0.1457 -0.4295 -0.3297
11314TIP3    H255358   6.583   1.053  13.024 -0.4056 -0.6645 -0.8258
11315TIP3   OH255359   3.433   5.625  17.275  0.4903 -0.4434  0.2906
11315TIP3    H155360   3.487   5.616  17.353  1.1036  1.6750  0.1770
11315TIP3    H255361   3.345   5.603  17.304  0.9046 -0.9142  1.2459
11316TIP3   OH255362   5.231   0.545  10.740  0.0187 -0.1389  0.1312
11316TIP3    H155363   5.315   0.508  10.769 -0.8736 -0.0590  3.2395
11316TIP3    H255364   5.224   0.521  10.648  3.1306 -0.7145 -0.0490
11317TIP3   OH255365   6.673   2.944   1.682  0.6171  0.0488 -0.2031
11317TIP3    H155366   6.743   2.955   1.747  0.8233  1.0330 -0.5677
11317TIP3    H255367   6.608   3.011   1.706 -0.0166 -0.5945 -0.1077
11318TIP3   OH255368   6.005   5.751  15.189  0.3907  0.2532 -0.2468
11318TIP3    H155369   5.949   5.721  15.118 -0.7154 -0.1133  0.7372
11318TIP3    H255370   6.086   5.780  15.146 -0.5901  0.9098 -1.7225
11319TIP3   OH255371   4.069   1.746  11.644  0.2737 -0.2364 -0.1256
11319TIP3    H155372   4.018   1.718  11.568 -1.3040  4.0553 -0.8885
11319TIP3    H255373   4.157   1.763  11.610  0.3615 -0.9955 -0.3068
11320TIP3   OH255374   3.563   3.870   3.006 -0.5014 -0.1019 -0.7177
11320TIP3    H155375   3.506   3.943   2.982  1.0730  0.4145 -3.2570
11320TIP3    H255376   3.599   3.894   3.091 -2.6375  0.3864  0.1116
11321TIP3   OH255377   0.914   3.426  16.053 -0.8957  0.4430 -0.4043
11321TIP3    H155378   0.832   3.467  16.079 -0.1917  0.8951  1.2145
11321TIP3    H255379   0.910   3.338  16.089 -0.1399  0.9003  0.8648
11322TIP3   OH255380   6.377   4.128   6.721  0.9376  0.1253 -0.4640
11322TIP3    H155381   6.374   4.153   6.629  1.6040  0.4656 -0.3967
11322TIP3    H255382   6.467   4.098   6.735  0.7084 -0.3768 -0.0416
11323TIP3   OH255383   2.301   6.176  11.506 -0.1500  0.3453  1.0675
11323TIP3    H155384   2.333   6.114  11.440 -1.3940  1.8067 -1.0072
11323TIP3    H255385   2.258   6.120  11.571 -0.7135 -1.0453 -0.4181
11324TIP3   OH255386   2.479   0.834  14.682 -0.1233 -0.0308 -0.1468
11324TIP3    H155387   2.449   0.869  14.766  0.2919  2.9033 -1.0778
11324TIP3    H255388   2.557   0.783  14.703  1.5628  2.8141  1.1031
11325TIP3   OH255389   1.416   0.620   1.649  0.4074  0.0360  0.1748
11325TIP3    H155390   1.401   0.591   1.559  1.4434 -2.6812  0.7945
11325TIP3    H255391   1.328   0.633   1.685 -0.0885 -1.2585 -0.5234
11326TIP3   OH255392   3.106   4.509  13.676  0.4599  0.5861  0.3748
11326TIP3    H155393   3.129   4.498  13.584 -1.0772  2.1562 -0.2627
11326TIP3    H255394   3.187   4.536  13.718  1.8494 -2.6459  0.0814
11327TIP3   OH255395   2.984   6.058  12.233  0.2264  0.0968  0.1035
11327TIP3    H155396   3.036   6.137  12.225  1.4776 -0.8392 -1.8310
11327TIP3    H255397   2.976   6.043  12.327  3.6018  0.2291  0.5008
11328TIP3   OH255398   1.013   1.236  10.493  0.0926  0.4441  0.5964
11328TIP3    H155399   1.056   1.282  10.565  0.3750 -0.7383  1.2039
11328TIP3    H255400   1.058   1.152  10.488  0.2823  0.6032 -1.1639
11329TIP3   OH255401   4.312   0.469   6.998 -0.4850 -0.1326 -0.6013
11329TIP3    H155402   4.278   0.529   7.064  0.0632 -0.9197  0.4321
11329TIP3    H255403   4.382   0.518   6.955 -0.1842  0.0615  0.0882
11330TIP3   OH255404   0.919   6.487   3.958 -0.3462  0.3908  0.1428
11330TIP3    H155405   0.824   6.483   3.971 -0.7223 -0.0355 -2.1861
11330TIP3    H255406   0.939   6.581   3.953 -1.4382  0.5945 -3.4543
11331TIP3   OH255407   2.808   1.793   1.392 -0.2851  0.3029 -0.7726
11331TIP3    H155408   2.754   1.715   1.402  0.7259 -0.3784 -0.5393
11331TIP3    H255409   2.891   1.771   1.434  0.2287  1.2853 -1.2408
11332TIP3   OH255410   0.234   4.533   2.429  0.0603  0.1503 -0.0329
11332TIP3    H155411   0.187   4.467   2.378 -0.8301  0.0061  0.9508
11332TIP3    H255412   0.278   4.587   2.363 -0.9106 -0.1386 -0.9482
11333TIP3   OH255413   0.407   5.558   1.331 -0.4666 -0.0041  0.1431
11333TIP3    H155414   0.391   5.479   1.279  0.2863 -2.2395  3.0306
11333TIP3    H255415   0.320   5.596   1.344 -0.7782  0.0487 -1.7642
11334TIP3   OH255416   4.961   5.000   2.518 -0.3323 -0.1117 -0.1252
11334TIP3    H155417   4.973   4.942   2.593  0.8927 -1.3249 -1.1950
11334TIP3    H255418   5.038   5.057   2.519 -0.5722  0.2165 -0.1718
11335TIP3   OH255419   1.628   1.726  11.614  0.4776  0.2842 -0.0274
11335TIP3    H155420   1.578   1.767  11.684  1.6552  1.0573  0.3758
11335TIP3    H255421   1.716   1.761  11.623  0.6710  0.3324 -1.8574
11336TIP3   OH255422   4.724   3.189  11.321  0.1839  0.3103  0.1386
11336TIP3    H155423   4.650   3.249  11.310 -1.3769 -1.2257  1.7061
11336TIP3    H255424   4.767   3.189  11.235 -2.7340 -0.1292 -1.4781
11337TIP3   OH255425   5.496   5.093  14.361 -0.2254  0.2486  0.3560
11337TIP3    H155426   5.521   5.052  14.444 -2.3128 -0.1836  0.8271
11337TIP3    H255427   5.430   5.158  14.385  0.2290  1.1793 -0.8229
11338TIP3   OH255428   2.587   3.428   3.714  0.1840 -0.0549  0.1882
11338TIP3    H155429   2.604   3.362   3.782 -0.3127 -1.3105 -0.8625
11338TIP3    H255430   2.496   3.412   3.689  0.2305  0.6794 -0.4675
11339TIP3   OH255431   0.583   0.212   0.039 -0.2387 -0.1239 -0.2457
11339TIP3    H155432   0.663   0.240   0.083 -0.8804  1.8314 -0.1973
11339TIP3    H255433   0.517   0.209   0.109 -0.8395  1.1722 -0.7206
11340TIP3   OH255434   2.017   4.561   2.053 -0.0291  0.4547  0.5374
11340TIP3    H155435   2.000   4.520   1.968 -0.0110  2.5573 -0.5723
11340TIP3    H255436   2.103   4.601   2.043 -0.3837  1.4396  1.2081
11341TIP3   OH255437   3.016   2.975  17.323  0.3304  0.1648  0.0329
11341TIP3    H155438   3.049   2.891  17.290 -0.9464 -1.1427  1.8854
11341TIP3    H255439   3.071   2.993  17.400  0.8668  1.2749 -0.5845
11342TIP3   OH255440   5.527   6.125   1.002 -0.3378 -0.0484  0.3172
11342TIP3    H155441   5.523   6.036   0.967 -0.1774 -0.4820  1.3785
11342TIP3    H255442   5.461   6.174   0.952 -1.2526 -1.0460  0.5223
11343TIP3   OH255443   1.863   5.885   0.637  0.0163  0.0397  0.0012
11343TIP3    H155444   1.840   5.976   0.619  0.3604 -0.2781 -2.5045
11343TIP3    H255445   1.784   5.835   0.616  0.2336 -0.3395  0.0598
11344TIP3   OH255446   0.588   5.935   2.849  0.3049 -0.1425 -0.3453
11344TIP3    H155447   0.560   5.937   2.940  1.2395  0.5213 -0.0648
11344TIP3    H255448   0.579   6.025   2.818  1.3804 -0.0665 -0.4699
11345TIP3   OH255449   2.953   6.734   5.392 -0.0779 -0.3764  0.4888
11345TIP3    H155450   2.942   6.650   5.436 -2.0897 -1.1581 -1.3385
11345TIP3    H255451   2.864   6.761   5.369  0.6230  1.6821 -0.0615
11346TIP3   OH255452   2.898   0.603   6.640 -0.2978 -0.2540 -0.0381
11346TIP3    H155453   2.959   0.547   6.688 -1.0568 -0.1332  1.0937
11346TIP3    H255454   2.855   0.544   6.578  2.2248 -0.0296 -2.2195
11347TIP3   OH255455   2.282   5.033  11.437 -0.1861 -0.4222  0.1193
11347TIP3    H155456   2.325   4.954  11.405  0.7578 -0.5505  1.6146
11347TIP3    H255457   2.203   5.001  11.482  0.5414 -0.6065  1.3068
11348TIP3   OH255458   1.136   3.633   4.589 -0.0450 -0.1069 -0.5214
11348TIP3    H155459   1.176   3.557   4.632 -1.2765 -0.2215  0.4789
11348TIP3    H255460   1.189   3.646   4.510  0.9791 -1.2016 -0.0546
11349TIP3   OH255461   0.021   5.164  12.168 -0.2558  0.3840 -0.0131
11349TIP3    H155462  -0.069   5.144  12.192  0.1135  1.1207  2.2141
11349TIP3    H255463   0.041   5.245  12.215  1.3068  0.7099 -1.1456
11350TIP3   OH255464   5.111   4.599  15.551  0.2272  0.4606  0.2807
11350TIP3    H155465   5.133   4.514  15.588 -2.3779  0.2503  1.5522
11350TIP3    H255466   5.095   4.582  15.458 -1.9015 -0.8543  0.8136
11351TIP3   OH255467   0.910   4.485   0.240  0.3350 -0.5527 -0.0525
11351TIP3    H155468   0.893   4.393   0.262  0.3479 -1.0506 -1.9103
11351TIP3    H255469   0.826   4.517   0.207  0.7246 -0.4135 -0.9515
11352TIP3   OH255470   0.829   5.224   2.602 -0.2823  0.1344 -0.0431
11352TIP3    H155471   0.803   5.294   2.661 -0.3040 -0.6010  0.8527
11352TIP3    H255472   0.922   5.212   2.620 -0.1115  0.4247 -0.7243
11353TIP3   OH255473   2.204   6.379   3.464  0.5682  0.4774  0.0074
11353TIP3    H155474   2.117   6.340   3.463  0.4742  0.6922 -0.6297
11353TIP3    H255475   2.189   6.472   3.449  0.7523  0.8732  1.9827
11354TIP3   OH255476   6.207   4.851   1.923  0.7661  0.5778  0.6524
11354TIP3    H155477   6.295   4.815   1.912  0.7337 -0.4895  3.2308
11354TIP3    H255478   6.149   4.776   1.911  0.2617  1.0550  0.0406
11355TIP3   OH255479   5.308   2.679   2.224  0.1647  0.1139  0.1607
11355TIP3    H155480   5.237   2.737   2.198  0.8306  0.8325 -0.0968
11355TIP3    H255481   5.304   2.607   2.162 -1.8851 -1.1550  1.6499
11356TIP3   OH255482   5.465   5.188   3.286 -0.0343  0.3563  0.8620
11356TIP3    H155483   5.528   5.224   3.349 -0.1536 -0.3105  1.3753
11356TIP3    H255484   5.393   5.252   3.285  0.0701  0.4842  1.2422
11357TIP3   OH255485   1.277   0.457   0.434 -0.2304  0.3078  0.2218
11357TIP3    H155486   1.256   0.486   0.346 -0.4714  0.2260  0.2510
11357TIP3    H255487   1.277   0.537   0.487  0.3804  0.4199  0.0631
11358TIP3   OH255488   0.448   3.174   3.728  0.3148  0.4132  0.0857
11358TIP3    H155489   0.473   3.116   3.799  0.6472  0.6156  0.1329
11358TIP3    H255490   0.521   3.171   3.667  0.8842  1.7206  0.6600
11359TIP3   OH255491   3.453   1.480  12.903  0.1407  0.0877 -0.1443
11359TIP3    H155492   3.534   1.475  12.954 -0.6236 -1.7386  0.9532
11359TIP3    H255493   3.482   1.514  12.818  1.5955  2.2491  1.0883
11360TIP3   OH255494   0.504   3.580   3.541 -0.5527 -0.1544 -0.4044
11360TIP3    H155495   0.482   3.518   3.472  1.8925 -0.5859 -0.9081
11360TIP3    H255496   0.483   3.535   3.623 -1.6954 -0.3874 -0.8126
11361TIP3   OH255497   0.294   4.948  10.897  0.1379 -0.3443 -0.5433
11361TIP3    H155498   0.240   4.951  10.818  0.9920 -1.6262 -1.2101
11361TIP3    H255499   0.320   4.856  10.905 -2.0257 -0.8430  2.6904
11362TIP3   OH255500   5.180   3.840  17.249  0.5725  0.0836  0.7965
11362TIP3    H155501   5.138   3.882  17.175 -0.4676 -3.0289 -0.5241
11362TIP3    H255502   5.109   3.824  17.312  0.3610 -1.9981  0.0993
11363TIP3   OH255503   1.846   3.482  14.541 -0.1826 -0.3254 -0.3167
11363TIP3    H155504   1.796   3.514  14.617  0.7972  0.5292 -0.0057
11363TIP3    H255505   1.854   3.558  14.484  1.8198 -0.0535  0.2332
11364TIP3   OH255506   0.540   2.755  14.182 -0.0707  0.1037  0.3302
11364TIP3    H155507   0.552   2.701  14.104 -0.5590 -0.4581  0.6386
11364TIP3    H255508   0.460   2.805  14.165  0.8310  1.3956 -0.3183
11365TIP3   OH255509   4.690   2.986   3.001  0.8280  0.1576  0.4247
11365TIP3    H155510   4.698   2.919   2.933  0.2242  0.8376 -0.3467
11365TIP3    H255511   4.600   3.017   2.994  0.5371 -0.2357  2.0209
11366TIP3   OH255512   3.130   0.152  16.889  0.2563 -0.0145  0.0284
11366TIP3    H155513   3.058   0.210  16.912  1.2935  1.0351  0.7609
11366TIP3    H255514   3.131   0.152  16.793 -0.2306  0.5929  0.0200
11367TIP3   OH255515   6.054   2.391  15.452 -0.7317 -0.5035 -0.0600
11367TIP3    H155516   6.149   2.400  15.463 -0.6632  0.3612 -1.1900
11367TIP3    H255517   6.041   2.300  15.426 -0.3103 -0.8699  0.9413
11368TIP3   OH255518   4.126   3.770   3.149 -0.2500  0.8093  0.2589
11368TIP3    H155519   4.068   3.728   3.213  1.6570 -1.5378  0.5982
11368TIP3    H255520   4.145   3.856   3.186  0.0705 -0.1385  2.4596
11369TIP3   OH255521   1.970   1.141   2.188  0.2576  0.3849 -0.0633
11369TIP3    H155522   1.882   1.105   2.195  0.3539  0.4625  2.1492
11369TIP3    H255523   2.027   1.065   2.176  0.0241  0.2220 -0.1385
11370TIP3   OH255524   6.408   3.736   2.232  0.1762  0.0778  0.1713
11370TIP3    H155525   6.346   3.664   2.227  0.8995 -0.4566 -2.4202
11370TIP3    H255526   6.383   3.795   2.162  0.5765  1.5920  1.2487
11371TIP3   OH255527   6.725   4.967   3.988  0.3976  0.8017  0.0175
11371TIP3    H155528   6.803   5.004   4.029  0.7013  0.4172 -0.2143
11371TIP3    H255529   6.738   4.979   3.894 -0.6552  2.4040  0.0331
11372TIP3   OH255530   3.619   3.993  16.948  0.5321  0.3646  0.2087
11372TIP3    H155531   3.621   3.923  16.882 -2.8304  0.9130 -0.6401
11372TIP3    H255532   3.645   3.949  17.029 -1.6451 -2.0176 -0.2479
11373TIP3   OH255533   1.588   3.547  13.369 -0.2396  0.7600  0.2435
11373TIP3    H155534   1.656   3.526  13.433 -0.1599 -0.8719 -0.3393
11373TIP3    H255535   1.582   3.469  13.314 -2.2722  1.0454 -0.0022
11374TIP3   OH255536   1.342   5.218  13.195  0.4692 -0.4389 -0.5092
11374TIP3    H155537   1.335   5.168  13.276 -0.6348  0.9297  0.2903
11374TIP3    H255538   1.252   5.237  13.170  0.7847  2.7847  0.3324
11375TIP3   OH255539   4.860   3.093  12.974  0.1441  0.0246  0.3212
11375TIP3    H155540   4.798   3.059  12.909  1.5239 -0.1278 -1.0006
11375TIP3    H255541   4.815   3.084  13.058 -0.9198 -1.7755 -0.3745
11376TIP3   OH255542   4.400   4.381   4.893  0.3084  0.3215 -0.1255
11376TIP3    H155543   4.347   4.350   4.967  0.0600  1.1361  0.0501
11376TIP3    H255544   4.398   4.309   4.830 -1.6132  0.5981 -0.4390
11377TIP3   OH255545   0.268   5.020  13.816 -0.6163 -0.1109 -0.0920
11377TIP3    H155546   0.233   5.104  13.786 -0.0009 -0.3852 -1.6309
11377TIP3    H255547   0.362   5.037  13.829 -0.8673  0.0510  1.9551
11378TIP3   OH255548   3.632   5.100   1.298 -0.0825  0.2434 -0.0147
11378TIP3    H155549   3.616   5.164   1.229 -2.3373  1.3922  1.4170
11378TIP3    H255550   3.573   5.027   1.277  2.5610 -1.5550 -1.7023
11379TIP3   OH255551   5.853   6.046  14.882 -0.4935  0.4338 -0.0390
11379TIP3    H155552   5.919   6.019  14.818  1.1232  0.3574  1.5811
11379TIP3    H255553   5.822   5.964  14.920 -0.6028  0.5300  0.0791
11380TIP3   OH255554   4.705   3.881  16.309 -0.2888  0.4057  0.1549
11380TIP3    H155555   4.776   3.940  16.284  2.1596 -3.2161 -2.3419
11380TIP3    H255556   4.721   3.861  16.401  1.0415  0.7989  0.0233
11381TIP3   OH255557   1.793   0.872  13.147 -0.7168  0.0717  0.1342
11381TIP3    H155558   1.731   0.829  13.088 -2.7597 -0.5743  2.5422
11381TIP3    H255559   1.738   0.930  13.201  0.7969 -0.2064  2.1065
11382TIP3   OH255560   3.628   6.514   2.571  0.5129 -0.3457 -0.6398
11382TIP3    H155561   3.595   6.491   2.484  0.0261 -1.1840 -0.2465
11382TIP3    H255562   3.569   6.470   2.632  0.1205  1.2257  0.1581
11383TIP3   OH255563   1.722   1.074  13.389 -0.1449  0.0986 -0.5998
11383TIP3    H155564   1.695   1.037  13.473  0.1012  1.1163 -0.0505
11383TIP3    H255565   1.651   1.051  13.329 -0.8249  0.2218  0.1288
11384TIP3   OH255566   0.807   1.713  11.257 -0.1169  0.8645 -0.2463
11384TIP3    H155567   0.847   1.724  11.170  0.8589  1.2562  0.2427
11384TIP3    H255568   0.844   1.631  11.290  1.9151  2.2119  1.0358
11385TIP3   OH255569   5.927   4.513   6.148 -0.1695 -0.1908 -0.5746
11385TIP3    H155570   5.925   4.608   6.135 -2.0696 -0.1130 -0.0255
11385TIP3    H255571   6.015   4.495   6.181 -0.4821  1.7428  1.6237
11386TIP3   OH255572   4.306   1.611   3.793  0.0389 -0.1443  0.0112
11386TIP3    H155573   4.319   1.699   3.828  1.8064 -0.1488 -0.5511
11386TIP3    H255574   4.342   1.553   3.859 -0.6686 -0.4326  0.1534
11387TIP3   OH255575   5.427   3.111  11.934 -0.3467 -0.1652 -0.0413
11387TIP3    H155576   5.347   3.112  11.986 -0.9910  0.2280 -1.0333
11387TIP3    H255577   5.451   3.019  11.928 -1.1925 -0.3602 -0.4594
11388TIP3   OH255578   4.085   4.195  13.985 -0.8918  0.0011 -0.1100
11388TIP3    H155579   4.042   4.153  13.911 -1.4182 -0.7312  0.5927
11388TIP3    H255580   4.096   4.286  13.958  1.4365 -0.7685 -2.1937
11389TIP3   OH255581   1.414   1.058  14.960 -0.4217 -0.3532 -0.0343
11389TIP3    H155582   1.449   0.969  14.955 -0.6333 -0.4244 -0.2675
11389TIP3    H255583   1.394   1.071  15.052  0.5199 -0.1949  0.1593
11390TIP3   OH255584   0.050   0.423  11.409  0.9698  0.2772 -0.9167
11390TIP3    H155585   0.123   0.418  11.347  0.8467  2.0859 -1.2662
11390TIP3    H255586   0.056   0.342  11.459  1.5607 -0.8774 -2.7415
11391TIP3   OH255587   5.822   0.629  12.405  0.2813  0.8710  0.0499
11391TIP3    H155588   5.806   0.558  12.466 -1.2626  1.5351  0.4711
11391TIP3    H255589   5.808   0.590  12.318  2.6196 -0.1059  0.0481
11392TIP3   OH255590   6.537   1.533   3.819 -0.0395 -0.0960 -0.1866
11392TIP3    H155591   6.578   1.463   3.869 -0.3167  1.2208  2.0107
11392TIP3    H255592   6.604   1.601   3.813 -0.9976  1.0355  1.2180
11393TIP3   OH255593   6.261   3.054   3.598 -0.3574 -0.0814  0.2044
11393TIP3    H155594   6.210   3.013   3.528 -1.2077 -0.4864  1.0330
11393TIP3    H255595   6.199   3.062   3.671  1.0939 -1.9115  1.7430
11394TIP3   OH255596   1.612   0.338   3.647  0.0090 -0.1166  0.4386
11394TIP3    H155597   1.598   0.350   3.553  1.1376 -0.3637  0.2218
11394TIP3    H255598   1.570   0.414   3.688  0.7851  0.7773 -0.3819
11395TIP3   OH255599   0.535   3.662   1.537 -0.0171  0.2981  0.1592
11395TIP3    H155600   0.579   3.745   1.552  1.1001 -0.3840  0.8143
11395TIP3    H255601   0.601   3.596   1.559 -0.1341 -0.7814 -2.4485
11396TIP3   OH255602   1.556   6.283   2.160 -0.1578  0.1957  0.0827
11396TIP3    H155603   1.535   6.231   2.083 -0.6073 -1.2272  1.1220
11396TIP3    H255604   1.636   6.331   2.136  2.2949 -3.4807  0.1189
11397TIP3   OH255605   1.920   2.519   3.623 -0.5235  0.0718  0.2285
11397TIP3    H155606   1.956   2.439   3.661 -0.7829 -0.1225  0.0681
11397TIP3    H255607   1.869   2.559   3.694 -0.2822  0.1678  0.3497
11398TIP3   OH255608   0.366   5.160  15.418  0.5091 -0.1369  0.4322
11398TIP3    H155609   0.423   5.223  15.462 -0.0113  0.8320 -0.2420
11398TIP3    H255610   0.421   5.121  15.350  0.4992  0.4739  0.0689
11399TIP3   OH255611   0.716   1.630   4.650 -0.4471 -0.9069 -0.2210
11399TIP3    H155612   0.652   1.606   4.717  1.5865 -1.5488  1.6068
11399TIP3    H255613   0.801   1.606   4.688  0.9884  0.8140 -2.1112
11400TIP3   OH255614   2.208   0.361   2.099  0.2369 -0.2238  0.1501
11400TIP3    H155615   2.120   0.324   2.098  0.2900 -0.3586  0.4211
11400TIP3    H255616   2.260   0.301   2.044  0.0450  0.1468 -0.4391
11401TIP3   OH255617   0.351   1.567  15.850 -0.1325 -0.3497 -0.6457
11401TIP3    H155618   0.364   1.631  15.920  2.6699 -3.4101  2.0376
11401TIP3    H255619   0.259   1.542  15.856 -0.2092  0.2661  1.2525
11402TIP3   OH255620   4.371   3.962   5.374  0.0111 -0.4181  0.8689
11402TIP3    H155621   4.389   4.034   5.434 -1.2470  1.9310 -1.3817
11402TIP3    H255622   4.430   3.977   5.300 -0.1883 -1.7995  0.4090
11403TIP3   OH255623   0.646   0.566  16.860 -0.2009 -0.2403 -0.4801
11403TIP3    H155624   0.559   0.602  16.876  0.1065  0.8292 -1.1604
11403TIP3    H255625   0.700   0.641  16.837  1.4342 -0.5708  1.9258
11404TIP3   OH255626   1.959   5.186   0.416 -0.0781 -0.1893 -0.1441
11404TIP3    H155627   1.999   5.119   0.361 -1.1042 -0.2105 -0.8935
11404TIP3    H255628   1.868   5.158   0.426 -0.3515  0.7415  0.0949
11405TIP3   OH255629   6.081   0.410   2.465  0.3409 -0.2179  0.2040
11405TIP3    H155630   6.114   0.444   2.382  1.2164 -0.0507  0.6094
11405TIP3    H255631   6.092   0.315   2.459 -1.8854 -0.4707 -0.8338
11406TIP3   OH255632   2.334   5.812  16.127 -0.0388  0.1991  0.2269
11406TIP3    H155633   2.352   5.810  16.033 -1.1618 -0.9083  0.0109
11406TIP3    H255634   2.255   5.758  16.138  0.1092  0.2470  1.8121
11407TIP3   OH255635   0.631   5.353   3.797 -0.2787 -0.0816  0.1360
11407TIP3    H155636   0.567   5.298   3.842 -1.5532  1.0061 -0.2821
11407TIP3    H255637   0.667   5.409   3.866  1.8532 -2.1008  0.7847
11408TIP3   OH255638   2.862   0.765   4.825 -0.9213  0.0252 -0.5596
11408TIP3    H155639   2.785   0.759   4.882 -0.8656  0.0826 -0.4776
11408TIP3    H255640   2.862   0.856   4.794  0.6193  0.8375  1.5887
11409TIP3   OH255641   6.185   4.901  17.218  0.3204 -0.1653  0.3814
11409TIP3    H155642   6.139   4.975  17.256 -0.7646 -0.1627 -0.8822
11409TIP3    H255643   6.246   4.940  17.155 -0.0553 -0.3132 -0.0821
11410TIP3   OH255644   0.882   3.343  13.150  0.6415 -0.1487  0.3591
11410TIP3    H155645   0.847   3.413  13.206  2.0261  0.5253  0.4446
11410TIP3    H255646   0.977   3.350  13.160  0.8520 -1.3303 -0.5229
11411TIP3   OH255647   4.211   5.170  12.287 -0.2438  0.4277  0.1457
11411TIP3    H155648   4.270   5.137  12.219 -1.0998 -1.5214  0.2845
11411TIP3    H255649   4.224   5.112  12.362 -1.4180  0.7155  0.6042
11412TIP3   OH255650   5.431   0.636  17.235 -0.1294 -0.5925 -0.1843
11412TIP3    H155651   5.499   0.690  17.194  0.3354  0.3648  1.7624
11412TIP3    H255652   5.349   0.675  17.204  0.2049  0.6022  0.3523
11413TIP3   OH255653   4.733   1.914   4.872 -0.2558 -0.1309 -0.1261
11413TIP3    H155654   4.754   1.994   4.920 -0.0527 -0.1306 -0.2175
11413TIP3    H255655   4.651   1.884   4.911 -1.6895  1.4610 -1.7436
11414TIP3   OH255656   0.074   1.573   1.667 -0.0079  0.3249 -0.2203
11414TIP3    H155657   0.002   1.602   1.723  0.1524 -0.7801  0.5702
11414TIP3    H255658   0.041   1.493   1.626 -0.0990  1.0771 -1.6882
11415TIP3   OH255659   0.187   1.035   5.314  0.2479 -0.1947 -0.4999
11415TIP3    H155660   0.137   0.960   5.345  2.1856 -0.8347  1.3187
11415TIP3    H255661   0.240   1.000   5.242  0.4365 -0.3312 -0.2955
11416TIP3   OH255662   6.373   5.298   0.522 -0.0774 -0.6826  0.0403
11416TIP3    H155663   6.375   5.391   0.500  1.3311 -1.3636 -3.3630
11416TIP3    H255664   6.426   5.290   0.601 -1.3808  1.5105  1.2299
11417TIP3   OH255665   4.521   4.923   5.162  0.3071  0.1670  0.3595
11417TIP3    H155666   4.609   4.886   5.159 -0.1217 -1.0206 -3.7294
11417TIP3    H255667   4.463   4.847   5.166 -0.6021  0.8884  1.7845
11418TIP3   OH255668   5.769   3.435   2.857 -0.2953  0.1635  0.6321
11418TIP3    H155669   5.845   3.486   2.884  1.1461 -1.9273  0.7246
11418TIP3    H255670   5.695   3.476   2.903  0.9179  1.5599  1.4134
11419TIP3   OH255671   5.899   3.223  14.296 -0.4765  0.2454 -0.3636
11419TIP3    H155672   5.814   3.219  14.341  0.5719  0.5220  1.7387
11419TIP3    H255673   5.962   3.191  14.361  0.9928 -0.3728 -2.0270
11420TIP3   OH255674   3.145   2.976   5.055 -0.5865  0.4140  0.2545
11420TIP3    H155675   3.086   3.040   5.095 -0.0855  0.9705  0.1184
11420TIP3    H255676   3.090   2.899   5.041 -2.0934  1.8365 -2.5244
11421TIP3   OH255677   3.525   0.290   4.618 -0.5132 -0.2365 -0.3069
11421TIP3    H155678   3.539   0.262   4.708  2.0485  0.8007 -0.2971
11421TIP3    H255679   3.529   0.209   4.567  2.7080 -0.4480  0.1109
11422TIP3   OH255680   0.971   6.127   3.008 -0.1764  0.4797  0.0662
11422TIP3    H155681   1.045   6.107   2.951 -0.0819  0.2223  0.2757
11422TIP3    H255682   0.907   6.060   2.988  0.1695 -0.0933  0.8223
11423TIP3   OH255683   0.868   0.829  12.758  0.0855  0.1977 -0.1434
11423TIP3    H155684   0.776   0.856  12.758  0.0675  0.1752  1.4314
11423TIP3    H255685   0.868   0.742  12.796  0.8646  0.5977  0.8108
11424TIP3   OH255686   5.174   2.769   5.681  0.5877 -0.1867  0.1356
11424TIP3    H155687   5.255   2.721   5.666 -1.3210 -3.3754 -0.8561
11424TIP3    H255688   5.170   2.833   5.610  0.1113 -3.2390 -2.8473
11425TIP3   OH255689   5.714   1.674  14.092 -0.4852 -0.0659  0.5831
11425TIP3    H155690   5.652   1.747  14.096 -0.4251  0.0079  0.2202
11425TIP3    H255691   5.674   1.611  14.032  0.8836  1.0545 -1.6590
11426TIP3   OH255692   1.466   0.639   5.171 -0.0651  0.1862 -0.3515
11426TIP3    H155693   1.456   0.717   5.118  1.2501  0.4649 -0.2065
11426TIP3    H255694   1.509   0.669   5.251 -0.2270 -0.5678  0.0336
11427TIP3   OH255695   1.368   3.063   6.667  0.3578  0.0853 -0.3866
11427TIP3    H155696   1.275   3.056   6.686  0.7897 -0.1317  1.9723
11427TIP3    H255697   1.373   3.077   6.573 -1.9242 -2.6782 -1.0378
11428TIP3   OH255698   6.763   0.797   4.878 -0.0933 -0.0700 -0.1262
11428TIP3    H155699   6.797   0.846   4.803 -0.1413 -1.9546 -1.4660
11428TIP3    H255700   6.841   0.763   4.921 -0.0543 -2.4847 -1.8675
11429TIP3   OH255701   3.986   6.503   3.491 -0.0953 -0.4983 -0.2026
11429TIP3    H155702   3.908   6.548   3.522  0.0762  0.0946 -0.6024
11429TIP3    H255703   3.999   6.431   3.552 -0.4010 -0.0221  0.4310
11430TIP3   OH255704   1.165   3.918  10.310  0.2564  0.1033  0.3288
11430TIP3    H155705   1.188   3.843  10.254 -0.2196  0.4608 -0.3574
11430TIP3    H255706   1.116   3.976  10.252  1.3767  1.3682  0.6116
11431TIP3   OH255707   5.312   0.953  13.607 -0.0375  0.2646  0.1202
11431TIP3    H155708   5.333   1.024  13.668  1.2149  1.0417 -1.1235
11431TIP3    H255709   5.297   0.998  13.524 -0.9664 -0.8182 -0.3124
11432TIP3   OH255710   3.320   3.371  15.139  0.8195 -0.1558  0.8376
11432TIP3    H155711   3.320   3.298  15.077  1.7547 -0.9358  1.7063
11432TIP3    H255712   3.334   3.449  15.085  1.8448 -0.8319  0.0862
11433TIP3   OH255713   3.353   2.485  12.986 -0.1884 -0.4141 -0.3894
11433TIP3    H155714   3.283   2.534  12.944 -0.2155 -0.3311 -0.2492
11433TIP3    H255715   3.310   2.406  13.020 -0.9417  1.1132  2.5784
11434TIP3   OH255716   3.754   0.832  16.097 -0.3918  0.5838 -0.0369
11434TIP3    H155717   3.795   0.917  16.087 -2.0952  1.3941 -0.5396
11434TIP3    H255718   3.667   0.851  16.132 -0.3206 -1.0690  1.1450
11435TIP3   OH255719   4.099   2.099   0.876  0.6836 -0.0151  0.5501
11435TIP3    H155720   4.163   2.099   0.947  0.0552 -0.9641  1.1350
11435TIP3    H255721   4.151   2.088   0.797  1.1543 -2.4059  1.1267
11436TIP3   OH255722   0.048   6.048  10.917  0.6844 -0.5082 -0.2632
11436TIP3    H155723   0.115   6.017  10.856  1.1399  0.4378 -0.2668
11436TIP3    H255724   0.021   5.970  10.965  2.1809 -0.8202  0.1233
11437TIP3   OH255725   4.601   2.303  15.378  0.1932  0.4669 -0.4237
11437TIP3    H155726   4.511   2.314  15.347 -0.9609 -2.4149  1.5135
11437TIP3    H255727   4.603   2.344  15.464  0.0131 -1.4455  0.5329
11438TIP3   OH255728   4.786   3.277   3.849  0.3530  0.8462 -0.4259
11438TIP3    H155729   4.747   3.287   3.936 -0.6786 -1.3503 -0.5757
11438TIP3    H255730   4.853   3.345   3.846  0.9189  0.5567  2.3603
11439TIP3   OH255731   3.019   0.647   1.305 -0.2686  0.4339  0.0794
11439TIP3    H155732   2.991   0.731   1.267  0.0264  0.4504 -0.0984
11439TIP3    H255733   3.078   0.610   1.240  0.5650  0.6501  0.7031
11440TIP3   OH255734   4.431   3.077   3.041  0.1951  0.2940 -0.2344
11440TIP3    H155735   4.429   3.089   3.136 -1.2129  2.9963 -0.5191
11440TIP3    H255736   4.393   3.157   3.005  1.8066 -0.0875 -3.1563
11441TIP3   OH255737   0.610   1.295  11.041  0.5157 -0.4160 -0.1026
11441TIP3    H155738   0.689   1.320  10.994  1.0461 -0.3507  0.7999
11441TIP3    H255739   0.538   1.337  10.994  1.0260 -0.4037 -0.8742
11442TIP3   OH255740   0.195   2.722  13.458  0.8473  0.1351 -0.0999
11442TIP3    H155741   0.115   2.699  13.505  0.3631  0.3017 -0.8249
11442TIP3    H255742   0.170   2.793  13.400  1.6882  0.6419  0.1380
11443TIP3   OH255743   4.923   2.573   1.584  0.8018  0.1404  0.4588
11443TIP3    H155744   5.006   2.585   1.631  0.8241  0.1288  0.4225
11443TIP3    H255745   4.875   2.655   1.600  0.8049  0.1322  0.5102
11444TIP3   OH255746   3.197   2.250  12.830 -0.2782  0.3507  0.0291
11444TIP3    H155747   3.249   2.322  12.794  0.0352  1.3252  2.2912
11444TIP3    H255748   3.184   2.191  12.756  0.9087  1.8847 -1.4854
11445TIP3   OH255749   0.976   1.097   2.133 -0.0798 -0.0840  0.3569
11445TIP3    H155750   0.984   1.184   2.093  1.1649 -0.4368 -0.2069
11445TIP3    H255751   1.025   1.104   2.215 -0.2889 -0.1557  0.4889
11446TIP3   OH255752   6.210   1.780  14.679 -0.3718  0.0992  0.6801
11446TIP3    H155753   6.240   1.698  14.719 -3.0558 -0.9208  0.7879
11446TIP3    H255754   6.147   1.753  14.612 -1.1985  2.0672  0.5927
11447TIP3   OH255755   5.817   3.108   4.696  0.2309 -0.1851 -0.9370
11447TIP3    H155756   5.798   3.054   4.620  0.2098 -3.5100  1.2348
11447TIP3    H255757   5.804   3.050   4.771  0.8545  2.7042  1.6209
11448TIP3   OH255758   2.708   4.402  16.608 -0.4763  0.0053  0.4707
11448TIP3    H155759   2.619   4.435  16.611 -0.0388  1.2583  0.1769
11448TIP3    H255760   2.744   4.419  16.695 -0.8193 -1.4225  0.9191
11449TIP3   OH255761   5.500   5.676  11.021 -0.0306  0.0957  0.3600
11449TIP3    H155762   5.551   5.605  10.982  1.8900  0.5480  1.8960
11449TIP3    H255763   5.453   5.635  11.093  1.8608  0.4596  1.8933
11450TIP3   OH255764   3.202   0.301   0.168 -0.8201 -0.2476  0.0296
11450TIP3    H155765   3.147   0.346   0.105  0.1561  1.3315  0.2476
11450TIP3    H255766   3.188   0.348   0.250  0.7813  0.1643  0.0963
11451TIP3   OH255767   2.760   3.908   0.893  0.3075 -0.0053  0.1320
11451TIP3    H155768   2.722   3.908   0.806  1.5914 -0.0157 -0.4492
11451TIP3    H255769   2.774   4.001   0.913  2.1797 -0.0585 -0.6916
11452TIP3   OH255770   5.444   1.279  10.894  0.1865  0.4319 -0.5066
11452TIP3    H155771   5.530   1.288  10.854  0.9695  0.7662  1.1285
11452TIP3    H255772   5.442   1.189  10.926  0.1377  0.5632 -0.1327
11453TIP3   OH255773   4.399   2.845   5.221  0.6119 -0.2236 -0.4220
11453TIP3    H155774   4.419   2.929   5.180  2.2522 -0.7850 -0.8324
11453TIP3    H255775   4.359   2.793   5.152  0.5309 -0.1205 -0.4527
11454TIP3   OH255776   0.740   1.192  16.043 -0.5072  0.2719 -0.2574
11454TIP3    H155777   0.733   1.131  16.117 -1.3705 -1.5895 -1.7723
11454TIP3    H255778   0.834   1.203  16.030 -0.2939 -1.5344 -0.5201
11455TIP3   OH255779   5.516   0.822  10.902  0.1317  0.0718 -0.4246
11455TIP3    H155780   5.522   0.759  10.974  1.0113  0.9121  0.2602
11455TIP3    H255781   5.475   0.773  10.831 -1.0611 -0.6881  0.7382
11456TIP3   OH255782   3.897   4.365   5.762  0.2711  0.5910  0.4175
11456TIP3    H155783   3.883   4.460   5.757 -0.3858  0.5393  1.0353
11456TIP3    H255784   3.836   4.336   5.830  1.8131 -0.0127  1.5925
11457TIP3   OH255785   3.528   2.926   5.905  0.1743 -0.2157 -0.7541
11457TIP3    H155786   3.481   2.842   5.899  0.9984 -0.7826  0.4111
11457TIP3    H255787   3.585   2.916   5.981  2.0962  0.4784 -2.0181
11458TIP3   OH255788   2.391   5.503  13.838 -0.4669 -0.0683 -0.3876
11458TIP3    H155789   2.419   5.594  13.831 -0.3965 -0.1258 -0.9216
11458TIP3    H255790   2.306   5.506  13.882 -1.0994  0.3689 -1.5934
11459TIP3   OH255791   5.914   4.656  11.662 -0.0065  0.0820  0.2658
11459TIP3    H155792   5.933   4.748  11.647  0.0552  0.0917  0.3973
11459TIP3    H255793   6.000   4.613  11.654 -0.3681 -0.3219 -2.3395
11460TIP3   OH255794   2.720   1.593   4.878 -0.3967  0.4442  0.2129
11460TIP3    H155795   2.678   1.583   4.792  1.0555  0.3929 -0.5270
11460TIP3    H255796   2.666   1.541   4.937  1.1157 -3.5476 -1.5602
11461TIP3   OH255797   0.300   5.793   1.563 -0.2331  0.1990 -0.1066
11461TIP3    H155798   0.229   5.728   1.565  0.2828 -0.3602  1.2508
11461TIP3    H255799   0.357   5.768   1.636 -0.6121  2.8481  1.2075
11462TIP3   OH255800   1.796   4.983   0.045 -0.1477 -0.5614 -0.2342
11462TIP3    H155801   1.830   5.037  -0.026 -1.7322 -2.3432 -2.4869
11462TIP3    H255802   1.748   5.044   0.101 -0.3146  0.6309 -1.6328
11463TIP3   OH255803   5.908   2.657  10.648 -0.0527 -0.3205  0.1335
11463TIP3    H155804   5.865   2.695  10.571  1.5766 -0.6390 -1.0041
11463TIP3    H255805   5.902   2.724  10.715  0.7774  1.0658 -1.1173
11464TIP3   OH255806   1.469   2.408  15.638  0.5692 -0.1096 -0.1065
11464TIP3    H155807   1.540   2.466  15.666 -1.6389  2.1790  1.2352
11464TIP3    H255808   1.452   2.352  15.714  0.0550  0.3002  0.0842
11465TIP3   OH255809   5.897   2.093  15.787 -0.1760  0.5355  0.6839
11465TIP3    H155810   5.873   2.001  15.800 -0.0709  0.4090  0.0328
11465TIP3    H255811   5.826   2.128  15.733  0.0458  0.7028  0.5011
11466TIP3   OH255812   4.941   3.666   1.028  0.4644 -0.4843  0.2094
11466TIP3    H155813   4.853   3.703   1.032 -0.2607 -1.8372 -1.6971
11466TIP3    H255814   4.998   3.737   1.055 -1.0575  1.1245 -0.6384
11467TIP3   OH255815   2.636   3.274  12.655 -0.2349 -0.2205  0.3063
11467TIP3    H155816   2.607   3.183  12.665 -0.5102 -0.0743  0.8682
11467TIP3    H255817   2.729   3.273  12.677  1.2004 -1.3100 -4.6031
11468TIP3   OH255818   6.241   6.576  12.989 -0.6081 -0.2170 -0.1283
11468TIP3    H155819   6.260   6.627  12.911  0.7011 -0.1930  0.1864
11468TIP3    H255820   6.179   6.630  13.038  1.3420  1.4850  0.5747
11469TIP3   OH255821   6.147   5.073   5.406 -0.5051  0.1981 -0.5578
11469TIP3    H155822   6.162   5.083   5.500  0.4623 -1.1217 -0.5275
11469TIP3    H255823   6.208   5.135   5.366 -0.6194  0.4691 -0.3183
11470TIP3   OH255824   2.083   4.485  15.734  0.1275  0.0117 -0.2616
11470TIP3    H155825   2.080   4.493  15.639  0.2173 -1.3251 -0.4038
11470TIP3    H255826   1.991   4.485  15.761  0.0255 -1.2317 -0.5357
11471TIP3   OH255827   1.840   0.562   1.709  0.6289  0.1080 -0.4491
11471TIP3    H155828   1.833   0.557   1.613  1.3968  1.2880 -0.5878
11471TIP3    H255829   1.771   0.623   1.735  0.0208 -0.6748 -0.1647
11472TIP3   OH255830   6.113   3.044   5.550  0.1755 -0.0551 -1.2213
11472TIP3    H155831   6.034   3.025   5.500  0.5836 -1.0016 -1.5476
11472TIP3    H255832   6.082   3.077   5.634 -0.5891 -1.0941 -1.0749
11473TIP3   OH255833   2.344   6.401   5.242 -0.3077  0.1992  0.2131
11473TIP3    H155834   2.324   6.311   5.267  1.4523 -0.0303  0.9333
11473TIP3    H255835   2.421   6.394   5.185  1.4797  1.3478  2.3042
11474TIP3   OH255836   3.942   2.311  13.376 -0.0383  0.2136 -0.2583
11474TIP3    H155837   3.896   2.252  13.317  1.9383 -0.3931 -1.2986
11474TIP3    H255838   3.891   2.392  13.375 -0.8923 -0.3205 -1.5610
11475TIP3   OH255839   2.211   3.753  13.848 -0.0203 -0.7112 -0.0558
11475TIP3    H155840   2.269   3.761  13.772  0.5635 -2.1113  0.2221
11475TIP3    H255841   2.124   3.775  13.814  0.5124  0.6148 -0.6635
11476TIP3   OH255842   2.665   0.326  15.332 -0.0072  0.0586 -0.0175
11476TIP3    H155843   2.686   0.238  15.363 -1.3990 -0.6273 -0.9151
11476TIP3    H255844   2.592   0.314  15.272 -1.6631  2.0514  1.4361
11477TIP3   OH255845   3.402   0.573   2.127  0.3861  0.0246 -0.0339
11477TIP3    H155846   3.444   0.600   2.209  3.7622 -0.9824 -1.2536
11477TIP3    H255847   3.388   0.655   2.080 -1.1124  0.5685  1.2720
11478TIP3   OH255848   0.589   2.882  15.157  0.1087 -0.2155  0.2762
11478TIP3    H155849   0.568   2.961  15.107  0.4782  1.6024  2.7571
11478TIP3    H255850   0.625   2.821  15.093 -0.8559  1.3492 -1.8664
11479TIP3   OH255851   3.076   4.920   1.173  0.5732 -0.5285 -0.4730
11479TIP3    H155852   3.142   4.984   1.146 -1.0849  2.1637  1.4406
11479TIP3    H255853   3.048   4.949   1.259 -0.6604 -3.6270  0.2917
11480TIP3   OH255854   5.251   3.669   4.093  0.3285  0.0694 -0.1144
11480TIP3    H155855   5.263   3.690   4.001 -0.2371 -0.9621 -0.4290
11480TIP3    H255856   5.223   3.578   4.094 -2.3742  0.8113  0.8653
11481TIP3   OH255857   3.457   6.468  12.047  0.1096 -0.4092  0.0257
11481TIP3    H155858   3.401   6.541  12.020  0.6949  0.0278 -0.0416
11481TIP3    H255859   3.479   6.423  11.966 -1.2253 -1.3955  0.1887
11482TIP3   OH255860   3.411   0.041  13.370  0.0280 -0.2794  0.5004
11482TIP3    H155861   3.472   0.077  13.434 -0.1717 -1.8396  1.6087
11482TIP3    H255862   3.330   0.026  13.418 -0.4619 -0.5244 -0.3661
11483TIP3   OH255863   0.672   5.731   2.039 -0.5188  0.2043 -0.1503
11483TIP3    H155864   0.588   5.686   2.052 -0.8020  0.8900  0.4844
11483TIP3    H255865   0.647   5.823   2.027  0.0640  0.2429 -1.1839
11484TIP3   OH255866   1.668   2.937  13.042 -0.4593 -0.5477 -0.2907
11484TIP3    H155867   1.737   2.949  12.977 -2.4292  4.0561 -1.9570
11484TIP3    H255868   1.623   2.857  13.015  2.8276 -2.5644 -0.3160
11485TIP3   OH255869   1.776   3.158  13.199  0.4092 -0.6288  0.1418
11485TIP3    H155870   1.829   3.107  13.261 -0.1203 -2.5100 -0.8532
11485TIP3    H255871   1.705   3.098  13.174 -0.1403  0.5534 -1.2481
11486TIP3   OH255872   0.772   0.241  14.064 -0.4797 -0.1685 -0.4479
11486TIP3    H155873   0.681   0.250  14.037 -0.6504  0.0466  0.1730
11486TIP3    H255874   0.775   0.158  14.111 -0.1606 -0.5997 -1.2260
11487TIP3   OH255875   0.388   2.146  12.186 -0.2766 -0.1718  0.1708
11487TIP3    H155876   0.392   2.092  12.265 -0.2230 -0.3691  0.0350
11487TIP3    H255877   0.471   2.130  12.142  0.6975  1.7015  1.2061
11488TIP3   OH255878   5.247   3.059  17.257 -0.4199 -0.2577 -0.3166
11488TIP3    H155879   5.267   3.147  17.225 -0.3211 -0.1161  0.1323
11488TIP3    H255880   5.216   3.012  17.179 -1.2079  0.3920 -0.4169
11489TIP3   OH255881   6.688   6.317   5.989 -0.0848 -0.3694  0.1503
11489TIP3    H155882   6.618   6.273   6.038 -0.1426 -1.5168 -0.8956
11489TIP3    H255883   6.757   6.251   5.982  0.4332  0.1996 -0.2230
11490TIP3   OH255884   1.921   3.861  14.437  0.1208 -0.0956  0.0317
11490TIP3    H155885   1.968   3.837  14.357  2.8922 -1.3769  1.8828
11490TIP3    H255886   1.901   3.777  14.478 -1.3100  0.5484  0.6959
11491TIP3   OH255887   6.278   1.688   4.984 -0.4528 -0.1503  0.3356
11491TIP3    H155888   6.324   1.768   5.010 -0.1161 -0.4506  0.6647
11491TIP3    H255889   6.268   1.638   5.066  0.1500 -0.8621 -0.0164
11492TIP3   OH255890   2.742   2.832  11.474 -0.0472 -0.0909  0.1761
11492TIP3    H155891   2.803   2.761  11.497 -0.1687 -0.1626  0.2792
11492TIP3    H255892   2.701   2.856  11.557  0.1558  0.2527  0.1789
11493TIP3   OH255893   1.461   6.117  10.862  0.2691 -0.2221 -0.3474
11493TIP3    H155894   1.550   6.139  10.834  0.6035  0.0468  0.8842
11493TIP3    H255895   1.419   6.081  10.783  1.2226  0.3503 -1.1336
11494TIP3   OH255896   2.529   1.822  13.017  0.0057 -0.1431  0.1590
11494TIP3    H155897   2.516   1.780  13.102  1.3717 -0.2324  0.3475
11494TIP3    H255898   2.595   1.768  12.973 -1.8413 -1.0740 -1.6828
11495TIP3   OH255899   1.688   5.610  12.041  0.1996 -0.3111  0.0276
11495TIP3    H155900   1.738   5.648  12.113  0.4632  0.2789 -0.4637
11495TIP3    H255901   1.736   5.530  12.018  0.3506 -0.2784  0.2300
11496TIP3   OH255902   1.750   4.708   4.171 -0.3805  0.1026 -0.3687
11496TIP3    H155903   1.691   4.695   4.097 -0.5356  1.7141 -0.5589
11496TIP3    H255904   1.770   4.801   4.170 -0.5456  0.2079  1.7240
11497TIP3   OH255905   5.893   5.965  14.053  0.3605 -0.0064  0.4887
11497TIP3    H155906   5.870   5.886  14.102  0.4104 -0.6464 -0.4772
11497TIP3    H255907   5.943   5.932  13.978 -0.6661  0.7947 -0.6000
11498TIP3   OH255908   6.189   2.647  12.062  0.4976  0.5933 -0.0242
11498TIP3    H155909   6.283   2.644  12.045  0.7466 -0.7401  1.4068
11498TIP3    H255910   6.155   2.568  12.020  0.0423  0.9249 -0.2903
11499TIP3   OH255911   5.420   0.819   4.203  0.2879 -0.0879  0.2692
11499TIP3    H155912   5.418   0.871   4.283  0.6385 -0.5225  0.5581
11499TIP3    H255913   5.430   0.729   4.232  0.2775 -0.2642 -0.2579
11500TIP3   OH255914   2.891   2.699   0.093 -0.3771 -0.1399  0.1434
11500TIP3    H155915   2.823   2.738   0.038  1.1731  3.3750  0.4441
11500TIP3    H255916   2.860   2.711   0.183  0.3079  0.8441  0.2558
11501TIP3   OH255917   0.530   4.953  16.280  0.2317  0.2494 -0.4797
11501TIP3    H155918   0.559   5.039  16.250 -1.8766  0.8061 -1.1117
11501TIP3    H255919   0.443   4.969  16.318  0.6473 -1.2978  1.2534
11502TIP3   OH255920   3.660   0.961   5.947  0.0599 -0.1500  0.3544
11502TIP3    H155921   3.680   1.050   5.975 -0.3837 -0.1397  0.6416
11502TIP3    H255922   3.723   0.907   5.994 -0.3412 -0.0824  0.9752
11503TIP3   OH255923   5.296   3.531  11.392 -0.2255  0.2247 -0.2002
11503TIP3    H155924   5.232   3.584  11.440 -2.2914 -1.8261 -0.5136
11503TIP3    H255925   5.300   3.570  11.305 -3.1029 -1.0712 -1.0099
11504TIP3   OH255926   6.130   1.857   5.586 -0.1525  0.5752  0.4442
11504TIP3    H155927   6.105   1.835   5.496  0.1785  1.4893  0.1229
11504TIP3    H255928   6.049   1.885   5.628 -0.2651  0.3634  0.3686
11505TIP3   OH255929   1.178   4.274  16.186 -0.2882 -0.4865 -0.1708
11505TIP3    H155930   1.257   4.318  16.216 -0.3842 -0.8058  0.5982
11505TIP3    H255931   1.209   4.201  16.133 -0.1376  0.6526 -1.7003
11506TIP3   OH255932   2.327   6.503  12.912  0.8954  0.1167 -0.2874
11506TIP3    H155933   2.362   6.421  12.947  0.5601  0.5091  1.0098
11506TIP3    H255934   2.377   6.572  12.957 -0.0590  0.6468 -0.0172
11507TIP3   OH255935   4.734   5.804  15.102 -0.2773  0.1786  0.4323
11507TIP3    H155936   4.813   5.768  15.061 -0.1434  1.6731 -0.6857
11507TIP3    H255937   4.662   5.760  15.057 -0.1094  1.0048 -0.6810
11508TIP3   OH255938   2.796   3.025   6.488  0.5774  0.6395  0.5682
11508TIP3    H155939   2.736   3.083   6.533  0.5717 -0.4814  2.0730
11508TIP3    H255940   2.741   2.955   6.452  0.7863  0.5604  0.3949
11509TIP3   OH255941   3.202   2.825  15.443  0.2870 -0.3699  0.1598
11509TIP3    H155942   3.237   2.897  15.390 -1.0738  1.1944  1.2860
11509TIP3    H255943   3.150   2.869  15.511 -1.2012 -2.4527  0.4443
11510TIP3   OH255944   5.366   5.180   6.196  0.6101 -0.2223 -0.4880
11510TIP3    H155945   5.394   5.140   6.278  1.8432  0.9410 -0.2988
11510TIP3    H255946   5.361   5.274   6.215 -1.3890 -0.1555 -1.1297
11511TIP3   OH255947   4.334   2.913  15.507 -0.2569 -0.0328 -0.0704
11511TIP3    H155948   4.278   2.990  15.516 -0.6113 -0.1680 -0.9945
11511TIP3    H255949   4.397   2.921  15.579 -2.3000 -0.6267  1.8839
11512TIP3   OH255950   1.171   3.096   3.215  0.4322 -0.8317  0.2291
11512TIP3    H155951   1.262   3.084   3.187  0.6883  0.5926  0.3921
11512TIP3    H255952   1.122   3.034   3.162  1.3286 -0.5874 -0.9345
11513TIP3   OH255953   3.237   3.905  17.135 -0.2396 -0.4724  0.1435
11513TIP3    H155954   3.245   3.817  17.098 -0.1190 -0.7224  0.7420
11513TIP3    H255955   3.244   3.892  17.230  1.6212  0.3831  0.1623
11514TIP3   OH255956   6.038   4.534  14.434  0.3461 -0.6791  0.5238
11514TIP3    H155957   6.009   4.558  14.522 -1.3276  1.2113 -0.4580
11514TIP3    H255958   6.067   4.617  14.395 -0.1627 -1.2357 -1.1389
11515TIP3   OH255959   1.217   3.441  11.327  0.1087 -0.8361  0.1301
11515TIP3    H155960   1.304   3.479  11.334 -0.6312  0.7928  1.0760
11515TIP3    H255961   1.198   3.442  11.233  0.8521 -0.6164 -0.0272
11516TIP3   OH255962   3.206   4.694   5.592 -0.1567 -0.1134  0.3130
11516TIP3    H155963   3.243   4.619   5.638 -0.1964  0.7485  1.8209
11516TIP3    H255964   3.170   4.658   5.511  0.1530 -1.6447  0.8335
11517TIP3   OH255965   4.400   1.323  11.251  0.1807  0.3674  0.7708
11517TIP3    H155966   4.445   1.368  11.180  1.5369 -0.8757  0.7946
11517TIP3    H255967   4.355   1.249  11.209  0.7688 -0.2166  1.1490
11518TIP3   OH255968   6.574   5.010   3.660 -0.5943  0.1409  0.5802
11518TIP3    H155969   6.481   4.991   3.660 -1.1198  2.2944 -0.5386
11518TIP3    H255970   6.607   4.972   3.579 -0.9326  0.9770  0.0318
11519TIP3   OH255971   6.187   4.576  11.979  0.2594  0.2044  0.0473
11519TIP3    H155972   6.164   4.572  11.886 -0.4005  0.5043  0.1904
11519TIP3    H255973   6.103   4.566  12.025  0.8130 -2.0705  0.6737
11520TIP3   OH255974   4.953   2.178  15.775 -0.0421  0.3040 -0.3245
11520TIP3    H155975   5.029   2.122  15.757 -0.0213  0.8251 -2.0022
11520TIP3    H255976   4.970   2.213  15.862  0.9275 -0.7201 -0.0687
11521TIP3   OH255977   2.128   3.255   5.938  0.5285  0.3856 -0.0624
11521TIP3    H155978   2.077   3.175   5.930  1.6214 -0.3907  0.4511
11521TIP3    H255979   2.094   3.297   6.017 -0.8997  1.0998 -1.0074
11522TIP3   OH255980   1.230   6.638  10.555 -0.0674  0.3694 -0.1717
11522TIP3    H155981   1.144   6.618  10.517 -1.0477  0.8044  1.7465
11522TIP3    H255982   1.276   6.554  10.552 -0.2754  0.2726 -1.8242
11523TIP3   OH255983   4.660   0.616  11.968  0.2684  0.3297 -0.1222
11523TIP3    H155984   4.657   0.622  12.063  0.3826 -1.2830  0.0171
11523TIP3    H255985   4.714   0.690  11.940  1.5593 -0.0868  1.1852
11524TIP3   OH255986   0.091   6.233  11.648 -0.0525  0.3469  0.2298
11524TIP3    H155987   0.185   6.222  11.633  0.0743  1.2591  0.2846
11524TIP3    H255988   0.082   6.325  11.670 -1.0055  0.3317 -0.0794
11525TIP3   OH255989   3.625   1.054  16.536 -0.1248  0.2334  0.0867
11525TIP3    H155990   3.549   1.088  16.487 -0.9892  0.2405  1.3866
11525TIP3    H255991   3.613   1.088  16.625  0.8247 -0.6905  0.5840
11526TIP3   OH255992   5.856   1.895  11.154 -0.3869 -0.6626  0.1127
11526TIP3    H155993   5.933   1.947  11.131 -2.0065  1.1946 -1.3995
11526TIP3    H255994   5.889   1.831  11.218  2.5406 -0.4505 -1.0367
11527TIP3   OH255995   6.458   3.759   2.914  0.0782  0.3837 -0.3768
11527TIP3    H155996   6.484   3.667   2.908 -1.8465 -0.1744 -0.7178
11527TIP3    H255997   6.386   3.760   2.977 -0.4013  1.5411 -0.9062
11528TIP3   OH255998   3.243   5.343   3.285  0.2586 -0.1592  0.9517
11528TIP3    H155999   3.167   5.299   3.324 -0.8273 -1.7525 -2.5392
11528TIP3    H256000   3.282   5.276   3.229  1.8944  1.7884 -0.3518
11529TIP3   OH256001   2.219   2.800  11.346  0.0808 -0.0336 -0.2071
11529TIP3    H156002   2.151   2.767  11.405  0.1821  1.0053  0.5234
11529TIP3    H256003   2.207   2.750  11.265 -3.9871  2.5597 -1.5169
11530TIP3   OH256004   3.737   1.494   0.433  0.2459  0.2956  0.2342
11530TIP3    H156005   3.642   1.481   0.426  0.3843 -0.5774 -0.1603
11530TIP3    H256006   3.774   1.406   0.419  1.0730  0.4778  1.1994
11531TIP3   OH256007   0.482   3.988  17.329 -0.6618  0.4492 -0.0644
11531TIP3    H156008   0.571   3.987  17.296 -0.5488  0.8465  0.2209
11531TIP3    H256009   0.489   4.024  17.418 -1.2393  1.5352 -0.4391
11532TIP3   OH256010   3.771   6.144   3.901  0.5859 -0.5451 -0.0954
11532TIP3    H156011   3.814   6.076   3.849  1.0363  0.4999 -1.1256
11532TIP3    H256012   3.753   6.214   3.839 -0.1962  0.1436  0.8756
11533TIP3   OH256013   1.367   4.677  13.281 -0.0940  0.0506 -0.3711
11533TIP3    H156014   1.358   4.732  13.203  0.8344 -0.0139 -0.5338
11533TIP3    H256015   1.404   4.735  13.348 -0.5616  0.0170 -0.0797
11534TIP3   OH256016   0.322   1.567   5.691 -0.6055 -0.2178  0.4784
11534TIP3    H156017   0.356   1.656   5.680 -0.0960 -0.4585  0.1050
11534TIP3    H256018   0.398   1.511   5.685 -1.0420 -0.7541 -0.2556
11535TIP3   OH256019   2.546   5.393   0.021  0.1628  0.4244  0.5629
11535TIP3    H156020   2.482   5.421  -0.045 -0.7366  1.9817  2.0142
11535TIP3    H256021   2.493   5.372   0.098  1.2996  0.3500  1.3491
11536TIP3   OH256022   4.626   2.478   6.225  0.4773 -0.0271 -0.1366
11536TIP3    H156023   4.572   2.424   6.168 -1.3112  0.1397  1.3088
11536TIP3    H256024   4.619   2.566   6.188 -1.1356  0.1844  0.6208
11537TIP3   OH256025   2.215   5.024   6.039  0.2306  0.2579 -0.5713
11537TIP3    H156026   2.137   5.072   6.065  0.7047  0.5121  0.4738
11537TIP3    H256027   2.184   4.937   6.014 -0.6279  1.0563 -2.4007
11538TIP3   OH256028   0.039   0.885  16.802  0.3825 -0.1005 -0.4796
11538TIP3    H156029   0.090   0.938  16.741  1.2132  0.2824  0.5163
11538TIP3    H256030  -0.052   0.898  16.775  0.7851 -1.3995 -2.7696
11539TIP3   OH256031   5.548   3.259  12.315 -0.0616  0.0585  0.5857
11539TIP3    H156032   5.593   3.191  12.265 -0.7197  0.9091 -1.2612
11539TIP3    H256033   5.611   3.331  12.321  0.2402 -0.2695  1.5813
11540TIP3   OH256034   4.909   5.315   6.909 -0.9022  0.4114 -0.0331
11540TIP3    H156035   4.940   5.288   6.822 -0.7675 -0.5207  0.2943
11540TIP3    H256036   4.831   5.262   6.925 -0.8380  0.4646  0.4817
11541TIP3   OH256037   2.716   2.242   5.133 -0.3844  0.1657 -0.3244
11541TIP3    H156038   2.717   2.337   5.146 -0.4048  0.1815 -0.4313
11541TIP3    H256039   2.624   2.220   5.123 -0.3535  0.1936 -0.7031
11542TIP3   OH256040   0.482   6.161   1.276  1.0604  0.1611  0.4431
11542TIP3    H156041   0.394   6.179   1.310  1.1609  0.5867  0.4868
11542TIP3    H256042   0.526   6.114   1.347  0.6939 -0.5438  0.2127
11543TIP3   OH256043   3.405   6.031   4.258 -0.3409  0.2223  0.3917
11543TIP3    H156044   3.346   6.044   4.183 -0.9060 -1.0769  0.5754
11543TIP3    H256045   3.374   6.094   4.324  0.4126  1.6522 -0.5739
11544TIP3   OH256046   2.415   1.415   2.485 -0.0313  0.1905  0.4522
11544TIP3    H156047   2.458   1.381   2.564 -0.6831 -1.8937 -0.0348
11544TIP3    H256048   2.359   1.485   2.517  1.4193  0.9342  1.5104
11545TIP3   OH256049   3.198   4.424   2.240 -0.4155 -0.1886  0.1547
11545TIP3    H156050   3.287   4.422   2.203 -0.8390 -2.2532 -0.8862
11545TIP3    H256051   3.208   4.469   2.324  1.8339 -1.3929  0.6074
11546TIP3   OH256052   2.131   2.170   3.034  0.5933  0.2760 -0.3022
11546TIP3    H156053   2.142   2.200   2.944  1.6810 -2.0485 -1.0362
11546TIP3    H256054   2.036   2.169   3.047  0.0451 -3.2495 -3.0277
11547TIP3   OH256055   1.243   4.385  13.174  0.3880  0.5506  0.5099
11547TIP3    H156056   1.187   4.358  13.248  0.4008 -1.1265 -0.0329
11547TIP3    H256057   1.181   4.413  13.107 -0.0050 -2.3323 -0.4947
11548TIP3   OH256058   0.307   5.479   4.770 -0.1013  0.7667  0.3971
11548TIP3    H156059   0.256   5.525   4.704 -1.2679 -1.0977 -0.0584
11548TIP3    H256060   0.263   5.499   4.853 -1.9847 -1.2152 -0.0386
11549TIP3   OH256061   1.680   0.094   1.012  0.4218 -0.3751 -0.2104
11549TIP3    H156062   1.742   0.063   0.946 -0.3630 -1.3888 -0.4983
11549TIP3    H256063   1.597   0.055   0.987 -0.3949  1.1375  0.0481
11550TIP3   OH256064   4.953   5.385  17.172 -0.6328  0.7676 -0.3237
11550TIP3    H156065   4.969   5.299  17.211 -0.2167  1.0597  0.1623
11550TIP3    H256066   4.950   5.368  17.078  0.4449  0.3695 -0.3007
11551TIP3   OH256067   2.411   1.543   0.388 -0.2371  0.0576  0.2550
11551TIP3    H156068   2.318   1.565   0.380  0.2785  1.7537 -1.9550
11551TIP3    H256069   2.433   1.502   0.305  1.3329  1.1043  0.1282
11552TIP3   OH256070   6.238   5.857  15.093  0.2258  0.0483  0.0871
11552TIP3    H156071   6.267   5.875  15.183 -0.0972 -0.8901  0.3918
11552TIP3    H256072   6.313   5.882  15.038  2.0657 -3.0451  0.9052
11553TIP3   OH256073   3.876   2.192   2.640 -1.0207 -0.5200 -1.0853
11553TIP3    H156074   3.948   2.240   2.599 -1.0529 -1.2243 -2.0004
11553TIP3    H256075   3.857   2.121   2.578 -2.0221 -0.7623 -0.5080
11554TIP3   OH256076   3.565   1.049   3.532 -0.3155 -0.2088 -0.6445
11554TIP3    H156077   3.504   1.059   3.459 -1.2810 -0.1357  0.1553
11554TIP3    H256078   3.566   0.955   3.550 -1.2325 -0.0741  0.1931
11555TIP3   OH256079   2.986   5.065   3.842 -0.1440  0.3556 -0.1287
11555TIP3    H156080   2.943   5.027   3.919  1.2196  0.1253  0.5433
11555TIP3    H256081   3.073   5.024   3.840 -0.1507  0.3367 -1.8138
11556TIP3   OH256082   3.010   1.679   5.726  0.1330  0.2951  0.6103
11556TIP3    H156083   3.085   1.634   5.764 -1.1502 -1.2326  1.4985
11556TIP3    H256084   2.954   1.609   5.693 -0.3852  1.4418 -1.0799
11557TIP3   OH256085   4.437   4.155  13.195 -0.1281  0.6838  0.0123
11557TIP3    H156086   4.382   4.134  13.271  0.6570 -0.4906  0.2904
11557TIP3    H256087   4.394   4.111  13.121  0.8499 -0.9814  0.3803
11558TIP3   OH256088   1.946   5.622   3.530 -0.4981  0.7994 -0.1967
11558TIP3    H156089   1.917   5.542   3.575 -1.1468  0.6803 -0.8065
11558TIP3    H256090   2.032   5.640   3.568 -0.4422 -0.0556  0.1243
11559TIP3   OH256091   1.933   1.003  12.900 -0.6754  0.0957 -0.1568
11559TIP3    H156092   1.876   1.076  12.875  2.9671  3.1052 -0.7177
11559TIP3    H256093   1.955   1.020  12.991  0.4485 -0.0648 -0.3848
11560TIP3   OH256094   4.887   4.770  11.010  0.4274 -0.3527 -0.2930
11560TIP3    H156095   4.823   4.840  11.025  0.9875  0.2707 -0.7572
11560TIP3    H256096   4.850   4.719  10.938 -0.9832 -1.7883  1.3573
11561TIP3   OH256097   5.730   5.034  10.764 -0.1312  0.5793 -0.4525
11561TIP3    H156098   5.807   5.076  10.802  1.2341 -1.3675 -0.9311
11561TIP3    H256099   5.701   5.095  10.696  1.2237  1.1766 -0.5297
11562TIP3   OH256100   2.805   0.518   1.451 -0.2218 -0.2194 -0.3160
11562TIP3    H156101   2.726   0.502   1.399 -0.9445 -0.1156  0.7294
11562TIP3    H256102   2.866   0.558   1.389 -0.1267 -2.3676 -1.7584
11563TIP3   OH256103   5.869   0.124   3.137 -0.0727  0.0281 -0.8394
11563TIP3    H156104   5.904   0.110   3.049  1.8408 -2.2266  0.1627
11563TIP3    H256105   5.841   0.216   3.137  3.3818  1.2939 -2.6641
11564TIP3   OH256106   1.806   2.602   2.492  0.4132  0.0705 -0.0932
11564TIP3    H156107   1.733   2.661   2.512  1.5809  1.8336 -0.7786
11564TIP3    H256108   1.879   2.660   2.473  2.3530 -1.6455  1.6887
11565TIP3   OH256109   5.789   0.754   2.365  0.6840 -0.0639  0.3205
11565TIP3    H156110   5.764   0.827   2.422  0.8552 -1.2343  1.9505
11565TIP3    H256111   5.881   0.772   2.343  1.2471 -0.5912  2.0819
11566TIP3   OH256112   6.760   3.727   6.259  0.4367 -0.3310 -0.0320
11566TIP3    H156113   6.673   3.685   6.257  0.9231 -1.3597 -1.5187
11566TIP3    H256114   6.742   3.818   6.283 -0.7974 -1.0580  2.0105
11567TIP3   OH256115   4.317   2.581   5.422 -0.0046 -0.2032  0.0239
11567TIP3    H156116   4.351   2.663   5.458  0.1908 -0.9974  1.7720
11567TIP3    H256117   4.294   2.602   5.332 -0.3235  1.8731  0.5332
11568TIP3   OH256118   1.767   1.244   5.654 -0.3386  0.2554 -0.0274
11568TIP3    H156119   1.761   1.308   5.582 -0.9698  0.9119  0.5982
11568TIP3    H256120   1.686   1.255   5.703 -0.5742 -1.2166 -0.0454
11569TIP3   OH256121   1.243   3.588  14.914  0.6339 -0.4464 -0.0708
11569TIP3    H156122   1.204   3.501  14.923 -0.8657  0.1968  0.0148
11569TIP3    H256123   1.179   3.637  14.862  0.9920  0.8717  0.6987
11570TIP3   OH256124   4.451   3.807  16.036 -0.4763 -0.7481 -0.6337
11570TIP3    H156125   4.436   3.726  15.987 -2.9978 -1.9480  1.8718
11570TIP3    H256126   4.487   3.779  16.120 -0.2532  0.8621 -0.1493
11571TIP3   OH256127   4.325   5.628  16.425 -0.3637  0.1196 -0.6235
11571TIP3    H156128   4.340   5.592  16.513 -0.4269 -0.3981 -0.8218
11571TIP3    H256129   4.231   5.618  16.411 -0.9532  3.0865  0.5011
11572TIP3   OH256130   2.981   2.028   4.063 -0.1280  0.1240  0.2496
11572TIP3    H156131   2.979   2.123   4.075  2.5591  0.2860 -0.0166
11572TIP3    H256132   2.944   2.014   3.976 -0.5200  0.9215  0.2807
11573TIP3   OH256133   0.770   1.466  14.267 -0.1724 -0.0036  0.2860
11573TIP3    H156134   0.779   1.560  14.283 -1.1996  0.2109 -0.2728
11573TIP3    H256135   0.698   1.439  14.325  0.9230 -0.7160  1.3623
11574TIP3   OH256136   5.947   1.523  16.060  0.2009 -0.0201  0.4183
11574TIP3    H156137   5.882   1.549  16.126  1.8362  5.0740  0.4224
11574TIP3    H256138   5.900   1.529  15.977 -0.3264 -0.5678  0.6640
11575TIP3   OH256139   3.150   2.612  12.858  0.1869 -0.6303  0.3454
11575TIP3    H156140   3.099   2.651  12.787  2.1516  1.5328  0.0324
11575TIP3    H256141   3.117   2.654  12.938  0.6067 -0.1760  0.2813
11576TIP3   OH256142   6.296   0.298  11.997 -0.5825 -1.1719  0.0633
11576TIP3    H156143   6.291   0.327  11.906 -0.6215 -1.7607 -0.1257
11576TIP3    H256144   6.363   0.354  12.037 -1.9560  0.4580  0.1995
11577TIP3   OH256145   1.737   4.558  13.539  0.4180 -0.3604 -0.0681
11577TIP3    H156146   1.714   4.641  13.499 -1.1418  0.4216  2.3076
11577TIP3    H256147   1.717   4.493  13.471 -1.3549  0.9358 -0.8650
11578TIP3   OH256148   4.541   1.630   2.724 -0.2466  0.2931  0.0933
11578TIP3    H156149   4.598   1.700   2.690 -0.2868  0.2057 -0.1567
11578TIP3    H256150   4.477   1.676   2.778  0.1036  0.3864  0.4395
11579TIP3   OH256151   4.469   3.582  13.276 -0.5128  0.2310 -0.6686
11579TIP3    H156152   4.424   3.602  13.194 -0.2018 -0.4150 -1.0123
11579TIP3    H256153   4.426   3.502  13.307  1.0038 -0.9919 -1.5248
11580TIP3   OH256154   5.089   2.022   2.942  0.1838 -0.4243  0.6399
11580TIP3    H156155   5.167   2.013   2.996  1.3990 -0.7900 -1.0920
11580TIP3    H256156   5.067   1.932   2.917 -0.1852 -0.2446  0.3036
11581TIP3   OH256157   4.974   2.616   6.449 -0.4142  0.5117  0.5891
11581TIP3    H156158   4.943   2.679   6.514 -0.5927  0.7225  0.2994
11581TIP3    H256159   5.060   2.651   6.422 -0.8647  1.0751 -0.1632
11582TIP3   OH256160   1.680   5.367   0.540  0.1405 -0.4871 -0.1429
11582TIP3    H156161   1.699   5.278   0.510 -0.1489 -1.0852  1.3330
11582TIP3    H256162   1.698   5.364   0.634  1.7418  1.4871 -0.3293
11583TIP3   OH256163   0.201   1.799   3.847 -0.0940 -0.1699  0.3106
11583TIP3    H156164   0.250   1.869   3.805  0.8873 -0.6796  0.5826
11583TIP3    H256165   0.267   1.746   3.891 -0.7812 -1.3937 -0.0827
11584TIP3   OH256166   1.057   5.286  13.152 -0.2981  0.0165  0.0832
11584TIP3    H156167   0.980   5.321  13.198 -0.2011  0.0502  0.2217
11584TIP3    H256168   1.054   5.328  13.066 -0.7896 -0.4737 -0.1415
11585TIP3   OH256169   0.458   3.385  12.292 -0.1309 -0.2860 -0.0201
11585TIP3    H156170   0.488   3.313  12.236  0.7502  1.0118 -1.2881
11585TIP3    H256171   0.460   3.349  12.380 -1.0043 -2.2304 -0.7294
11586TIP3   OH256172   0.661   5.986   5.408 -0.2899 -0.0950  0.1562
11586TIP3    H156173   0.734   5.966   5.467 -0.0467 -1.6077 -0.6140
11586TIP3    H256174   0.638   5.902   5.369 -2.0287  0.4695 -0.1191
11587TIP3   OH256175   1.816   3.336  12.651  0.0461 -0.1784  0.4633
11587TIP3    H156176   1.827   3.284  12.731 -1.4463 -0.2007  0.6851
11587TIP3    H256177   1.735   3.385  12.666  0.7710  1.2666 -0.2681
11588TIP3   OH256178   6.232   6.711  14.875 -0.6820 -0.3251 -0.2111
11588TIP3    H156179   6.267   6.730  14.788  1.4782 -0.7828  0.4815
11588TIP3    H256180   6.195   6.623  14.867  0.9645 -1.0471 -0.3221
11589TIP3   OH256181   5.280   5.393   2.832  0.0495  0.0471 -0.2829
11589TIP3    H156182   5.352   5.363   2.888 -1.3153 -0.2688  1.3723
11589TIP3    H256183   5.213   5.326   2.841 -1.6363  1.7455  0.6081
11590TIP3   OH256184   1.915   1.947   2.078 -0.0487  0.4786  0.1826
11590TIP3    H156185   1.929   1.854   2.097  1.7367  1.1299  2.5134
11590TIP3    H256186   2.002   1.986   2.080 -0.8833  2.4542  0.8613
11591TIP3   OH256187   5.686   5.003   1.102  0.8677  0.2974 -0.0175
11591TIP3    H156188   5.636   4.933   1.143  1.0043  0.4196  0.3592
11591TIP3    H256189   5.767   4.961   1.074  1.3351  0.4932  1.0120
11592TIP3   OH256190   3.264   4.430   5.658  0.0179  0.2229  0.6498
11592TIP3    H156191   3.343   4.380   5.634 -1.2711 -0.9632 -1.3949
11592TIP3    H256192   3.212   4.368   5.709 -0.2599  0.4833  0.6807
11593TIP3   OH256193   0.463   2.354  17.296  0.2399 -0.5639  0.0276
11593TIP3    H156194   0.539   2.407  17.320 -0.5737  0.4826  0.3788
11593TIP3    H256195   0.443   2.303  17.374 -1.6133  1.8841  1.2964
11594TIP3   OH256196   5.999   2.859  12.868 -0.5640  0.2719 -0.2878
11594TIP3    H156197   6.031   2.821  12.786  2.0065 -0.3328  0.8869
11594TIP3    H256198   5.985   2.952  12.848  0.1861  0.1608 -1.3740
11595TIP3   OH256199   6.077   4.716   0.977  0.1699  0.6534  0.3937
11595TIP3    H156200   6.140   4.732   1.047  1.5233  2.4050 -1.1007
11595TIP3    H256201   6.113   4.765   0.902 -1.7300 -0.3022 -1.2145
11596TIP3   OH256202   4.375   2.516   1.562 -0.0966  0.0057  0.1247
11596TIP3    H156203   4.369   2.573   1.486  1.0218 -0.8645 -0.6413
11596TIP3    H256204   4.465   2.483   1.561  0.1305  0.4243  2.1591
11597TIP3   OH256205   3.646   6.039  13.352  0.7019 -0.5062  0.5027
11597TIP3    H156206   3.665   6.108  13.417  1.5544  1.3723 -1.6015
11597TIP3    H256207   3.730   6.023  13.309 -0.0652 -0.7725 -0.9669
11598TIP3   OH256208   1.834   1.284  14.160 -0.1864 -0.3302 -0.1620
11598TIP3    H156209   1.802   1.322  14.078 -1.2614  0.4609  0.5909
11598TIP3    H256210   1.823   1.189  14.147  1.0387 -0.3324 -1.4576
11599TIP3   OH256211   5.981   1.060  14.573 -0.7058  0.1549 -0.1254
11599TIP3    H156212   6.003   1.009  14.496 -0.8846 -0.2915  0.1151
11599TIP3    H256213   5.976   0.996  14.644 -1.8272  0.3779  0.0099
11600TIP3   OH256214   5.494   1.765  10.863 -0.5126  0.1900  0.4121
11600TIP3    H156215   5.401   1.747  10.873 -0.6390  1.5065  2.0794
11600TIP3    H256216   5.499   1.829  10.792 -0.7709 -0.5750 -0.3083
11601TIP3   OH256217   1.003   3.317  10.958  0.0007 -0.4728  0.8378
11601TIP3    H156218   0.984   3.223  10.955  0.5549 -0.5624 -0.8787
11601TIP3    H256219   0.935   3.357  10.904  0.0972  0.0550  1.1009
11602TIP3   OH256220   3.877   4.326  14.979  0.2196 -0.0975  0.2905
11602TIP3    H156221   3.850   4.364  15.063  0.8182 -1.0467  0.9338
11602TIP3    H256222   3.973   4.320  14.986  0.1782 -1.2152 -0.0046
11603TIP3   OH256223   5.163   2.211   6.770 -0.7947 -0.3080  0.1403
11603TIP3    H156224   5.112   2.186   6.847 -1.0050  0.4444  0.2495
11603TIP3    H256225   5.162   2.133   6.715 -1.3114 -0.5945  0.5447
11604TIP3   OH256226   2.485   3.913  12.925  0.1286  0.2252  0.4568
11604TIP3    H156227   2.575   3.923  12.895 -0.1882  0.0860 -0.5729
11604TIP3    H256228   2.467   3.819  12.917  1.0280 -0.4358  4.0841
11605TIP3   OH256229   4.505   3.562   1.791 -0.5123  0.3617  0.4008
11605TIP3    H156230   4.495   3.657   1.783  0.1050  0.3582 -0.5744
11605TIP3    H256231   4.558   3.550   1.870  0.4818  0.9127 -0.1592
11606TIP3   OH256232   3.558   1.232   0.586 -0.0530 -0.6473 -0.8388
11606TIP3    H156233   3.479   1.286   0.587 -0.1232 -0.7322 -1.5630
11606TIP3    H256234   3.580   1.221   0.679 -1.1584 -1.0172 -0.6041
11607TIP3   OH256235   0.609   1.295   4.406 -0.3698 -0.0066 -0.7695
11607TIP3    H156236   0.613   1.374   4.353  0.9502 -0.1392 -0.8907
11607TIP3    H256237   0.584   1.225   4.345 -2.3510  0.4258 -0.5074
11608TIP3   OH256238   6.003   3.728  13.403 -0.4378 -0.3886 -0.2614
11608TIP3    H156239   5.921   3.710  13.357  0.0876 -0.1522 -1.3140
11608TIP3    H256240   6.050   3.645  13.402 -0.1813 -0.2395 -0.6566
11609TIP3   OH256241   1.143   5.570   5.340 -0.1821 -0.5381  0.1976
11609TIP3    H156242   1.136   5.491   5.287  0.6168 -0.3028 -0.2799
11609TIP3    H256243   1.064   5.621   5.319 -0.0642 -0.6258 -0.4723
11610TIP3   OH256244   4.859   2.734  15.225  0.0475  0.6856 -0.0499
11610TIP3    H156245   4.930   2.738  15.161  2.1410 -0.8118  2.0342
11610TIP3    H256246   4.837   2.641  15.232  1.4174  0.4753  2.8972
11611TIP3   OH256247   2.937   6.547   6.288 -0.5009  0.1462 -0.1712
11611TIP3    H156248   3.023   6.589   6.290 -1.4000  2.0874  1.7841
11611TIP3    H256249   2.878   6.615   6.254 -1.3285 -1.0961 -1.3293
11612TIP3   OH256250   4.241   1.400   6.761 -0.0912  0.1323 -0.3617
11612TIP3    H156251   4.304   1.439   6.822  0.1945 -0.9748  0.0746
11612TIP3    H256252   4.207   1.474   6.711 -0.3189  1.0806  1.1344
11613TIP3   OH256253   2.201   2.149   0.503 -0.8860 -0.7596 -0.1161
11613TIP3    H156254   2.129   2.144   0.440  0.9480  0.3537 -2.4145
11613TIP3    H256255   2.220   2.058   0.524 -0.6702 -1.2722 -2.2827
11614TIP3   OH256256   2.307   4.924   2.242 -0.3069 -0.5371  0.4360
11614TIP3    H156257   2.370   4.966   2.301  0.9719 -1.5292 -0.1730
11614TIP3    H256258   2.242   4.885   2.300 -0.2403  0.3094  1.0941
11615TIP3   OH256259   5.757   4.036  13.436  0.0203  0.1217  0.5870
11615TIP3    H156260   5.748   4.096  13.510  1.9322 -0.4028  1.3116
11615TIP3    H256261   5.673   3.992  13.431 -0.5483  1.0329  1.6881
11616TIP3   OH256262   6.382   1.014   1.878 -0.4607  0.4823 -0.1529
11616TIP3    H156263   6.374   1.095   1.928  0.9671  1.7989 -1.9620
11616TIP3    H256264   6.425   0.953   1.939 -0.7326  1.3287  0.9159
11617TIP3   OH256265   5.835   1.153  16.382 -0.2776  0.0176 -0.0251
11617TIP3    H156266   5.860   1.077  16.434  0.2924 -1.3416 -2.1814
11617TIP3    H256267   5.909   1.213  16.392  0.1672 -0.5433  0.1192
11618TIP3   OH256268   1.139   5.029  12.056 -0.2076  0.3964 -0.0424
11618TIP3    H156269   1.212   4.993  12.006 -1.5066 -0.0888 -1.6667
11618TIP3    H256270   1.165   5.017  12.148  1.0424 -1.2623 -0.5618
11619TIP3   OH256271   1.095   3.678   5.549 -0.1390  0.0105 -0.0130
11619TIP3    H156272   1.185   3.693   5.578  0.9807 -1.9560 -2.1321
11619TIP3    H256273   1.087   3.729   5.468 -1.3007  0.9159  0.6338
11620TIP3   OH256274   5.738   1.216   3.346 -0.3520  0.2614  0.0033
11620TIP3    H156275   5.799   1.210   3.420 -1.6519  0.2431  1.1042
11620TIP3    H256276   5.767   1.293   3.297  2.5425 -1.5101 -1.3887
11621TIP3   OH256277   0.974   1.879   2.797  0.0916 -0.3853 -0.3018
11621TIP3    H156278   1.012   1.962   2.825  1.2321 -0.6556 -0.9519
11621TIP3    H256279   0.989   1.819   2.870  0.4242 -0.3470 -0.3383
11622TIP3   OH256280   1.624   2.517   6.569 -0.3322  1.0606  0.7786
11622TIP3    H156281   1.608   2.539   6.661  0.2847  1.3137  0.8259
11622TIP3    H256282   1.719   2.525   6.558 -0.4078  1.0874  0.1037
11623TIP3   OH256283   0.924   6.504  15.296  0.8181 -0.5904 -0.3191
11623TIP3    H156284   1.013   6.477  15.274  0.8924 -0.6443  0.0396
11623TIP3    H256285   0.888   6.539  15.214  1.0142 -0.9861 -0.5751
11624TIP3   OH256286   1.478   3.747   2.088  0.0141 -0.4012  0.6303
11624TIP3    H156287   1.550   3.683   2.088  1.1765  0.6596 -2.8915
11624TIP3    H256288   1.407   3.703   2.042 -0.0148 -0.0310  0.3100
11625TIP3   OH256289   2.074   1.229  15.820 -0.3963  0.2108  0.5292
11625TIP3    H156290   2.071   1.134  15.816 -0.2097  0.2297 -1.8621
11625TIP3    H256291   2.070   1.250  15.913  1.2650 -2.1705  1.2280
11626TIP3   OH256292   4.934   3.450  13.870 -0.4449 -0.4697 -0.2787
11626TIP3    H156293   5.002   3.504  13.911 -0.8784  2.5509 -3.1800
11626TIP3    H256294   4.856   3.465  13.924  0.0599 -0.2463  0.4071
11627TIP3   OH256295   6.538   3.578   2.712  0.1226 -0.5829  0.1395
11627TIP3    H156296   6.521   3.630   2.634 -1.4264 -0.3915  0.5661
11627TIP3    H256297   6.477   3.504   2.706  0.9652 -1.3283  0.4860
11628TIP3   OH256298   6.755   3.918   4.482 -0.1218  0.2908 -0.0437
11628TIP3    H156299   6.669   3.957   4.468  0.4691  2.0373  0.8862
11628TIP3    H256300   6.770   3.924   4.576  1.4597  1.0577 -0.2986
11629TIP3   OH256301   0.872   3.465   5.485 -0.3010 -0.6194 -0.3718
11629TIP3    H156302   0.916   3.388   5.521 -2.0014 -1.3884  0.1212
11629TIP3    H256303   0.909   3.538   5.534 -1.7690 -1.5291  2.2802
11630TIP3   OH256304   3.700   6.377  14.705  0.2884 -0.3721  0.7590
11630TIP3    H156305   3.703   6.301  14.647 -0.7939 -0.2629  0.5448
11630TIP3    H256306   3.609   6.407  14.700  0.4627  0.3187  1.6377
11631TIP3   OH256307   0.104   1.421  14.287  0.0202 -0.1652  0.2929
11631TIP3    H156308   0.044   1.382  14.351  0.3977 -0.5511  0.4217
11631TIP3    H256309   0.181   1.445  14.339 -0.2692  0.9034  0.2391
11632TIP3   OH256310   2.640   4.660  13.773 -0.0158 -0.7739 -0.3777
11632TIP3    H156311   2.726   4.640  13.810  0.4898  1.0381 -0.4929
11632TIP3    H256312   2.645   4.752  13.747 -2.4370 -0.1716  0.8841
11633TIP3   OH256313   5.333   6.772   1.304  0.4657 -0.2915  0.1213
11633TIP3    H156314   5.410   6.799   1.354 -0.4959  0.8715  1.0494
11633TIP3    H256315   5.321   6.680   1.327  0.6620 -0.0635  1.2368
11634TIP3   OH256316   2.382   2.036   1.669 -0.3912 -0.0763  0.1019
11634TIP3    H156317   2.287   2.030   1.671 -0.4678  0.6579 -0.7238
11634TIP3    H256318   2.411   1.955   1.627 -0.8311  0.9162 -2.2073
11635TIP3   OH256319   3.977   2.330  14.641  0.3914  0.0954 -0.8606
11635TIP3    H156320   3.894   2.295  14.608 -0.4894  1.8299 -0.5700
11635TIP3    H256321   3.966   2.425  14.640  1.5294  0.3128  1.3409
11636TIP3   OH256322   1.397   1.725  17.247  0.9410  0.1042  0.2265
11636TIP3    H156323   1.434   1.667  17.314  0.7413  0.1566  0.3858
11636TIP3    H256324   1.310   1.689  17.230  1.0457  0.0098 -0.1088
11637TIP3   OH256325   5.315   1.945  11.936 -0.0984 -0.1693  0.1240
11637TIP3    H156326   5.329   1.864  11.985  1.0127  1.1722  2.1855
11637TIP3    H256327   5.229   1.935  11.896 -0.1855 -2.1601  0.7179
11638TIP3   OH256328   2.988   2.643  10.944 -0.0765  0.0663 -0.7351
11638TIP3    H156329   3.017   2.732  10.963 -1.1810  0.9402 -2.8557
11638TIP3    H256330   2.899   2.652  10.911 -1.2584 -2.1360  1.5123
11639TIP3   OH256331   4.445   3.109   0.533 -0.1723 -0.1587 -0.0882
11639TIP3    H156332   4.503   3.185   0.533 -0.4066  0.0210  0.0507
11639TIP3    H256333   4.366   3.138   0.579 -0.5584 -0.2641 -0.6693
11640TIP3   OH256334   0.214   3.079   3.948 -0.2983  0.7595 -0.0152
11640TIP3    H156335   0.309   3.067   3.954 -0.0967  2.4194  0.9950
11640TIP3    H256336   0.198   3.161   3.995 -2.2675  0.4014  0.0263
11641TIP3   OH256337   2.414   1.125  16.983 -0.0188  0.2682 -0.3761
11641TIP3    H156338   2.493   1.090  16.941  0.4528 -0.9817  1.4002
11641TIP3    H256339   2.346   1.061  16.964  0.2691 -0.4627  0.9199
11642TIP3   OH256340   4.405   0.625   0.443  0.1955 -0.8326 -0.0994
11642TIP3    H156341   4.326   0.576   0.424  0.1482  0.0084 -2.3122
11642TIP3    H256342   4.430   0.664   0.360  2.0109  0.2912  0.9059
11643TIP3   OH256343   0.134   3.806  13.251 -0.1707  0.2550  0.3011
11643TIP3    H156344   0.200   3.830  13.316 -0.1144  0.2922  0.2307
11643TIP3    H256345   0.057   3.857  13.275 -0.3338 -0.1676  0.6832
11644TIP3   OH256346   3.905   2.215  13.743 -0.1362 -0.0956 -0.3697
11644TIP3    H156347   3.838   2.159  13.704 -0.1326 -0.0119 -0.4995
11644TIP3    H256348   3.903   2.194  13.836  0.0110 -0.4649 -0.4461
11645TIP3   OH256349   0.861   5.224  16.757  0.5897 -0.6594  0.1119
11645TIP3    H156350   0.902   5.144  16.724 -1.4100 -1.1104 -1.5193
11645TIP3    H256351   0.785   5.193  16.807  1.0647  0.1915  1.4187
11646TIP3   OH256352   2.898   4.762   4.243  0.6147  0.4048 -0.4061
11646TIP3    H156353   2.948   4.681   4.236 -0.2350 -0.1369 -0.3885
11646TIP3    H256354   2.809   4.733   4.262  0.2824  1.3444 -0.4962
11647TIP3   OH256355   2.392   3.196  11.173  0.0046  0.0274 -0.2920
11647TIP3    H156356   2.365   3.215  11.083 -0.3794  1.3497  0.0722
11647TIP3    H256357   2.430   3.279  11.204 -1.1219  0.0211  1.2154
11648TIP3   OH256358   0.893   2.850   4.874  0.0615 -0.2155 -0.3358
11648TIP3    H156359   0.951   2.898   4.815  0.8877 -1.0706 -0.2243
11648TIP3    H256360   0.942   2.772   4.900 -0.3731 -0.0080  1.2671
11649TIP3   OH256361   0.702   4.506  11.208 -0.0587 -0.4540 -0.2517
11649TIP3    H156362   0.641   4.579  11.196  0.7079  0.2951  0.2714
11649TIP3    H256363   0.661   4.450  11.274  0.1379  0.4254  0.6365
11650TIP3   OH256364   3.928   2.535  17.303  0.3611 -0.0193  0.5007
11650TIP3    H156365   4.017   2.564  17.318  0.8096 -1.0111 -0.1399
11650TIP3    H256366   3.920   2.531  17.207 -0.2280 -0.3773  0.5616
11651TIP3   OH256367   2.308   5.884  11.850 -0.2534 -0.0891 -0.7151
11651TIP3    H156368   2.361   5.959  11.874 -0.1397 -0.6782  1.0074
11651TIP3    H256369   2.368   5.827  11.801  0.4663 -0.2959  0.3623
11652TIP3   OH256370   6.511   3.647   6.362  0.1541 -0.1443  0.3911
11652TIP3    H156371   6.468   3.719   6.407  0.0275 -1.4029  2.4562
11652TIP3    H256372   6.441   3.599   6.318 -0.0094  0.0050  0.4913
11653TIP3   OH256373   1.716   1.472   3.913  0.1249  0.5019  0.2599
11653TIP3    H156374   1.703   1.397   3.855  1.2585  0.2022  0.3765
11653TIP3    H256375   1.726   1.434   4.000  1.9991  0.6407  0.1576
11654TIP3   OH256376   5.412   2.552  16.297  0.5069 -0.3149  0.1223
11654TIP3    H156377   5.454   2.516  16.219  2.0849 -1.4831  1.4244
11654TIP3    H256378   5.476   2.613  16.333  0.5804 -1.1291  1.4399
11655TIP3   OH256379   0.906   3.210   0.494  0.6067 -0.1832 -0.0917
11655TIP3    H156380   0.831   3.163   0.531  1.0229 -0.5377  0.3033
11655TIP3    H256381   0.932   3.158   0.418  0.8928 -0.4419  0.1828
11656TIP3   OH256382   0.089   1.866   1.278  0.2032 -0.2784 -0.3888
11656TIP3    H156383   0.071   1.802   1.209  0.5720  0.7485 -1.4890
11656TIP3    H256384   0.133   1.938   1.232  1.8045 -0.1955  1.1891
11657TIP3   OH256385   0.075   2.229  13.322  0.6318 -0.1029  0.4752
11657TIP3    H156386   0.060   2.140  13.289  1.5621  0.0758 -0.4619
11657TIP3    H256387   0.108   2.215  13.411 -2.1003 -0.5794  1.5403
11658TIP3   OH256388   0.310   3.094  13.345  0.0554 -0.3542  0.3919
11658TIP3    H156389   0.228   3.084  13.392  0.9137 -2.7143  1.5406
11658TIP3    H256390   0.291   3.064  13.256 -0.4366 -0.4962  0.5426
11659TIP3   OH256391   1.635   1.934   3.761  0.3073  0.3738 -0.4940
11659TIP3    H156392   1.565   1.941   3.696 -0.1501  0.0965 -0.0401
11659TIP3    H256393   1.637   2.019   3.804  0.3676  0.4402 -0.6283
11660TIP3   OH256394   0.842   5.455  14.881 -0.1881 -0.1903 -0.3507
11660TIP3    H156395   0.886   5.458  14.796  0.1952 -1.8362 -0.2449
11660TIP3    H256396   0.823   5.547  14.902  1.1855  0.3670 -1.4297
11661TIP3   OH256397   5.406   6.267  15.320  0.3939 -0.0687 -0.0769
11661TIP3    H156398   5.356   6.314  15.388  1.6596  1.8713 -0.4209
11661TIP3    H256399   5.469   6.331  15.288  0.7016 -1.3443 -2.2050
11662TIP3   OH256400   2.162   2.885   4.940  0.2709  0.0251 -0.5107
11662TIP3    H156401   2.074   2.889   4.903  0.6072 -1.1584 -1.5042
11662TIP3    H256402   2.217   2.929   4.875  0.3967  0.9482  0.2061
11663TIP3   OH256403   0.551   2.778   1.199  0.3253  0.8362  0.3761
11663TIP3    H156404   0.597   2.807   1.120  1.1867 -0.8004  0.2326
11663TIP3    H256405   0.620   2.753   1.260 -0.3413 -0.5726  0.5930
11664TIP3   OH256406   0.194   3.967   1.919  0.1478  0.0062 -0.4518
11664TIP3    H156407   0.109   3.924   1.929  0.4192 -0.8224 -1.5077
11664TIP3    H256408   0.174   4.060   1.915 -0.4530  0.0435  1.9368
11665TIP3   OH256409   4.426   0.188   5.518  0.6968 -0.3905  0.5052
11665TIP3    H156410   4.443   0.163   5.609 -0.2914  0.7809  1.0440
11665TIP3    H256411   4.400   0.106   5.475  0.2352 -0.7929  1.5213
11666TIP3   OH256412   3.422   3.917   5.684 -0.1749  0.0165 -0.0167
11666TIP3    H156413   3.351   3.980   5.692 -1.5585 -1.6726  2.0648
11666TIP3    H256414   3.385   3.845   5.633 -0.0524 -0.9251  1.1688
11667TIP3   OH256415   1.696   2.850   0.118  0.4118 -0.7831  0.4153
11667TIP3    H156416   1.776   2.881   0.075  0.9091 -1.5274  0.7877
11667TIP3    H256417   1.638   2.825   0.045 -0.0109  0.9368  0.0907
11668TIP3   OH256418   2.390   2.113   5.871  0.6170 -0.2446 -0.2634
11668TIP3    H156419   2.379   2.200   5.834  0.4206  0.0090  0.3848
11668TIP3    H256420   2.341   2.115   5.953  1.5043 -0.6160  0.2888
11669TIP3   OH256421   2.896   1.936   2.550 -0.1970 -0.4127 -0.1968
11669TIP3    H156422   2.973   1.924   2.495 -1.5338  0.3768 -2.3851
11669TIP3    H256423   2.824   1.898   2.499 -1.2723 -1.2600  1.8388
11670TIP3   OH256424   5.302   1.158  15.254  0.0680 -0.1321 -0.1100
11670TIP3    H156425   5.213   1.145  15.223  0.4609  0.1830 -1.4076
11670TIP3    H256426   5.357   1.141  15.178  1.2058 -1.5348  0.9775
11671TIP3   OH256427   2.333   3.186  15.650  0.6379  0.2712  0.5596
11671TIP3    H156428   2.419   3.160  15.616  1.8723  1.4756  2.5693
11671TIP3    H256429   2.336   3.161  15.742 -0.7334  1.3853  0.9255
11672TIP3   OH256430   2.700   5.274  15.491 -0.4779  0.9669 -0.0606
11672TIP3    H156431   2.682   5.196  15.544  2.4937 -1.0967 -1.7405
11672TIP3    H256432   2.760   5.326  15.544  2.2592 -0.9516 -1.0420
11673TIP3   OH256433   6.233   6.665   3.424  0.0813 -0.4730 -0.5472
11673TIP3    H156434   6.218   6.634   3.334 -2.2076 -1.4046  0.0855
11673TIP3    H256435   6.316   6.624   3.450 -0.2967 -1.9481 -1.5198
11674TIP3   OH256436   1.956   5.952   3.649 -0.0893  0.1436  0.0583
11674TIP3    H156437   1.889   6.011   3.681  0.7369  0.7858  0.6656
11674TIP3    H256438   1.981   5.900   3.725  0.3677  0.1733 -0.0679
11675TIP3   OH256439   4.190   2.208  12.152  0.4622  0.0408  0.3568
11675TIP3    H156440   4.219   2.297  12.130  1.6140 -0.3456  0.2531
11675TIP3    H256441   4.140   2.180  12.075 -0.6605  0.8959  0.7404
11676TIP3   OH256442   4.855   4.723   1.161 -0.1917  0.5264 -0.3099
11676TIP3    H156443   4.837   4.640   1.116 -0.6841  0.8221 -0.6754
11676TIP3    H256444   4.769   4.751   1.194 -0.1397  1.1797 -0.7027
11677TIP3   OH256445   2.055   6.041  14.152  0.1729  0.0294 -0.0765
11677TIP3    H156446   2.031   6.068  14.063 -1.7410  1.1079  0.7201
11677TIP3    H256447   2.150   6.055  14.155  0.1097  1.1370 -1.5793
11678TIP3   OH256448   4.433   4.007  12.915  0.3541 -0.3321 -0.1865
11678TIP3    H156449   4.410   3.932  12.858  2.6199 -2.7965  1.8800
11678TIP3    H256450   4.504   4.051  12.868  0.2882 -0.6027 -0.5525
11679TIP3   OH256451   0.818   2.646  11.757  0.1060 -0.3635  0.1962
11679TIP3    H156452   0.801   2.613  11.669 -0.6711  1.9696 -0.5868
11679TIP3    H256453   0.910   2.627  11.772 -0.5091 -4.0536  0.4212
11680TIP3   OH256454   3.751   4.814   5.121 -0.0669 -0.0736  0.6008
11680TIP3    H156455   3.761   4.731   5.168 -2.2275  0.5048  2.2478
11680TIP3    H256456   3.711   4.789   5.038  0.4724 -0.7650  0.5298
11681TIP3   OH256457   2.174   0.099  15.086 -0.2100 -0.0169 -0.1962
11681TIP3    H156458   2.118   0.085  15.163  0.0632 -0.4465 -0.0760
11681TIP3    H256459   2.112   0.107  15.013 -0.4358 -0.4366 -0.0560
11682TIP3   OH256460   4.277   6.220  16.317  0.6905 -0.2232  0.3952
11682TIP3    H156461   4.266   6.303  16.365  0.0444  0.6113 -1.1237
11682TIP3    H256462   4.266   6.152  16.384 -2.2040  0.8477  1.1481
11683TIP3   OH256463   0.587   0.970   2.630 -0.4572 -0.2041  0.3596
11683TIP3    H156464   0.591   0.945   2.722 -0.8881  0.7539  0.6448
11683TIP3    H256465   0.649   0.912   2.587 -0.1778 -0.5912  1.2656
11684TIP3   OH256466   3.273   3.978  16.759 -0.0513 -0.6041 -0.1769
11684TIP3    H156467   3.307   3.982  16.848 -1.4940  0.2820  0.3683
11684TIP3    H256468   3.350   3.989  16.703  0.6158  1.0149  0.9978
11685TIP3   OH256469   2.714   2.033   6.393 -0.1134  0.0578 -0.0059
11685TIP3    H156470   2.722   1.946   6.352 -0.9339  0.0177 -0.0972
11685TIP3    H256471   2.681   2.089   6.323 -0.4257  0.2431  0.2898
11686TIP3   OH256472   4.480   2.478   5.185  0.6143  0.4748  0.4453
11686TIP3    H156473   4.517   2.436   5.262  1.1973 -1.0384 -0.6091
11686TIP3    H256474   4.547   2.466   5.117 -1.1078 -0.9878 -1.1049
11687TIP3   OH256475   5.122   1.751   4.413  0.2836 -0.3483 -0.1249
11687TIP3    H156476   5.201   1.806   4.406  0.2506 -0.3523 -0.5769
11687TIP3    H256477   5.050   1.811   4.395 -0.1132  0.3834  3.2259
11688TIP3   OH256478   2.561   2.843  16.244 -0.8123  0.1436  0.8591
11688TIP3    H156479   2.542   2.750  16.236 -2.0358  0.4479 -0.1184
11688TIP3    H256480   2.492   2.876  16.301 -0.4771  0.4799  1.0718
11689TIP3   OH256481   2.066   2.403  13.082  0.0845  0.0198 -0.7595
11689TIP3    H156482   2.114   2.365  13.156 -0.0135 -0.1169 -0.7661
11689TIP3    H256483   2.073   2.337  13.013  0.2530  0.1871 -0.9013
11690TIP3   OH256484   1.740   5.389  16.399  0.6961 -0.4729  0.5779
11690TIP3    H156485   1.835   5.384  16.412  0.6580 -2.1569  0.5153
11690TIP3    H256486   1.729   5.432  16.315  1.4094 -0.3455  0.5455
11691TIP3   OH256487   2.519   5.486   5.312 -0.7045 -0.1467 -0.1463
11691TIP3    H156488   2.539   5.527   5.228 -0.5271  1.2462  0.5535
11691TIP3    H256489   2.510   5.393   5.291 -2.9790  0.4038 -2.1101
11692TIP3   OH256490   2.895   5.231  14.434 -0.3998 -0.2854  0.5249
11692TIP3    H156491   2.846   5.313  14.427  2.3315  1.4234  0.0785
11692TIP3    H256492   2.949   5.242  14.512  2.6608  0.0014 -1.4525
11693TIP3   OH256493   2.359   2.848  13.996 -1.0249 -0.0024  0.1425
11693TIP3    H156494   2.419   2.801  14.054  0.5554  1.4933 -0.1865
11693TIP3    H256495   2.311   2.779  13.950  0.1790 -1.2712  0.7097
11694TIP3   OH256496   1.703   1.479   3.347  0.7674 -0.3584 -0.1599
11694TIP3    H156497   1.673   1.532   3.421 -1.1310  0.0615 -1.1540
11694TIP3    H256498   1.671   1.391   3.364  1.4714 -0.5663  0.1298
11695TIP3   OH256499   3.975   0.079   2.771 -0.5443 -0.2565 -0.6064
11695TIP3    H156500   3.992   0.073   2.677 -0.0648 -1.4795 -0.4553
11695TIP3    H256501   4.018   0.002   2.808 -1.9925 -0.6029  0.4384
11696TIP3   OH256502   0.170   3.323  11.845  0.7455  0.8673 -0.1756
11696TIP3    H156503   0.127   3.407  11.829 -0.1196  0.1288 -1.9508
11696TIP3    H256504   0.261   3.346  11.867  0.3993  2.2673 -0.1231
11697TIP3   OH256505   0.113   4.135  13.847 -0.4300 -0.3157  0.9204
11697TIP3    H156506   0.047   4.181  13.796  0.3361 -0.3220 -0.1103
11697TIP3    H256507   0.196   4.175  13.821  0.0409 -0.8049  1.6353
11698TIP3   OH256508   6.199   4.113   0.596  0.3061 -0.7273 -0.1970
11698TIP3    H156509   6.177   4.036   0.648 -1.5820 -0.0851  0.0359
11698TIP3    H256510   6.117   4.163   0.591  1.6762  1.7628  0.4827
11699TIP3   OH256511   1.897   0.835   1.532 -0.5081  0.7613  0.0606
11699TIP3    H156512   1.802   0.841   1.543 -0.7609 -1.3292 -0.5159
11699TIP3    H256513   1.909   0.771   1.461  1.3409  0.0595  0.9436
11700TIP3   OH256514   2.894   0.834  12.213 -0.1666 -0.5652 -0.0719
11700TIP3    H156515   2.851   0.829  12.298  0.2953  0.8770  0.2886
11700TIP3    H256516   2.852   0.908  12.169  2.7344  1.8532  0.8526
11701TIP3   OH256517   6.394   1.998  16.102 -0.0384  0.2941 -0.1212
11701TIP3    H156518   6.365   2.089  16.103 -0.9912  0.0097 -0.5103
11701TIP3    H256519   6.347   1.957  16.175 -0.0536 -0.0138 -0.3013
11702TIP3   OH256520   5.506   2.079  11.814  0.0604 -0.2169  0.0450
11702TIP3    H156521   5.569   2.057  11.882 -0.7616 -0.1479  0.8480
11702TIP3    H256522   5.421   2.049  11.849 -0.4237  0.1485 -0.7853
11703TIP3   OH256523   4.122   0.130   5.238 -0.3647 -0.1791 -0.3671
11703TIP3    H156524   4.147   0.126   5.146 -0.0473 -1.9417 -0.2309
11703TIP3    H256525   4.026   0.129   5.237 -0.3753 -2.2739 -0.6493
11704TIP3   OH256526   0.440   5.256  11.376 -0.0177  0.5636 -0.4864
11704TIP3    H156527   0.475   5.344  11.376  1.9001 -0.1180  1.4870
11704TIP3    H256528   0.486   5.211  11.306 -1.1090  1.1208 -1.5957
11705TIP3   OH256529   1.174   3.200  15.223 -0.5142 -0.7694  0.4548
11705TIP3    H156530   1.205   3.135  15.159  0.2854  1.6906 -1.8521
11705TIP3    H256531   1.086   3.221  15.193  0.0183  0.7033 -0.1301
11706TIP3   OH256532   6.731   1.467  13.274  0.5876 -1.0142 -0.5239
11706TIP3    H156533   6.710   1.389  13.325  1.4636 -0.5948  0.5296
11706TIP3    H256534   6.765   1.432  13.191  4.6573 -2.0247  1.2884
11707TIP3   OH256535   4.196   3.406  13.636 -0.1932  0.2489 -0.0755
11707TIP3    H156536   4.123   3.461  13.666  0.0363  0.0777  0.8237
11707TIP3    H256537   4.165   3.317  13.649 -0.4028  0.1623 -1.1374
11708TIP3   OH256538   1.924   0.934  14.889  0.1656 -0.4589  0.6097
11708TIP3    H156539   1.885   0.849  14.911 -0.5038 -0.5359 -0.7966
11708TIP3    H256540   1.900   0.991  14.962 -0.1032 -1.2541  1.1550
11709TIP3   OH256541   3.037   5.992   2.677  0.2921  0.4075  0.0372
11709TIP3    H156542   2.981   6.002   2.755  0.8873  0.5038  0.4605
11709TIP3    H256543   3.014   6.067   2.622  1.9271  2.0328  1.4434
11710TIP3   OH256544   5.447   2.587  12.628  0.2505  0.0673 -0.2143
11710TIP3    H156545   5.394   2.664  12.608  1.0013  1.3208  2.2836
11710TIP3    H256546   5.447   2.537  12.546 -0.1019  2.7912 -2.0274
11711TIP3   OH256547   2.807   4.003  13.183 -0.1121  0.0878  0.5577
11711TIP3    H156548   2.841   3.930  13.234  0.2822 -1.0545 -1.2272
11711TIP3    H256549   2.885   4.043  13.144 -0.5155 -0.4868 -0.9143
11712TIP3   OH256550   0.957   1.489   4.607  0.4373  0.1966  0.5507
11712TIP3    H156551   0.927   1.409   4.649 -0.5830  0.1108 -0.2947
11712TIP3    H256552   0.903   1.496   4.528  0.8940  1.4232  0.3289
11713TIP3   OH256553   4.709   1.153   3.775 -0.9269  0.4592  0.3234
11713TIP3    H156554   4.686   1.178   3.864  0.3766  1.1330  0.5035
11713TIP3    H256555   4.668   1.220   3.720 -1.4599  0.2254  0.4257
11714TIP3   OH256556   6.463   4.977  15.349  0.1632  0.0075 -0.1506
11714TIP3    H156557   6.372   4.982  15.319 -0.3280 -0.6808  1.1720
11714TIP3    H256558   6.472   5.049  15.411  1.1105  1.2705 -1.6520
11715TIP3   OH256559   1.658   3.354  13.908 -0.0067  0.0726  0.1168
11715TIP3    H156560   1.653   3.339  13.813  1.8151 -0.9936  0.1581
11715TIP3    H256561   1.588   3.300  13.944 -2.1040  2.0628 -0.7048
11716TIP3   OH256562   0.259   3.319   6.431 -0.3669 -0.2228  0.3816
11716TIP3    H156563   0.252   3.360   6.344 -1.4035 -2.1372 -0.4995
11716TIP3    H256564   0.348   3.339   6.459 -0.2526  1.0917 -0.7646
11717TIP3   OH256565   3.456   1.442   0.315  0.3803 -0.0052 -0.1235
11717TIP3    H156566   3.390   1.487   0.368  0.1774  1.0942 -1.2399
11717TIP3    H256567   3.419   1.355   0.299  0.0228 -0.0197  0.7263
11718TIP3   OH256568   4.197   1.953   4.206 -0.6911  0.2914  0.1874
11718TIP3    H156569   4.288   1.967   4.180 -0.3700 -0.4652  0.8581
11718TIP3    H256570   4.172   2.034   4.251 -0.1379  0.2627  0.5587
11719TIP3   OH256571   5.354   4.264  15.424 -0.2889  0.1347 -0.5966
11719TIP3    H156572   5.270   4.220  15.411  0.3995 -1.1842 -0.8018
11719TIP3    H256573   5.398   4.212  15.492 -0.4383  2.0182  1.0070
11720TIP3   OH256574   1.272   0.744   2.636  0.3500  0.2298  0.1915
11720TIP3    H156575   1.331   0.693   2.580 -1.3433 -1.3061 -0.2755
11720TIP3    H256576   1.191   0.751   2.585 -0.3142  1.1732  1.3380
11721TIP3   OH256577   4.341   4.562   3.296  0.2204  0.6060  0.8927
11721TIP3    H156578   4.376   4.648   3.273  2.9390 -0.2790  1.3889
11721TIP3    H256579   4.355   4.508   3.219 -1.0705  0.4417  0.7404
11722TIP3   OH256580   1.162   1.566  12.347 -0.4673  0.1757  0.0618
11722TIP3    H156581   1.094   1.508  12.312 -0.0993 -0.4184  0.3070
11722TIP3    H256582   1.241   1.541  12.298 -0.5389  1.2610 -0.6370
11723TIP3   OH256583   6.002   6.439   1.206  0.3604 -0.0209  0.2959
11723TIP3    H156584   5.941   6.369   1.184  1.7626 -1.6448  1.3643
11723TIP3    H256585   5.974   6.513   1.152 -1.0256 -1.4484 -1.0341
11724TIP3   OH256586   3.844   5.652   4.888  0.3761  0.1097 -0.4240
11724TIP3    H156587   3.773   5.681   4.831  1.0110  0.3871 -1.0809
11724TIP3    H256588   3.873   5.731   4.933 -0.8898 -0.2880  1.1932
11725TIP3   OH256589   3.178   2.269   0.268  0.1696  0.1026  0.6252
11725TIP3    H156590   3.087   2.242   0.274  0.0570 -0.2543 -1.9159
11725TIP3    H256591   3.175   2.365   0.263 -0.0734  0.0786  0.3294
11726TIP3   OH256592   6.642   3.930  12.600 -0.2085  0.3339 -0.1982
11726TIP3    H156593   6.570   3.918  12.662  0.6929  0.0958  0.8432
11726TIP3    H256594   6.719   3.940  12.656  0.4742  1.2684 -1.2697
11727TIP3   OH256595   3.161   6.155  15.074  0.1826 -0.2180  0.1953
11727TIP3    H156596   3.213   6.230  15.105  0.7570 -0.2222 -0.7158
11727TIP3    H256597   3.071   6.177  15.098  0.6326 -0.5268  2.4372
11728TIP3   OH256598   6.437   6.492  13.154  0.0538  0.2068  0.6698
11728TIP3    H156599   6.518   6.535  13.126  0.4389 -0.4287  0.7946
11728TIP3    H256600   6.371   6.525  13.094  0.8098 -0.9278 -0.8514
11729TIP3   OH256601   3.006   1.504  13.846 -0.1234  0.4457 -0.0086
11729TIP3    H156602   2.970   1.534  13.930  0.8237 -0.0782  0.6044
11729TIP3    H256603   3.022   1.410  13.859  3.7561  1.0413  0.6543
11730TIP3   OH256604   6.231   5.411   3.315  0.1953  0.0902 -0.8855
11730TIP3    H156605   6.319   5.396   3.349  0.0532  0.4698 -0.3453
11730TIP3    H256606   6.243   5.469   3.240  0.2987  1.1523 -0.0665
11731TIP3   OH256607   5.492   3.196   3.441 -0.6937  0.5025  0.5921
11731TIP3    H156608   5.449   3.234   3.517  0.9398 -1.7960  2.8352
11731TIP3    H256609   5.429   3.132   3.407 -0.8547  0.4451  0.9925
11732TIP3   OH256610   3.415   5.079   5.426 -0.1754  0.3639  0.0613
11732TIP3    H156611   3.392   5.150   5.367  0.1871  0.9261  0.5845
11732TIP3    H256612   3.433   5.121   5.510  0.3835 -0.2981  0.2933
11733TIP3   OH256613   4.731   5.304   3.027  0.3175 -0.4963  0.3923
11733TIP3    H156614   4.665   5.315   2.959  2.8127 -0.1951 -2.1952
11733TIP3    H256615   4.717   5.215   3.060 -0.5609 -0.9252 -1.0559
11734TIP3   OH256616   1.542   6.253  11.883  0.1215  0.3544  0.0822
11734TIP3    H156617   1.486   6.286  11.813 -0.1654  0.0313  0.1563
11734TIP3    H256618   1.628   6.245  11.842  0.0969  0.7620 -0.0586
11735TIP3   OH256619   5.311   2.232   0.372 -0.3485  0.7905 -0.0406
11735TIP3    H156620   5.294   2.325   0.357 -0.0821  0.8370 -0.0650
11735TIP3    H256621   5.266   2.187   0.300  1.6599  1.0666 -1.5494
11736TIP3   OH256622   2.745   3.977  11.964 -0.2280  0.1812  0.3351
11736TIP3    H156623   2.789   4.036  12.025 -0.0048  0.0389  0.3116
11736TIP3    H256624   2.700   4.035  11.903 -1.7053  0.3455  1.5190
11737TIP3   OH256625   4.065   2.901   5.304 -0.4020  0.4650 -0.3201
11737TIP3    H156626   4.085   2.833   5.240 -1.6654 -0.1934 -0.0395
11737TIP3    H256627   4.128   2.887   5.375  0.2584  0.4896 -0.8857
11738TIP3   OH256628   6.532   4.156  15.021 -0.2342 -0.2609 -0.2173
11738TIP3    H156629   6.505   4.240  15.058  2.0469  0.0001  1.0552
11738TIP3    H256630   6.598   4.123  15.081  0.0143 -2.2869 -1.4797
11739TIP3   OH256631   6.378   6.745   1.724 -0.5593  0.3196 -0.5197
11739TIP3    H156632   6.335   6.708   1.646 -1.1214  2.1116 -1.1005
11739TIP3    H256633   6.434   6.674   1.756 -5.2859 -3.0035  1.4844
11740TIP3   OH256634   3.368   0.859   0.280 -0.4703  0.2970 -0.2578
11740TIP3    H156635   3.352   0.815   0.363  0.3461  0.3476 -0.0688
11740TIP3    H256636   3.345   0.793   0.214  0.5429 -0.3689  0.0193
11741TIP3   OH256637   5.039   3.658   5.685  0.5743 -0.4525  0.5577
11741TIP3    H156638   4.976   3.721   5.718 -0.3615 -1.1844  0.2246
11741TIP3    H256639   5.043   3.674   5.591  0.1586 -1.0208  0.4353
11742TIP3   OH256640   4.614   3.584   2.919 -0.0984  0.6754 -0.4812
11742TIP3    H156641   4.545   3.625   2.971  0.6093  0.7629  0.4090
11742TIP3    H256642   4.694   3.631   2.943  0.8075 -1.3718  0.8310
11743TIP3   OH256643   5.027   2.546  14.239  0.2366 -0.3005  0.1975
11743TIP3    H156644   4.963   2.599  14.192 -0.3495 -0.6128  0.6366
11743TIP3    H256645   5.112   2.576  14.206 -0.1451 -0.2082 -0.7324
11744TIP3   OH256646   4.566   1.760  10.950  0.3249  0.4206  0.3284
11744TIP3    H156647   4.577   1.801  10.864  0.7395 -0.1091  0.1262
11744TIP3    H256648   4.548   1.668  10.931 -3.4738  0.9412  0.6535
11745TIP3   OH256649   0.872   3.551  10.820 -0.6512  0.3570  0.7282
11745TIP3    H156650   0.942   3.563  10.756 -1.1915  0.7543  0.2021
11745TIP3    H256651   0.908   3.587  10.902  0.5436 -1.3702  1.0149
11746TIP3   OH256652   0.225   3.222   6.046 -0.0469 -0.8017  0.4112
11746TIP3    H156653   0.214   3.249   5.955  1.4905 -1.6136 -0.0450
11746TIP3    H256654   0.271   3.295   6.087  1.0747 -1.2690  0.0165
11747TIP3   OH256655   2.854   5.825   2.374 -0.0334  0.0068 -0.1652
11747TIP3    H156656   2.797   5.862   2.441  0.5817  0.9315 -0.1412
11747TIP3    H256657   2.805   5.837   2.292 -0.0887  0.3399 -0.0842
11748TIP3   OH256658   3.190   6.468  14.860 -0.2122 -0.1536  0.1410
11748TIP3    H156659   3.225   6.536  14.802  0.5971 -0.2566  0.4901
11748TIP3    H256660   3.097   6.463  14.838 -0.1129  0.4858 -0.4661
11749TIP3   OH256661   5.253   6.207  15.587  0.4757  0.1392 -0.0622
11749TIP3    H156662   5.262   6.124  15.540 -0.0153 -0.4736  0.9088
11749TIP3    H256663   5.160   6.214  15.605  0.2215  1.8186 -1.7339
11750TIP3   OH256664   1.471   5.306  11.461  0.0922 -0.1724 -0.1014
11750TIP3    H156665   1.505   5.369  11.524  0.3965  0.8785 -1.2738
11750TIP3    H256666   1.394   5.268  11.503  0.2999  0.4909  0.8964
11751TIP3   OH256667   4.114   5.103  16.740  0.0370 -0.6176 -0.4954
11751TIP3    H156668   4.094   5.038  16.807 -2.2611 -0.5392 -1.0051
11751TIP3    H256669   4.048   5.089  16.672 -0.6092  2.2491 -0.6067
11752TIP3   OH256670   5.975   3.343   0.064  0.1285  0.2317  0.0075
11752TIP3    H156671   5.942   3.382  -0.017  0.0702 -1.1441 -0.6611
11752TIP3    H256672   5.922   3.263   0.075  1.1509 -0.3855  0.5841
11753TIP3   OH256673   3.736   0.246  15.950 -0.0688 -0.5156 -0.3217
11753TIP3    H156674   3.694   0.332  15.942  0.1811  0.0243  2.8170
11753TIP3    H256675   3.821   0.256  15.906 -1.0978 -0.0474 -2.3059
11754TIP3   OH256676   5.792   4.867  14.875 -0.1764  0.1643  0.4888
11754TIP3    H156677   5.764   4.787  14.919 -0.4783  0.3613  0.6609
11754TIP3    H256678   5.749   4.937  14.924 -2.1429  0.3098 -1.3051
11755TIP3   OH256679   1.592   4.443   5.998  0.4089 -0.1346  0.2969
11755TIP3    H156680   1.504   4.451   6.033  0.4379  0.2473  0.2861
11755TIP3    H256681   1.580   4.429   5.904  0.3808  1.0510  0.1104
11756TIP3   OH256682   4.289   5.157   2.127 -0.1596  0.1946 -0.5002
11756TIP3    H156683   4.349   5.228   2.107  1.9693 -1.3777  0.0280
11756TIP3    H256684   4.285   5.105   2.046  2.1093 -1.6910  0.5149
11757TIP3   OH256685   5.783   1.474  11.377 -0.3840  0.0819 -0.1231
11757TIP3    H156686   5.714   1.497  11.439 -1.5705  0.4905 -1.5496
11757TIP3    H256687   5.838   1.552  11.372 -0.7524  0.3368 -0.1967
11758TIP3   OH256688   4.736   6.599   3.533  0.0952  0.2673 -0.2631
11758TIP3    H156689   4.699   6.653   3.464 -0.5208 -0.3508 -0.4402
11758TIP3    H256690   4.679   6.615   3.609  0.0367  0.0453 -0.2566
11759TIP3   OH256691   4.142   5.972   0.800 -0.3090  0.2912  0.3230
11759TIP3    H156692   4.158   5.877   0.800 -0.2972  0.2910  0.0415
11759TIP3    H256693   4.230   6.010   0.802 -0.3122  0.2952  0.3758
11760TIP3   OH256694   4.588   5.418  11.611  0.3804 -0.3306 -0.2972
11760TIP3    H156695   4.654   5.384  11.551  1.7119  0.3432  0.7341
11760TIP3    H256696   4.578   5.349  11.677  1.6792  0.4316  0.7391
11761TIP3   OH256697   2.516   5.115   6.079  0.4215  0.2951  0.2158
11761TIP3    H156698   2.488   5.055   6.010  1.5297  0.1249 -0.1012
11761TIP3    H256699   2.459   5.095   6.153  0.2613 -0.5963 -0.1408
11762TIP3   OH256700   3.966   1.493  14.359  0.0575 -0.2354  0.0350
11762TIP3    H156701   3.965   1.588  14.367 -1.0200 -0.1720 -0.6465
11762TIP3    H256702   3.943   1.461  14.446 -2.0260  0.2134 -0.2860
11763TIP3   OH256703   2.913   5.206  12.611 -0.8418  0.3291  0.3911
11763TIP3    H156704   2.950   5.289  12.581 -0.3710  0.6574  1.8121
11763TIP3    H256705   2.943   5.197  12.701 -0.0626 -1.8892 -0.0324
11764TIP3   OH256706   4.225   5.828  14.436 -0.1354 -0.0238  0.6730
11764TIP3    H156707   4.176   5.843  14.355 -1.2147 -1.2890  1.0668
11764TIP3    H256708   4.232   5.915  14.476  0.6306  0.6685 -0.8589
11765TIP3   OH256709   4.571   2.503  13.016 -0.0409  0.4411 -0.6132
11765TIP3    H156710   4.492   2.450  13.011 -0.7117  1.2569  0.7470
11765TIP3    H256711   4.643   2.442  13.002 -0.8938 -0.3338 -1.7494
11766TIP3   OH256712   5.840   5.780  16.266 -0.8062  0.5377 -0.2422
11766TIP3    H156713   5.832   5.753  16.357  0.6108 -1.3540 -0.6253
11766TIP3    H256714   5.934   5.793  16.253 -0.9397  0.3180 -1.5568
11767TIP3   OH256715   6.608   2.526  14.616  0.0259  0.2845  0.1146
11767TIP3    H156716   6.644   2.615  14.616 -0.2210  0.3911  1.1176
11767TIP3    H256717   6.524   2.534  14.571 -0.8512  0.9289  1.8182
11768TIP3   OH256718   3.010   4.372   3.815  0.1115 -0.1539  0.4074
11768TIP3    H156719   3.075   4.308   3.844  0.5733  0.0830 -0.0696
11768TIP3    H256720   2.930   4.322   3.801  0.6042 -0.7223 -0.4594
11769TIP3   OH256721   5.140   3.531   2.280 -0.1364 -0.2816  0.2652
11769TIP3    H156722   5.164   3.445   2.314  0.5707  0.3295  1.3469
11769TIP3    H256723   5.062   3.514   2.227  0.4142 -1.6922 -0.1353
11770TIP3   OH256724   3.327   3.180   5.247  0.1826 -0.5360 -0.1413
11770TIP3    H156725   3.348   3.190   5.154 -1.4909 -1.5611 -0.6938
11770TIP3    H256726   3.317   3.085   5.259  2.4977 -0.6489  1.6395
11771TIP3   OH256727   4.206   3.763  14.242 -0.3178 -0.0638 -0.2030
11771TIP3    H156728   4.208   3.823  14.168 -0.5953 -1.3171 -1.2545
11771TIP3    H256729   4.228   3.818  14.318  1.8591  0.8795 -1.4410
11772TIP3   OH256730   3.636   3.661  12.705  0.0556  0.2480  0.4070
11772TIP3    H156731   3.549   3.648  12.743 -0.2979  0.2646 -0.3732
11772TIP3    H256732   3.654   3.580  12.657 -0.8390  1.3195 -1.9073
11773TIP3   OH256733   3.572   5.960   4.492 -0.3567  0.2627 -0.3960
11773TIP3    H156734   3.530   5.948   4.407  0.4508 -1.1645 -0.6374
11773TIP3    H256735   3.583   6.054   4.501  0.7053  0.3756 -2.4543
11774TIP3   OH256736   4.968   6.753   2.394 -0.3179  0.0577  0.5950
11774TIP3    H156737   4.902   6.695   2.431  0.0606 -0.2218  0.8456
11774TIP3    H256738   5.051   6.716   2.423 -0.0865  1.8544  2.4916
11775TIP3   OH256739   3.584   4.625   6.262 -0.4845  0.3954 -0.1651
11775TIP3    H156740   3.569   4.597   6.352 -1.9322 -0.8943 -0.7620
11775TIP3    H256741   3.649   4.695   6.269 -0.5260  0.2861  1.8615
11776TIP3   OH256742   4.182   0.094   3.903  0.9873  0.0451  0.8071
11776TIP3    H156743   4.202   0.129   3.816 -2.6910  1.2897  0.2936
11776TIP3    H256744   4.178  -0.001   3.890  0.5758  0.2107 -0.3667
11777TIP3   OH256745   5.595   0.296  14.467  0.0381 -0.5086  0.4723
11777TIP3    H156746   5.531   0.227  14.449 -0.2478 -0.7660  2.2910
11777TIP3    H256747   5.644   0.305  14.385 -2.1134 -0.4864 -0.8822
11778TIP3   OH256748   0.890   3.786   3.454 -0.2960  0.6373 -0.0370
11778TIP3    H156749   0.872   3.721   3.387  1.1494  0.6126 -0.4370
11778TIP3    H256750   0.946   3.741   3.518  0.3157  1.3344 -0.0668
11779TIP3   OH256751   4.592   4.991   5.965 -0.0880 -0.3963  0.4100
11779TIP3    H156752   4.529   4.971   6.035 -1.1541  1.5860  0.0965
11779TIP3    H256753   4.573   4.927   5.897 -1.0261 -0.5321  0.7765
11780TIP3   OH256754   3.087   3.909   4.247 -0.0532  0.3256 -0.1185
11780TIP3    H156755   3.132   3.907   4.162 -1.2138  0.1893 -0.7565
11780TIP3    H256756   3.010   3.964   4.232 -1.2139 -1.1002  0.3422
11781TIP3   OH256757   4.743   5.568  12.410  0.1222  0.1278  0.6219
11781TIP3    H156758   4.794   5.574  12.490  0.8705  0.1746  0.1507
11781TIP3    H256759   4.731   5.474  12.396 -1.5770  0.1293  1.7436
11782TIP3   OH256760   5.846   1.722  16.773  0.1284  0.0991 -0.3788
11782TIP3    H156761   5.925   1.672  16.749 -1.2821 -1.5754 -1.7796
11782TIP3    H256762   5.778   1.655  16.779 -1.1408  1.4743  1.1421
11783TIP3   OH256763   1.908   3.076   3.260  0.5247  0.0002 -0.2978
11783TIP3    H156764   1.932   2.984   3.277  0.9522  0.0164 -0.7926
11783TIP3    H256765   1.970   3.127   3.313 -0.1562 -0.0036  0.5162
11784TIP3   OH256766   1.288   0.134  11.926  0.2037  0.0621 -0.7362
11784TIP3    H156767   1.271   0.097  11.839 -1.9036 -0.1346 -0.2854
11784TIP3    H256768   1.259   0.067  11.987 -2.0481  1.6912  0.1048
11785TIP3   OH256769   5.933   0.281  11.089  0.0752 -0.1682  0.2370
11785TIP3    H156770   5.978   0.197  11.081  0.4409  0.1439 -1.5701
11785TIP3    H256771   5.932   0.316  10.999  0.0044  1.7891  0.9495
11786TIP3   OH256772   2.969   6.334  15.205 -0.1101  0.2124  0.1713
11786TIP3    H156773   2.954   6.324  15.299 -2.8515  1.0672 -0.1031
11786TIP3    H256774   2.936   6.422  15.185  1.7401  0.6322 -1.3964
11787TIP3   OH256775   0.841   1.606  13.033  0.1509  0.7496  0.1195
11787TIP3    H156776   0.771   1.584  13.094 -1.9369  3.4198 -1.0799
11787TIP3    H256777   0.825   1.549  12.957  1.4205 -1.0102  1.0948
11788TIP3   OH256778   1.269   1.961  15.846  0.0611 -0.1548 -0.3647
11788TIP3    H156779   1.339   1.962  15.912 -0.4414 -1.7277  0.2263
11788TIP3    H256780   1.195   2.003  15.889  0.0080 -0.3711 -0.2440
11789TIP3   OH256781   0.830   1.017   0.314  0.7647  0.3228  0.2136
11789TIP3    H156782   0.864   1.106   0.310  0.9555  0.2166 -2.1644
11789TIP3    H256783   0.763   1.019   0.382 -0.1378  2.6366 -0.6748
11790TIP3   OH256784   0.857   2.527   3.041 -0.5136  0.2388 -0.6752
11790TIP3    H156785   0.780   2.471   3.034 -0.6279  0.4794 -1.4019
11790TIP3    H256786   0.853   2.562   3.130 -0.2341 -1.1811 -0.0755
11791TIP3   OH256787   4.249   0.064  12.364  0.3569 -0.0801 -0.0549
11791TIP3    H156788   4.247  -0.027  12.393  0.9996 -0.0945 -0.0341
11791TIP3    H256789   4.157   0.088  12.354  0.1152 -0.1777  1.6717
11792TIP3   OH256790   5.419   3.934  12.924 -0.1412 -0.5392  0.3618
11792TIP3    H156791   5.360   3.898  12.990  0.3551 -0.4347  0.8687
11792TIP3    H256792   5.484   3.983  12.974  0.1628 -0.3471 -0.2139
11793TIP3   OH256793   5.426   5.278  17.203  0.0827  0.1994 -0.7128
11793TIP3    H156794   5.492   5.312  17.264 -3.2746  1.2712  2.7320
11793TIP3    H256795   5.368   5.353  17.188 -1.1235 -1.0401 -2.4983
11794TIP3   OH256796   5.823   1.116  12.533  0.9481 -0.3264 -0.1128
11794TIP3    H156797   5.793   1.026  12.522  0.6211 -0.1796 -0.4397
11794TIP3    H256798   5.743   1.168  12.532  1.0441 -0.1338  1.2177
11795TIP3   OH256799   1.985   4.349   0.354 -0.3074 -0.0399 -0.2363
11795TIP3    H156800   2.004   4.410   0.426 -2.2296  1.2519 -0.7459
11795TIP3    H256801   2.033   4.269   0.377  0.5587  0.9270  1.5586
11796TIP3   OH256802   2.080   6.385   0.269 -0.6562  0.4538 -0.2990
11796TIP3    H156803   2.122   6.325   0.331 -2.0818  0.4883  0.7584
11796TIP3    H256804   2.148   6.405   0.205  1.2141  1.2515  1.8183
11797TIP3   OH256805   1.098   0.645  15.489  0.3949 -0.3177  0.5113
11797TIP3    H156806   1.010   0.616  15.463  0.4430  0.1952 -0.2378
11797TIP3    H256807   1.143   0.662  15.407  0.9610  0.1213  0.9083
11798TIP3   OH256808   4.781   3.119  15.896  0.0741  0.3043  0.3747
11798TIP3    H156809   4.750   3.204  15.863  0.3443  0.3093  0.1382
11798TIP3    H256810   4.720   3.055  15.857  0.1221  0.3510  0.2216
11799TIP3   OH256811   4.324   3.458  15.276 -0.7059  0.0591  0.4514
11799TIP3    H156812   4.332   3.366  15.302  1.9780 -0.1619 -0.8514
11799TIP3    H256813   4.306   3.455  15.183 -1.0624  0.8670  0.4843
11800TIP3   OH256814   6.578   4.331   4.336  0.4574 -0.2693  0.1305
11800TIP3    H156815   6.595   4.403   4.397 -0.4583  1.3841 -1.4620
11800TIP3    H256816   6.483   4.328   4.328  0.5119 -1.2935 -0.2579
11801TIP3   OH256817   5.799   1.680  15.586 -0.3891  0.0606  0.6081
11801TIP3    H156818   5.761   1.759  15.547 -1.3078 -0.5577  0.2022
11801TIP3    H256819   5.747   1.609  15.550 -2.0724 -0.5204  3.8068
11802TIP3   OH256820   3.504   1.169   3.060 -0.1043  0.0770 -0.6476
11802TIP3    H156821   3.451   1.248   3.071  1.2044  0.7698  1.1622
11802TIP3    H256822   3.460   1.120   2.991 -2.1040  1.4192 -0.4071
11803TIP3   OH256823   6.686   0.769  11.106  0.1631 -0.0870  0.4358
11803TIP3    H156824   6.646   0.769  11.019  1.2229  0.1437 -0.0603
11803TIP3    H256825   6.659   0.684  11.143  2.9398 -2.0879 -1.6830
11804TIP3   OH256826   2.740   4.051  17.223  0.2510 -0.3051 -0.3771
11804TIP3    H156827   2.827   4.043  17.263 -0.0437 -0.1827  0.3035
11804TIP3    H256828   2.736   4.142  17.193 -0.1731  0.1007  0.8758
11805TIP3   OH256829   5.595   3.045  15.960  0.2025 -0.3844 -0.1943
11805TIP3    H156830   5.644   3.089  15.891  0.4674 -1.5901 -0.8004
11805TIP3    H256831   5.506   3.038  15.926  0.4007 -1.2528 -0.5741
11806TIP3   OH256832   2.099   2.915  14.154  0.0664  0.1913 -0.8534
11806TIP3    H156833   2.144   2.832  14.165 -0.7628 -0.4237 -1.9392
11806TIP3    H256834   2.137   2.953  14.075 -0.3665  0.2985 -1.0159
11807TIP3   OH256835   1.936   4.322   3.933  0.1762 -0.5857 -0.1027
11807TIP3    H156836   1.882   4.315   4.012 -1.2057 -2.8244 -1.1387
11807TIP3    H256837   2.024   4.300   3.963  0.6209  2.7714  1.5521
11808TIP3   OH256838   6.112   1.971   0.348 -0.0909  0.5790  0.3229
11808TIP3    H156839   6.174   1.902   0.323 -1.2905 -0.4460  0.0729
11808TIP3    H256840   6.104   1.962   0.443 -0.8738 -0.2035  0.1967
11809TIP3   OH256841   5.143   3.451   2.747 -0.4336  0.3988  0.1000
11809TIP3    H156842   5.200   3.394   2.798  1.1932  0.8857 -1.0943
11809TIP3    H256843   5.195   3.530   2.732 -2.0734  1.6051  0.4249
11810TIP3   OH256844   4.028   5.380  15.482 -0.5262  0.8464  0.0270
11810TIP3    H156845   4.007   5.407  15.392 -0.1448  1.8021  0.2132
11810TIP3    H256846   3.965   5.310  15.501  0.5432 -0.6460 -1.6034
11811TIP3   OH256847   1.642   5.646   4.997  0.0557 -0.0571  0.2978
11811TIP3    H156848   1.687   5.681   5.074 -0.6576  1.4113  0.0841
11811TIP3    H256849   1.596   5.721   4.960  0.2046 -0.7803 -1.4457
11812TIP3   OH256850   3.888   1.892   0.098  0.3653  0.2971  0.3440
11812TIP3    H156851   3.855   1.859   0.181 -1.0299  0.7841  0.0075
11812TIP3    H256852   3.926   1.977   0.119  1.5918 -0.3192  0.7524
11813TIP3   OH256853   6.463   5.200  15.539  0.5448  0.2752 -0.3773
11813TIP3    H156854   6.392   5.260  15.516  0.0733  0.1190  0.6445
11813TIP3    H256855   6.542   5.253  15.530  0.1705  0.9180  0.0452
11814TIP3   OH256856   4.769   5.517   2.338  0.9466 -0.2483  0.7686
11814TIP3    H156857   4.783   5.553   2.250  1.0808  0.9161  1.2497
11814TIP3    H256858   4.803   5.428   2.333 -0.4716 -0.7400 -0.7926
11815TIP3   OH256859   5.105   2.101   5.617 -0.4285  0.6241  0.4964
11815TIP3    H156860   5.090   2.120   5.525  1.0463  0.6881  0.2501
11815TIP3    H256861   5.060   2.172   5.663 -1.9904  0.0710 -0.1012
11816TIP3   OH256862   4.492   4.211   3.633  0.6361 -0.0167 -0.0549
11816TIP3    H156863   4.534   4.129   3.606 -0.2050 -0.1603 -0.9920
11816TIP3    H256864   4.476   4.201   3.727  0.9164 -0.7569 -0.0836
11817TIP3   OH256865   1.740   5.707  10.829  0.4729 -0.3115  0.3509
11817TIP3    H156866   1.718   5.639  10.766  0.2460  0.8533 -0.8614
11817TIP3    H256867   1.818   5.750  10.793  0.4637  0.2476  0.9566
11818TIP3   OH256868   4.955   6.393   3.188 -0.2381 -0.1397 -0.7514
11818TIP3    H156869   5.023   6.370   3.252  0.5669  1.0329 -1.1462
11818TIP3    H256870   4.902   6.314   3.180  0.3923 -0.7145  0.4278
11819TIP3   OH256871   1.920   4.183   4.207  0.7401 -0.4064 -0.0230
11819TIP3    H156872   1.848   4.244   4.222  0.8570  0.2607 -1.9765
11819TIP3    H256873   1.965   4.178   4.292 -0.8457  0.1157  0.8904
11820TIP3   OH256874   0.292   2.105   4.627  0.0421  0.1825  0.0118
11820TIP3    H156875   0.373   2.053   4.622 -0.8649 -1.2386 -0.9947
11820TIP3    H256876   0.230   2.055   4.574 -0.8484  2.4571 -1.2209
11821TIP3   OH256877   0.618   0.453   6.694  0.3004  0.2831  0.0943
11821TIP3    H156878   0.712   0.437   6.701  0.3462  0.4625 -0.1022
11821TIP3    H256879   0.590   0.404   6.616  0.5193  1.4746 -0.7596
11822TIP3   OH256880   0.467   4.033  16.124 -0.2315  0.2592  0.0687
11822TIP3    H156881   0.424   3.962  16.172 -1.2464  1.6575  1.3201
11822TIP3    H256882   0.560   4.010  16.124 -0.3783 -0.4138  1.5984
11823TIP3   OH256883   2.914   5.682  12.740  0.2791 -0.4148  0.2330
11823TIP3    H156884   2.832   5.663  12.785  0.5315 -1.8280  0.1320
11823TIP3    H256885   2.980   5.679  12.809  0.4844 -1.2251  0.0176
11824TIP3   OH256886   2.474   5.144   4.771  0.1854 -0.1155 -0.2158
11824TIP3    H156887   2.506   5.134   4.861  0.2912  0.4721 -0.1874
11824TIP3    H256888   2.444   5.234   4.766 -1.7340 -0.6887 -0.1434
11825TIP3   OH256889   6.484   3.560   5.791 -0.7500  0.0643  0.3430
11825TIP3    H156890   6.541   3.536   5.718 -2.1199 -1.4096 -0.3217
11825TIP3    H256891   6.399   3.579   5.749 -1.7434 -1.4471  1.5568
11826TIP3   OH256892   1.422   2.796  15.621 -0.2715  0.4813 -0.5037
11826TIP3    H156893   1.484   2.745  15.674 -0.1912 -0.5022 -1.5206
11826TIP3    H256894   1.477   2.857  15.572 -0.1663  0.0154 -0.9627
11827TIP3   OH256895   5.024   2.460  15.157  0.0838  0.4094  0.3544
11827TIP3    H156896   5.058   2.491  15.241  1.2508 -1.3435  0.5756
11827TIP3    H256897   5.087   2.394  15.128  0.7899  2.2814 -2.8779
11828TIP3   OH256898   3.382   2.759  16.984 -0.2611 -0.2989 -0.1920
11828TIP3    H156899   3.409   2.750  17.076 -1.9206 -2.6228  0.1368
11828TIP3    H256900   3.424   2.685  16.940  1.8077  1.6579 -1.7273
11829TIP3   OH256901   2.142   1.166   5.718 -0.2177 -0.1942  0.3347
11829TIP3    H156902   2.089   1.115   5.657  0.5331 -1.7361  0.9264
11829TIP3    H256903   2.078   1.219   5.766 -1.0478 -0.7399 -0.1321
11830TIP3   OH256904   4.438   4.183   3.261 -0.0024 -0.2807  0.0327
11830TIP3    H156905   4.409   4.109   3.315  0.7001 -0.1314  0.6321
11830TIP3    H256906   4.489   4.237   3.321  1.0417 -0.2584 -0.8556
11831TIP3   OH256907   0.052   4.364  11.157 -0.1892 -0.1386  0.2639
11831TIP3    H156908   0.105   4.365  11.237 -0.7701 -1.3622  0.6864
11831TIP3    H256909   0.069   4.449  11.116  1.1291 -0.0116  1.0168
11832TIP3   OH256910   2.991   3.368   5.809 -0.5121 -0.2384  0.9691
11832TIP3    H156911   2.932   3.427   5.855  0.1728 -0.1954  1.8217
11832TIP3    H256912   3.010   3.412   5.726 -1.6338 -0.2429  0.6990
11833TIP3   OH256913   5.841   4.009  17.255  0.0255  0.5111  0.6677
11833TIP3    H156914   5.871   4.004  17.164  0.8078  1.6432  0.8369
11833TIP3    H256915   5.915   4.047  17.302 -0.5480  0.3886  1.6955
11834TIP3   OH256916   2.251   2.806  14.407 -0.2519  0.1980  0.3354
11834TIP3    H156917   2.162   2.833  14.429  0.2658  0.8556  1.7553
11834TIP3    H256918   2.298   2.808  14.490  0.9055 -0.9074 -0.2587
11835TIP3   OH256919   2.703   0.498  16.983 -0.1858  0.3476 -0.1070
11835TIP3    H156920   2.623   0.544  16.959  0.6091  1.9619  0.1942
11835TIP3    H256921   2.728   0.451  16.904 -2.1814 -1.4180  0.2105
11836TIP3   OH256922   3.072   1.860   2.354  0.1643 -0.0938 -0.1077
11836TIP3    H156923   3.165   1.878   2.349  0.2230  0.0456  1.0542
11836TIP3    H256924   3.057   1.790   2.291  1.3325 -1.1515  0.7504
11837TIP3   OH256925   3.455   2.765  13.852  0.0806  0.4599 -0.5213
11837TIP3    H156926   3.369   2.748  13.815  0.1759  1.2956 -1.1839
11837TIP3    H256927   3.461   2.709  13.929 -1.5711  1.3354  0.2899
11838TIP3   OH256928   6.145   4.610   5.962  0.0221 -0.1010  0.2737
11838TIP3    H156929   6.065   4.643   6.003 -1.2088 -1.3620 -0.9761
11838TIP3    H256930   6.127   4.614   5.868  0.9776 -1.4502 -0.0002
11839TIP3   OH256931   5.666   5.781  14.769 -0.0908  0.2557 -0.4102
11839TIP3    H156932   5.626   5.821  14.692  0.2423 -0.7074 -1.0984
11839TIP3    H256933   5.621   5.821  14.843 -1.4737  0.0826 -1.1341
11840TIP3   OH256934   1.413   3.004   3.558 -0.2341  0.0963  0.4706
11840TIP3    H156935   1.363   3.055   3.622 -0.1065 -0.4457  1.0100
11840TIP3    H256936   1.346   2.953   3.512 -0.2662  0.0498  0.5685
11841TIP3   OH256937   1.586   4.977  13.261 -0.2775 -0.2169  0.5606
11841TIP3    H156938   1.617   5.060  13.299 -1.9862  0.9124 -0.3644
11841TIP3    H256939   1.559   4.925  13.337  2.8149 -0.8798  1.3283
11842TIP3   OH256940   3.882   1.416   0.082  0.3811 -0.1107  0.2424
11842TIP3    H156941   3.962   1.461   0.109  0.8189  0.1643 -1.3537
11842TIP3    H256942   3.907   1.370   0.001 -1.3255  0.9231 -0.9457
11843TIP3   OH256943   1.829   6.594   4.883  0.0650 -0.2518  0.2641
11843TIP3    H156944   1.914   6.608   4.840 -0.5389  2.4430 -0.2175
11843TIP3    H256945   1.848   6.599   4.976  0.4482  0.1330  0.1657
11844TIP3   OH256946   5.776   6.601  12.513  0.1643 -0.7357 -0.5136
11844TIP3    H156947   5.753   6.547  12.589 -0.2788  0.7674  0.4605
11844TIP3    H256948   5.748   6.689  12.537  0.2591 -0.1764 -2.3369
11845TIP3   OH256949   1.399   5.622  12.541 -0.5517  0.1718  0.0397
11845TIP3    H156950   1.487   5.650  12.516 -0.7723  3.1475  2.0387
11845TIP3    H256951   1.412   5.558  12.611  0.1296  2.0905  1.7556
11846TIP3   OH256952   4.414   5.475   5.394  0.4822  0.0888 -0.1787
11846TIP3    H156953   4.472   5.491   5.320  0.6992  0.4266  0.0582
11846TIP3    H256954   4.348   5.415   5.361  0.2737  0.6471 -0.7884
11847TIP3   OH256955   2.809   5.294   5.485  0.2912  0.1019 -0.3393
11847TIP3    H156956   2.781   5.216   5.533 -1.5616  0.7210 -0.3611
11847TIP3    H256957   2.830   5.261   5.397 -0.4530 -0.3872 -0.3453
11848TIP3   OH256958   4.995   5.094   0.783 -0.6414 -0.0380  0.3686
11848TIP3    H156959   5.043   5.020   0.746  0.1867  0.8853 -0.4777
11848TIP3    H256960   4.945   5.129   0.709  1.8425  2.4798 -0.3359
11849TIP3   OH256961   4.950   5.193  14.390  0.0362  0.3096  0.0390
11849TIP3    H156962   4.923   5.132  14.321  0.7842 -0.0769  0.0730
11849TIP3    H256963   5.017   5.247  14.350  1.4028 -0.7501  0.7909
11850TIP3   OH256964   6.107   5.785   2.990 -0.4158  0.7190 -0.8789
11850TIP3    H156965   6.145   5.855   2.936 -1.1541 -0.1379 -2.6092
11850TIP3    H256966   6.175   5.765   3.054  1.0590  0.9485 -2.2828
11851TIP3   OH256967   0.580   0.312   5.301 -0.2386  0.2240  0.1449
11851TIP3    H156968   0.526   0.274   5.232  0.2868 -1.6010  0.6708
11851TIP3    H256969   0.517   0.351   5.362 -0.7989  0.4257 -0.5553
11852TIP3   OH256970   3.811   1.195   3.440  0.3090 -0.7854 -0.0019
11852TIP3    H156971   3.891   1.149   3.465  1.5552  2.5364  2.9997
11852TIP3    H256972   3.744   1.162   3.501 -0.0230 -1.7623 -0.8631
11853TIP3   OH256973   6.595   5.029  16.389 -0.8723  0.0391  0.5226
11853TIP3    H156974   6.533   4.957  16.377 -1.7550  0.9880 -1.0686
11853TIP3    H256975   6.544   5.107  16.369  0.5899  0.9286  0.1054
11854TIP3   OH256976   0.630   6.628  16.964 -0.6166 -0.3829 -0.4224
11854TIP3    H156977   0.642   6.678  16.884 -1.6347  0.0986 -0.2939
11854TIP3    H256978   0.654   6.689  17.034  1.2727 -1.1244 -0.3706
11855TIP3   OH256979   5.977   2.558   3.897 -0.1986  0.7902  0.3983
11855TIP3    H156980   5.991   2.630   3.837  0.4452  2.4026  2.3708
11855TIP3    H256981   5.935   2.598   3.974  0.2239 -0.9146  1.5864
11856TIP3   OH256982   6.406   4.937   0.236  0.3608  0.1568  0.3827
11856TIP3    H156983   6.347   4.877   0.192 -0.3969  1.1487  0.0041
11856TIP3    H256984   6.382   5.023   0.203  1.7563  0.6309  0.5278
11857TIP3   OH256985   1.340   5.791   1.762 -0.3836 -0.8384 -0.3088
11857TIP3    H156986   1.316   5.738   1.838  0.9270 -0.9516  0.0491
11857TIP3    H256987   1.331   5.881   1.792 -0.8990 -0.8759 -0.3527
11858TIP3   OH256988   2.863   4.279   5.683 -0.1589  0.0894  0.4403
11858TIP3    H156989   2.768   4.289   5.681 -0.5517 -2.8410 -0.3953
11858TIP3    H256990   2.891   4.303   5.594 -0.0776  1.0383  0.7122
11859TIP3   OH256991   3.091   3.537   0.485  0.0546 -0.4796 -0.8161
11859TIP3    H156992   3.166   3.489   0.521 -0.2679 -2.5678 -2.7376
11859TIP3    H256993   3.129   3.618   0.450  1.4288 -1.4417 -1.6562
11860TIP3   OH256994   5.563   4.105   6.608 -0.3563  0.0595  0.0500
11860TIP3    H156995   5.574   4.131   6.699 -0.6401 -1.4098  0.5345
11860TIP3    H256996   5.468   4.103   6.595 -0.3708 -1.4211  0.2635
11861TIP3   OH256997   0.797   6.202  11.941 -0.2001 -0.0104  0.1273
11861TIP3    H156998   0.845   6.182  11.861  0.7033 -2.2945  1.1462
11861TIP3    H256999   0.775   6.295  11.934 -1.1578 -0.3525 -3.2666
11862TIP3   OH257000   6.050   4.216   1.903 -0.1263 -0.2638  0.0276
11862TIP3    H157001   6.064   4.198   1.996 -0.5647  0.9715  0.3423
11862TIP3    H257002   6.068   4.132   1.860 -0.4909 -1.0113  1.2757
11863TIP3   OH257003   1.448   1.558  12.229  0.1480  0.2987  0.2555
11863TIP3    H157004   1.525   1.555  12.286  0.1476  2.1402  0.4207
11863TIP3    H257005   1.477   1.608  12.152  0.4753 -3.0476 -2.0062
11864TIP3   OH257006   2.509   0.175  15.954 -0.1774 -0.0462 -0.6764
11864TIP3    H157007   2.603   0.170  15.936 -0.7272 -1.0519 -3.9393
11864TIP3    H257008   2.491   0.100  16.010  0.7164 -1.0651 -1.6944
11865TIP3   OH257009   5.546   4.791   0.161  0.0829 -0.8388 -0.6644
11865TIP3    H157010   5.556   4.698   0.140  1.1044 -1.0906  0.8151
11865TIP3    H257011   5.525   4.792   0.254 -1.2983  0.3746 -0.9448
11866TIP3   OH257012   3.542   0.650   4.746  0.0309 -0.0355  0.2820
11866TIP3    H157013   3.588   0.720   4.791 -0.0919 -0.3155  0.8514
11866TIP3    H257014   3.580   0.569   4.781 -2.4423 -0.3640  2.5590
11867TIP3   OH257015   2.742   3.080   6.076  0.5694  0.2570  0.2855
11867TIP3    H157016   2.684   3.027   6.132  0.5300 -0.6667 -0.6092
11867TIP3    H257017   2.813   3.020   6.052  0.4470  0.5605 -0.8633
11868TIP3   OH257018   2.324   0.537  13.219 -0.4423  1.1793 -0.2359
11868TIP3    H157019   2.230   0.542  13.234 -0.7618  0.3354 -1.7030
11868TIP3    H257020   2.336   0.572  13.130  0.3480 -0.5109 -0.8410
11869TIP3   OH257021   3.288   1.564   5.752  0.3295 -0.1635  0.1013
11869TIP3    H157022   3.375   1.548   5.788  0.6462  0.7088 -0.2540
11869TIP3    H257023   3.235   1.491   5.784  0.1895  1.2694  3.6474
11870TIP3   OH257024   5.890   1.123  12.949  0.4910  0.3733  0.2560
11870TIP3    H157025   5.833   1.119  13.025  0.9247 -1.1555  0.5293
11870TIP3    H257026   5.872   1.208  12.909 -1.3760  0.2570  0.7903
11871TIP3   OH257027   0.701   2.301  11.334  0.2230  0.1976 -0.6401
11871TIP3    H157028   0.649   2.351  11.271  0.5952  0.5742 -0.6555
11871TIP3    H257029   0.707   2.214  11.296  1.4181  0.7194 -1.7227
11872TIP3   OH257030   0.799   2.796   1.732  0.2605 -0.5286  0.0095
11872TIP3    H157031   0.741   2.771   1.804 -0.5364  0.3068 -0.3275
11872TIP3    H257032   0.885   2.804   1.773 -0.5501  2.1791  1.4019
11873TIP3   OH257033   1.327   6.592  13.599 -0.1194 -0.0907  0.1828
11873TIP3    H157034   1.344   6.499  13.613 -0.4336 -0.1385  0.2318
11873TIP3    H257035   1.406   6.623  13.553 -0.6449 -0.7070 -1.2008
11874TIP3   OH257036   2.648   5.792  13.347  0.1049 -0.2040 -0.2091
11874TIP3    H157037   2.650   5.849  13.270 -0.1480  2.4381  1.5776
11874TIP3    H257038   2.555   5.773  13.360  0.1633 -0.8024 -0.6353
11875TIP3   OH257039   2.961   0.694  15.985 -0.4789  0.0827 -0.3290
11875TIP3    H157040   2.923   0.682  15.898 -0.4761  1.3341 -0.5156
11875TIP3    H257041   2.934   0.781  16.012 -1.4794 -0.7328  1.4586
11876TIP3   OH257042   3.485   1.202   1.538  0.4302  0.5344  0.0305
11876TIP3    H157043   3.420   1.252   1.587  1.4689 -0.0433  2.0787
11876TIP3    H257044   3.538   1.269   1.493 -1.4575  1.0137 -1.6433
11877TIP3   OH257045   3.636   6.640  13.403 -0.7369  0.4130 -0.2362
11877TIP3    H157046   3.669   6.727  13.382 -0.7564  0.8285  1.3510
11877TIP3    H257047   3.541   6.649  13.405 -0.6898  1.0714  2.6065
11878TIP3   OH257048   1.591   4.971   4.792 -0.4189 -0.3320  0.2233
11878TIP3    H157049   1.513   4.948   4.842 -0.7216 -1.1926 -0.6030
11878TIP3    H257050   1.605   5.064   4.809 -1.7078 -0.1366  0.2648
11879TIP3   OH257051   6.307   2.247   1.152  0.0234  0.2228  0.3894
11879TIP3    H157052   6.354   2.220   1.072  0.4306 -0.9248  0.9868
11879TIP3    H257053   6.367   2.224   1.223 -0.8376  0.1050  1.0907
11880TIP3   OH257054   6.497   0.497  12.227 -0.2965 -0.5500  0.1863
11880TIP3    H157055   6.561   0.426  12.231 -0.3009 -0.5238  0.7255
11880TIP3    H257056   6.549   0.577  12.238 -0.4954 -0.5624  1.3342
11881TIP3   OH257057   4.912   3.392   1.681 -0.3856 -0.1394 -0.4524
11881TIP3    H157058   4.856   3.469   1.682 -2.0301 -1.2764  0.2727
11881TIP3    H257059   4.874   3.334   1.748  1.3365 -1.2041 -0.3299
11882TIP3   OH257060   2.702   1.146   0.064  0.5903 -0.1092 -0.6947
11882TIP3    H157061   2.796   1.160   0.055  1.1445 -1.0240  2.4574
11882TIP3    H257062   2.691   1.051   0.058 -0.2032  0.0053 -1.2922
11883TIP3   OH257063   3.699   5.015  17.117  0.2473 -1.1585 -0.5806
11883TIP3    H157064   3.648   4.935  17.105 -0.8750 -0.4979 -0.3266
11883TIP3    H257065   3.763   4.993  17.185 -1.7534 -1.0813  1.4168
11884TIP3   OH257066   2.280   4.047   1.645  0.2346 -0.3977 -0.3370
11884TIP3    H157067   2.291   4.072   1.553  1.4950 -0.9730 -0.3534
11884TIP3    H257068   2.280   3.952   1.645 -0.2994 -0.4044  0.2069
11885TIP3   OH257069   3.013   4.403   6.559 -0.0590 -0.1837 -0.1986
11885TIP3    H157070   3.083   4.360   6.510  0.6677  0.3933  0.3087
11885TIP3    H257071   3.046   4.491   6.577 -1.7400  0.8274 -1.6935
11886TIP3   OH257072   6.663   3.439   3.991  0.1269 -0.1760 -0.4372
11886TIP3    H157073   6.682   3.455   3.899 -2.2326  0.0016 -0.9452
11886TIP3    H257074   6.610   3.513   4.019 -1.7627 -1.6616  0.1800
11887TIP3   OH257075   2.560   1.540   5.530 -0.2939 -0.4898  0.5395
11887TIP3    H157076   2.629   1.494   5.577 -1.0796 -1.5731  0.6959
11887TIP3    H257077   2.604   1.611   5.483  1.1585 -2.1133 -0.6546
11888TIP3   OH257078   4.142   6.299   5.062 -0.3611  0.2499 -0.3124
11888TIP3    H157079   4.153   6.385   5.104 -0.3607 -0.3227  0.9098
11888TIP3    H257080   4.133   6.319   4.969  0.7848  1.4987 -0.1933
11889TIP3   OH257081   0.760   2.749  12.289  0.2592  0.0028  0.3901
11889TIP3    H157082   0.818   2.705  12.351  1.6876  0.2059 -0.7321
11889TIP3    H257083   0.816   2.765  12.213 -1.7311 -1.4113 -1.4891
11890TIP3   OH257084   2.625   0.655  13.906  0.2317 -0.2205  0.2233
11890TIP3    H157085   2.611   0.665  13.812 -0.7801 -2.3713  0.0952
11890TIP3    H257086   2.543   0.683  13.946 -0.1398 -1.3274  0.2841
11891TIP3   OH257087   4.902   5.878  16.557  0.3824  0.5865  0.5756
11891TIP3    H157088   4.890   5.952  16.617 -1.0121  1.0522 -0.2550
11891TIP3    H257089   4.989   5.845  16.579  1.0154  2.4110  1.0276
11892TIP3   OH257090   3.442   0.988   3.817  0.4139  0.3489  0.1762
11892TIP3    H157091   3.488   0.942   3.746  0.7746 -0.5078  0.9398
11892TIP3    H257092   3.366   1.027   3.775  0.8622  0.2411 -0.7675
11893TIP3   OH257093   5.098   0.872   4.145 -0.4033 -0.0285  0.4026
11893TIP3    H157094   5.191   0.869   4.124 -0.2057 -0.1611  1.2612
11893TIP3    H257095   5.095   0.874   4.241 -1.2714  0.3268  0.3778
11894TIP3   OH257096   6.507   0.502  15.632 -0.2052  0.0488 -0.0869
11894TIP3    H157097   6.571   0.519  15.701  0.3272  0.7896 -0.7439
11894TIP3    H257098   6.435   0.562  15.649 -1.1422 -1.3546  1.1356
11895TIP3   OH257099   4.499   1.967   0.063  0.1428 -0.2766  0.2052
11895TIP3    H157100   4.475   1.977   0.155 -0.7060  0.8397 -0.1104
11895TIP3    H257101   4.472   1.878   0.040  1.4061 -0.9682  1.3136
11896TIP3   OH257102   1.092   0.798  13.243 -0.1803  0.2838 -0.2902
11896TIP3    H157103   1.094   0.820  13.336 -3.4649 -1.0816  0.2346
11896TIP3    H257104   1.073   0.704  13.241  0.4133  0.1607 -2.3527
11897TIP3   OH257105   5.517   2.587  14.751 -0.4020 -0.2260  0.1638
11897TIP3    H157106   5.436   2.617  14.710 -0.1161  1.2978  0.6363
11897TIP3    H257107   5.488   2.529  14.822 -1.0747  0.1715  0.2209
11898TIP3   OH257108   2.477   5.416   4.625  0.0552 -0.1945 -0.1036
11898TIP3    H157109   2.541   5.357   4.584  1.8730  2.0287 -0.6791
11898TIP3    H257110   2.407   5.424   4.560  2.2208  2.1465 -2.3637
11899TIP3   OH257111   6.289   2.549  10.989  0.4784 -0.3554  0.4483
11899TIP3    H157112   6.205   2.515  11.021  0.7343 -1.8379 -0.4053
11899TIP3    H257113   6.294   2.637  11.028 -2.3945  0.6322 -1.0564
11900TIP3   OH257114   5.337   1.687  16.438  0.0837 -0.4347 -0.1597
11900TIP3    H157115   5.307   1.695  16.347 -3.2434 -0.1454  0.8286
11900TIP3    H257116   5.366   1.775  16.461  1.4611 -0.6290 -1.0608
11901TIP3   OH257117   3.810   1.367  16.583  0.0577 -0.1764  0.4723
11901TIP3    H157118   3.732   1.393  16.534 -0.0874 -1.0606  0.2124
11901TIP3    H257119   3.827   1.440  16.643  0.1112  0.8338 -0.7320
11902TIP3   OH257120   5.740   4.384   5.165 -0.0978 -0.0542  0.2749
11902TIP3    H157121   5.818   4.409   5.116  1.3536  1.1190  2.9872
11902TIP3    H257122   5.686   4.464   5.167 -0.0069 -0.0013  0.8046
11903TIP3   OH257123   1.838   0.939   5.832 -0.1015  0.1823 -0.0412
11903TIP3    H157124   1.875   0.971   5.914 -0.2062  0.3917 -0.0756
11903TIP3    H257125   1.882   0.855   5.817  0.8519  0.7386 -0.4216
11904TIP3   OH257126   0.389   4.116  11.370 -0.4470 -0.6340  0.3155
11904TIP3    H157127   0.320   4.150  11.427 -2.0480 -1.7141 -0.8806
11904TIP3    H257128   0.356   4.031  11.340  0.5922 -0.3976 -1.6890
11905TIP3   OH257129   4.271   0.926   0.787  0.1327  0.2765  0.6104
11905TIP3    H157130   4.215   0.916   0.710  0.6170 -2.0437  0.4747
11905TIP3    H257131   4.217   0.975   0.850 -1.1889  0.0666 -0.3170
11906TIP3   OH257132   3.114   0.723   4.652  0.0373 -1.3443 -0.2450
11906TIP3    H157133   3.184   0.739   4.716  0.3741  0.7755 -1.0504
11906TIP3    H257134   3.033   0.745   4.700  0.2420 -0.3391 -0.3321
11907TIP3   OH257135   3.487   6.661   5.736 -0.0375 -0.0169  0.1796
11907TIP3    H157136   3.502   6.667   5.641 -3.4054  0.7429 -0.4217
11907TIP3    H257137   3.546   6.726   5.773  1.0059  0.0172 -1.4160
11908TIP3   OH257138   4.451   3.455  11.849 -0.0001 -0.1884 -0.7389
11908TIP3    H157139   4.432   3.368  11.883 -0.5470  0.1828 -0.0774
11908TIP3    H257140   4.392   3.465  11.774  0.2585 -0.4866 -0.9861
11909TIP3   OH257141   5.670   0.397  13.765  0.3108 -0.1048  0.0041
11909TIP3    H157142   5.733   0.331  13.795  0.3121  0.0853  0.4347
11909TIP3    H257143   5.603   0.347  13.718  0.9622 -0.2738 -0.7624
11910TIP3   OH257144   4.172   2.908   0.812 -0.0738  0.5866  0.2165
11910TIP3    H157145   4.101   2.936   0.869  1.0853  2.5170  0.8221
11910TIP3    H257146   4.251   2.920   0.866  0.9152  1.0510 -1.2844
11911TIP3   OH257147   3.899   4.639  16.993 -0.4247  0.6949  0.3950
11911TIP3    H157148   3.890   4.678  16.906 -0.7274  0.8557  0.4997
11911TIP3    H257149   3.814   4.600  17.011  0.6993 -2.7446 -1.0021
11912TIP3   OH257150   3.957   3.393  13.045 -0.1549 -0.1194 -0.0664
11912TIP3    H157151   3.883   3.451  13.026  0.1722  0.0749 -0.7975
11912TIP3    H257152   3.973   3.348  12.962  2.1059  1.6381 -0.6816
11913TIP3   OH257153   1.585   4.158  13.670 -0.0342 -0.2371  0.2362
11913TIP3    H157154   1.673   4.191  13.653  1.5810 -2.1578  3.6567
11913TIP3    H257155   1.534   4.236  13.693  0.7881  0.8732 -1.4694
11914TIP3   OH257156   4.292   4.428   0.016 -0.2205  0.2926  0.4383
11914TIP3    H157157   4.363   4.469   0.065  0.2093 -0.7672  0.7139
11914TIP3    H257158   4.213   4.476   0.044  0.2491  0.8384  0.8500
11915TIP3   OH257159   4.520   1.355  12.155  0.5196 -0.0795 -0.3925
11915TIP3    H157160   4.598   1.408  12.170 -1.0027  1.3511  3.5207
11915TIP3    H257161   4.462   1.411  12.104  1.1836 -0.3566 -1.4862
11916TIP3   OH257162   4.721   2.556   2.775 -0.0900  0.1625 -0.3908
11916TIP3    H157163   4.804   2.509   2.770 -1.5734 -2.5017 -2.4203
11916TIP3    H257164   4.673   2.513   2.846 -0.7571 -0.1881 -1.0380
11917TIP3   OH257165   2.319   0.672   0.576 -0.3193 -0.0952 -0.6772
11917TIP3    H157166   2.361   0.644   0.657  0.7216  1.6278 -0.5913
11917TIP3    H257167   2.256   0.739   0.603 -0.9853 -0.5171 -1.1507
11918TIP3   OH257168   3.674   4.469   3.426  0.4162 -0.2956 -0.5978
11918TIP3    H157169   3.701   4.516   3.505 -0.8187  1.4972 -1.1665
11918TIP3    H257170   3.680   4.534   3.356 -0.7383 -1.1640 -1.5518
11919TIP3   OH257171   1.384   0.120   3.651 -0.1739  0.1387  0.0007
11919TIP3    H157172   1.419   0.061   3.719 -0.5681 -0.7009 -0.5134
11919TIP3    H257173   1.350   0.061   3.584 -1.6410  0.9501  0.0026
11920TIP3   OH257174   1.953   6.288  11.296 -0.4887 -0.4444 -0.5579
11920TIP3    H157175   2.026   6.304  11.236 -1.3108 -1.2145 -1.7983
11920TIP3    H257176   1.875   6.297  11.241 -1.2521 -1.3431  0.3619
11921TIP3   OH257177   2.863   0.855   2.345  0.3815 -0.1319  0.5046
11921TIP3    H157178   2.941   0.846   2.289  1.2808 -1.8984  1.9219
11921TIP3    H257179   2.863   0.948   2.371  0.7986  0.3682 -1.1831
11922TIP3   OH257180   6.133   0.946   1.396 -0.4282 -0.3737  0.3565
11922TIP3    H157181   6.159   1.036   1.416  1.0474 -0.6443 -0.2968
11922TIP3    H257182   6.165   0.895   1.470 -0.5809 -0.4778  0.3516
11923TIP3   OH257183   0.957   3.536  12.818  0.0540 -0.4334  0.4545
11923TIP3    H157184   1.047   3.512  12.839  1.3545  0.9747 -2.7631
11923TIP3    H257185   0.931   3.475  12.749  0.4653  2.0364 -2.0752
11924TIP3   OH257186   0.037   2.048   2.295 -0.2503  0.3597 -0.3176
11924TIP3    H157187  -0.006   2.063   2.379  0.1657 -0.1737 -0.0015
11924TIP3    H257188   0.120   2.006   2.317 -0.6003 -0.7616 -1.0505
11925TIP3   OH257189   3.512   4.455  10.782 -0.1374  0.5445 -0.1178
11925TIP3    H157190   3.438   4.510  10.758 -0.0840  0.3021 -0.8889
11925TIP3    H257191   3.546   4.424  10.698 -0.9030 -1.6492  0.3254
11926TIP3   OH257192   2.934   2.429  11.943  0.2519 -0.0738 -0.4013
11926TIP3    H157193   2.870   2.415  12.013 -0.8448 -2.1755 -1.7359
11926TIP3    H257194   3.009   2.374  11.968  0.8610  1.0242  0.2719
11927TIP3   OH257195   5.565   1.687   3.619  0.2326  0.9325  1.0481
11927TIP3    H157196   5.612   1.745   3.559  0.8192 -1.9306 -1.4892
11927TIP3    H257197   5.634   1.640   3.665 -0.0923 -0.6532 -0.0002
11928TIP3   OH257198   3.118   1.300   2.311 -0.4177 -0.2666  0.3178
11928TIP3    H157199   3.170   1.220   2.315 -1.5689 -1.0815 -0.4615
11928TIP3    H257200   3.092   1.308   2.219  0.8707  1.8166  0.0514
11929TIP3   OH257201   2.296   2.077   0.873  0.2300 -0.2427  0.3228
11929TIP3    H157202   2.336   2.086   0.787 -1.9019 -2.2463 -0.9704
11929TIP3    H257203   2.344   2.005   0.914  0.2604 -0.2789  0.2243
11930TIP3   OH257204   5.156   3.250  13.210 -0.0625 -0.5694 -0.3686
11930TIP3    H157205   5.167   3.244  13.305  0.4020  0.2691 -0.3611
11930TIP3    H257206   5.098   3.325  13.197 -1.0493 -1.3679 -0.7043
11931TIP3   OH257207   5.331   4.461   0.400 -0.3182  1.0851  0.5395
11931TIP3    H157208   5.403   4.456   0.337 -0.8609 -0.4026  0.0107
11931TIP3    H257209   5.371   4.436   0.483 -0.5771 -1.7284 -0.0942
11932TIP3   OH257210   2.408   3.520   4.670 -0.1403 -0.1821 -0.3924
11932TIP3    H157211   2.392   3.610   4.640  1.1823  0.6930  1.3191
11932TIP3    H257212   2.333   3.500   4.726  0.8501  0.9747  1.4525
11933TIP3   OH257213   4.866   2.788   5.175  0.3512  0.4632 -0.2964
11933TIP3    H157214   4.852   2.824   5.087  0.1336 -0.0730 -0.4913
11933TIP3    H257215   4.778   2.778   5.211  0.3184 -0.8213 -0.6531
11934TIP3   OH257216   2.883   0.713  13.959 -0.0809 -0.2339  0.2673
11934TIP3    H157217   2.921   0.640  13.911 -1.9121 -0.2947 -1.1920
11934TIP3    H257218   2.789   0.697  13.958 -0.7003  2.7925 -1.3008
11935TIP3   OH257219   5.420   2.450  16.658 -0.2866  0.3121 -0.2686
11935TIP3    H157220   5.350   2.514  16.643 -1.2924 -0.4543  0.9388
11935TIP3    H257221   5.500   2.500  16.646 -1.0339  1.3605 -1.1268
11936TIP3   OH257222   0.954   2.590  13.994  0.1662  0.1983 -0.0532
11936TIP3    H157223   0.967   2.667  14.050 -0.6258 -0.0137  0.4407
11936TIP3    H257224   0.984   2.517  14.048 -1.6773 -0.1444  0.5892
11937TIP3   OH257225   2.894   4.632   0.180 -0.1324 -0.4500 -0.5678
11937TIP3    H157226   2.919   4.716   0.140  0.5706 -0.5168 -0.2762
11937TIP3    H257227   2.843   4.588   0.112 -0.4184  0.1718 -0.7626
11938TIP3   OH257228   6.004   3.632   5.122  0.1616  0.7409  0.3581
11938TIP3    H157229   6.021   3.639   5.216  0.1504  0.9007  0.3480
11938TIP3    H257230   6.087   3.655   5.080  0.5197 -0.4983  0.3508
11939TIP3   OH257231   6.304   3.445   3.521 -0.0658 -0.2961 -0.3819
11939TIP3    H157232   6.209   3.455   3.533 -0.0513 -0.6989  0.1292
11939TIP3    H257233   6.326   3.507   3.451 -0.7349 -0.3379 -0.6406
11940TIP3   OH257234   6.038   6.249  14.936 -0.1284  0.0944  0.4980
11940TIP3    H157235   5.990   6.265  15.017  2.7777  0.5918  2.2626
11940TIP3    H257236   5.978   6.198  14.882 -3.3973  2.4884  1.5707
11941TIP3   OH257237   1.581   4.647   3.938  0.6595 -0.3760  0.3100
11941TIP3    H157238   1.487   4.630   3.947  0.8479 -0.5519  2.6402
11941TIP3    H257239   1.588   4.707   3.864 -1.4321  0.6264  0.8490
11942TIP3   OH257240   6.318   0.256   1.258  0.0834 -0.4805  0.4347
11942TIP3    H157241   6.269   0.175   1.273  0.5907 -0.8319  0.2426
11942TIP3    H257242   6.383   0.232   1.191 -0.0107  0.1882  0.0984
11943TIP3   OH257243   3.903   5.729   0.647 -0.1071 -0.3730 -0.3360
11943TIP3    H157244   3.967   5.753   0.714  2.7201 -0.8041 -2.7080
11943TIP3    H257245   3.878   5.812   0.606  0.1406 -0.3400 -0.4211
11944TIP3   OH257246   3.731   5.686  15.722  0.1304 -0.1839  0.1509
11944TIP3    H157247   3.818   5.663  15.688 -0.3911 -0.8077 -0.8345
11944TIP3    H257248   3.688   5.732  15.649 -0.3379  0.1934  0.6560
11945TIP3   OH257249   6.596   6.045  14.316 -0.6982 -0.4013  0.0301
11945TIP3    H157250   6.554   6.023  14.399  1.6766  1.0017  1.7434
11945TIP3    H257251   6.678   5.995  14.316 -0.5280 -0.1769 -1.3647
11946TIP3   OH257252   1.407   6.270   4.893  0.1699 -0.1603  0.4057
11946TIP3    H157253   1.472   6.210   4.928  0.6476 -0.3351 -0.7439
11946TIP3    H257254   1.458   6.341   4.853 -0.3388 -0.1698 -0.2825
11947TIP3   OH257255   1.453   2.580   5.415 -0.5034  0.4850  0.1579
11947TIP3    H157256   1.430   2.570   5.507  1.0595 -0.7889  0.4497
11947TIP3    H257257   1.501   2.662   5.411 -0.2942  0.3828  0.5377
11948TIP3   OH257258   2.658   3.407   4.701  0.2449 -0.2837 -0.1230
11948TIP3    H157259   2.663   3.312   4.697 -0.6521 -0.3056 -1.2291
11948TIP3    H257260   2.570   3.428   4.670  0.1075  0.8723  0.9688
11949TIP3   OH257261   3.068   0.817   6.516 -0.3846 -0.0149 -0.0701
11949TIP3    H157262   3.083   0.746   6.454 -0.5913 -0.4691  0.3898
11949TIP3    H257263   3.039   0.891   6.462 -0.3710 -0.3414 -0.5292
11950TIP3   OH257264   5.040   6.325  16.983 -0.7319  0.1496  0.4960
11950TIP3    H157265   5.135   6.334  16.990 -0.9066  2.2123  0.6943
11950TIP3    H257266   5.022   6.328  16.890 -0.5394 -1.6646  0.3503
11951TIP3   OH257267   5.020   3.931  15.728  0.6193 -0.5517  0.3404
11951TIP3    H157268   4.987   4.006  15.679  1.1384 -0.4910  0.0662
11951TIP3    H257269   5.031   3.963  15.818  0.3358 -0.4572  0.3412
11952TIP3   OH257270   1.906   4.026  15.851 -0.0017 -0.8631  0.3666
11952TIP3    H157271   1.986   4.057  15.810 -0.7663 -1.0611 -1.3796
11952TIP3    H257272   1.910   3.931  15.842 -0.3076 -0.8916  0.5110
11953TIP3   OH257273   1.850   5.217   5.957 -0.1150 -0.0736  0.2271
11953TIP3    H157274   1.830   5.304   5.923  0.6783  0.3096  0.7150
11953TIP3    H257275   1.891   5.171   5.884 -0.5816 -0.0644 -0.0472
11954TIP3   OH257276   0.666   2.446  15.683 -0.5831  0.4435  0.1154
11954TIP3    H157277   0.670   2.484  15.596 -0.9288 -0.0276 -0.1102
11954TIP3    H257278   0.577   2.411  15.690 -0.0040 -1.1589 -0.0406
11955TIP3   OH257279   2.707   2.377   1.750 -0.2725  0.0095  0.2920
11955TIP3    H157280   2.691   2.456   1.700  0.6941  1.1891  1.7524
11955TIP3    H257281   2.720   2.407   1.840 -0.2662 -1.8481  0.9696
11956TIP3   OH257282   4.965   6.385  14.624 -0.6092  0.7638 -0.0799
11956TIP3    H157283   5.004   6.341  14.549 -0.5232  1.1593 -0.2686
11956TIP3    H257284   4.887   6.427  14.589 -0.9861  0.3217  0.2110
11957TIP3   OH257285   0.530   3.994  14.683  0.1341  0.3211  0.0105
11957TIP3    H157286   0.473   4.065  14.713 -0.8544 -0.3755 -0.1824
11957TIP3    H257287   0.579   4.032  14.610 -0.7705  0.6548 -0.4419
11958TIP3   OH257288   6.708   5.780  15.710  0.1105  0.6332  0.4070
11958TIP3    H157289   6.718   5.872  15.733 -1.4034  1.0107 -0.2940
11958TIP3    H257290   6.797   5.745  15.709  0.6704  1.9761  1.1088
11959TIP3   OH257291   3.045   0.256   5.525  0.2495  0.3478  0.2642
11959TIP3    H157292   2.962   0.210   5.538  0.2338  0.0249 -0.8686
11959TIP3    H257293   3.057   0.258   5.430  0.3737  2.4899  0.2807
11960TIP3   OH257294   6.594   0.018   1.363  0.2392 -0.0793  0.1099
11960TIP3    H157295   6.592  -0.075   1.340 -1.1687 -0.2124  0.7255
11960TIP3    H257296   6.608   0.063   1.279  0.8276 -0.8322 -0.2009
11961TIP3   OH257297   5.780   2.084   2.602  0.2281  0.1368  0.1465
11961TIP3    H157298   5.771   2.153   2.669  1.7625  0.9524 -0.4311
11961TIP3    H257299   5.764   2.003   2.649 -2.4652  0.8957  0.6792
11962TIP3   OH257300   0.842   1.726  15.055  0.0474  0.7358 -0.6553
11962TIP3    H157301   0.930   1.690  15.051  0.9998  2.4414  2.0287
11962TIP3    H257302   0.804   1.688  15.135 -1.5296  0.3433 -1.5477
11963TIP3   OH257303   1.120   1.068  15.284  0.6446  0.0238  0.2754
11963TIP3    H157304   1.116   1.116  15.366 -1.1058 -1.7975  1.3495
11963TIP3    H257305   1.047   1.006  15.289  2.3603 -2.2723 -1.2826
11964TIP3   OH257306   1.847   6.611  14.569 -0.5174 -0.6343 -0.0935
11964TIP3    H157307   1.761   6.574  14.588 -0.3368 -1.7411 -1.2929
11964TIP3    H257308   1.850   6.619  14.474  1.2722 -2.1452 -0.2199
11965TIP3   OH257309   6.732   3.806   1.130  0.4599 -0.1623  0.1637
11965TIP3    H157310   6.690   3.738   1.076  0.0434  0.5263 -0.3909
11965TIP3    H257311   6.685   3.804   1.213 -0.8000  0.7049 -0.5021
11966TIP3   OH257312   3.810   1.851  13.875 -0.4302 -0.5991  0.0106
11966TIP3    H157313   3.778   1.923  13.930  0.0917 -0.2055 -0.1913
11966TIP3    H257314   3.870   1.893  13.813  0.0029 -1.2298 -0.0091
11967TIP3   OH257315   2.767   1.371  11.811  0.1631 -1.0017 -0.5244
11967TIP3    H157316   2.823   1.429  11.863 -1.5052  0.1757  0.0334
11967TIP3    H257317   2.812   1.286  11.813  1.1547 -0.4779  1.1486
11968TIP3   OH257318   3.715   4.543   4.450 -0.5717 -0.1876 -0.2564
11968TIP3    H157319   3.750   4.618   4.499  0.6453 -1.3529  0.7048
11968TIP3    H257320   3.634   4.520   4.497  0.7256 -1.4717  1.4742
11969TIP3   OH257321   1.503   2.816  16.288  0.2513  0.1966  0.1856
11969TIP3    H157322   1.497   2.805  16.382 -0.8094  0.1043  0.1175
11969TIP3    H257323   1.591   2.788  16.266  0.9970  1.4988  1.3194
11970TIP3   OH257324   6.092   5.388   5.516 -0.3384  0.0336 -0.0915
11970TIP3    H157325   6.153   5.458   5.492 -1.2710  0.8128 -0.2337
11970TIP3    H257326   6.026   5.430   5.570  0.2684 -1.1783  1.6911
11971TIP3   OH257327   0.764   2.646   1.328 -0.0841 -0.5502  0.5337
11971TIP3    H157328   0.708   2.589   1.380 -2.1635  1.6152  0.8590
11971TIP3    H257329   0.832   2.675   1.389 -0.3350 -0.9162  0.9970
11972TIP3   OH257330   2.955   3.442  11.482  0.0761 -0.2461 -0.2320
11972TIP3    H157331   2.985   3.437  11.573  1.8766 -2.5191 -0.8677
11972TIP3    H257332   3.018   3.498  11.438 -0.2933  0.1334 -0.2918
11973TIP3   OH257333   6.291   6.588   1.199  0.2722 -0.1355  0.0121
11973TIP3    H157334   6.383   6.591   1.224 -0.1431 -0.1873  1.7057
11973TIP3    H257335   6.277   6.498   1.168  1.2105  0.4251 -2.1940
11974TIP3   OH257336   4.201   0.201  14.001  0.1071  0.6194 -0.3685
11974TIP3    H157337   4.263   0.158  13.943  0.8288  0.6099  0.3788
11974TIP3    H257338   4.256   0.245  14.066 -0.6669  0.1832  0.6176
11975TIP3   OH257339   3.402   5.394   3.626  0.1552  0.7726  0.0144
11975TIP3    H157340   3.383   5.460   3.560  2.2048  0.8533 -0.5609
11975TIP3    H257341   3.316   5.364   3.656 -0.8152  1.6288 -1.7788
11976TIP3   OH257342   0.009   4.583  11.473  0.3324 -0.0282 -0.4714
11976TIP3    H157343   0.032   4.670  11.506  0.8478 -1.0564  2.2111
11976TIP3    H257344   0.092   4.545  11.445  0.4156 -0.3033  0.1317
11977TIP3   OH257345   3.715   3.541  15.068 -0.1110 -0.0660  0.1872
11977TIP3    H157346   3.657   3.469  15.043 -0.5746 -0.2525  1.6677
11977TIP3    H257347   3.664   3.620  15.050  0.5718 -0.0351 -1.8739
11978TIP3   OH257348   2.066   4.742   1.196  0.0094 -0.6301 -0.2469
11978TIP3    H157349   1.989   4.796   1.212  0.2783 -0.5430  0.8565
11978TIP3    H257350   2.110   4.784   1.123  1.1994  1.7964  1.7083
11979TIP3   OH257351   2.576   4.581  13.025 -0.0952  0.2805  0.2016
11979TIP3    H157352   2.495   4.565  12.976  0.5112  1.2628 -1.1942
11979TIP3    H257353   2.574   4.674  13.046  0.8998  0.4290 -0.2958
11980TIP3   OH257354   2.009   5.761   4.665  0.2343  0.1820  0.2769
11980TIP3    H157355   2.098   5.743   4.634 -0.2571  0.4671 -1.4404
11980TIP3    H257356   1.988   5.847   4.628 -1.1365 -0.3588 -0.2690
11981TIP3   OH257357   4.665   3.864   4.656 -0.5418  0.0662  0.4093
11981TIP3    H157358   4.684   3.956   4.637 -1.7787  0.3408  0.3565
11981TIP3    H257359   4.626   3.866   4.744 -0.6314 -0.3945  0.3798
11982TIP3   OH257360   1.699   2.636   5.250  0.3354 -0.1195 -0.4103
11982TIP3    H157361   1.688   2.613   5.342 -0.4966  0.1665 -0.4300
11982TIP3    H257362   1.616   2.677   5.225  0.5115 -0.2913 -1.3187
11983TIP3   OH257363   5.311   1.352  13.828 -0.2266 -0.0868  0.4092
11983TIP3    H157364   5.312   1.373  13.735  0.4822 -0.3154  0.3615
11983TIP3    H257365   5.303   1.257  13.831 -1.7339  0.0232  0.6066
11984TIP3   OH257366   6.412   5.536   3.704  0.6195 -0.3744 -0.1062
11984TIP3    H157367   6.446   5.536   3.793  0.1882  0.1099  0.0643
11984TIP3    H257368   6.392   5.444   3.685 -1.7969 -0.1881  1.2746
11985TIP3   OH257369   5.994   1.246   1.030  0.0380 -0.1344 -0.1081
11985TIP3    H157370   6.007   1.242   0.936 -0.4290 -0.0384 -0.1818
11985TIP3    H257371   6.020   1.159   1.062  0.1026 -0.1984 -0.3364
11986TIP3   OH257372   1.706   5.087   0.473 -0.6607  0.4605 -0.0091
11986TIP3    H157373   1.722   5.011   0.529  0.2076  0.4103 -0.3021
11986TIP3    H257374   1.633   5.061   0.417 -0.7041  0.0341  0.2457
11987TIP3   OH257375   4.204   4.672   3.002 -0.2825 -0.0697  0.2075
11987TIP3    H157376   4.284   4.722   2.985 -0.6209 -0.2664 -2.4585
11987TIP3    H257377   4.231   4.580   2.991 -0.4358 -0.2856  1.4815
11988TIP3   OH257378   0.301   6.035  12.777 -0.0867  0.5462 -0.5319
11988TIP3    H157379   0.281   6.128  12.772 -0.0162  0.5557 -0.6312
11988TIP3    H257380   0.235   5.999  12.837  0.6816  0.8876  0.5423
11989TIP3   OH257381   1.796   6.478   4.097 -0.5274  0.7266 -0.5518
11989TIP3    H157382   1.764   6.400   4.142 -0.2534  0.9373  0.0230
11989TIP3    H257383   1.736   6.548   4.124  0.2567  1.0707  0.3289
11990TIP3   OH257384   0.811   3.092   3.906 -0.5438 -0.9278  0.0481
11990TIP3    H157385   0.732   3.052   3.941 -1.7836  0.7581 -0.6656
11990TIP3    H257386   0.841   3.152   3.974 -0.3862 -0.9289 -0.0188
11991TIP3   OH257387   4.391   4.202  14.414  0.5988  0.6072  0.4083
11991TIP3    H157388   4.424   4.221  14.326  0.5388 -0.8937  0.0394
11991TIP3    H257389   4.469   4.196  14.468  0.8889 -1.2554 -0.1335
11992TIP3   OH257390   0.948   6.114  14.906  0.1913  0.1178 -0.3256
11992TIP3    H157391   0.987   6.145  14.824  0.4395 -1.1799 -0.7203
11992TIP3    H257392   1.005   6.042  14.934  1.0374  1.5134  1.8403
11993TIP3   OH257393   2.930   4.977  14.343  0.0452  0.1025 -0.1791
11993TIP3    H157394   2.854   4.940  14.299 -0.0203 -0.1982  0.1844
11993TIP3    H257395   2.900   5.060  14.380 -0.6994 -0.9792  1.7766
11994TIP3   OH257396   5.878   3.613  16.761 -0.3229  0.2289  0.4645
11994TIP3    H157397   5.866   3.699  16.720 -0.8622  0.1569  0.4599
11994TIP3    H257398   5.792   3.591  16.796 -0.5516 -0.9219 -0.7444
11995TIP3   OH257399   0.489   0.649   6.487 -0.2165  0.5337 -0.1852
11995TIP3    H157400   0.509   0.632   6.579  0.9441 -0.2223 -0.5524
11995TIP3    H257401   0.452   0.737   6.486 -1.1559  0.1909  1.1112
11996TIP3   OH257402   1.602   4.694  15.672 -0.4826 -0.3259 -0.4155
11996TIP3    H157403   1.642   4.672  15.588  1.5473 -0.0903  0.4241
11996TIP3    H257404   1.582   4.788  15.666  0.5333 -0.0947 -0.3246
11997TIP3   OH257405   2.584   0.170  14.290 -0.5636  0.1286 -0.7461
11997TIP3    H157406   2.591   0.170  14.386 -0.9212  1.1501 -0.7031
11997TIP3    H257407   2.668   0.204  14.260 -0.1165 -1.0112 -0.8528
11998TIP3   OH257408   6.564   3.813   6.624  0.3999  0.8548 -0.7205
11998TIP3    H157409   6.596   3.734   6.667 -1.1971 -0.0710 -1.1473
11998TIP3    H257410   6.589   3.884   6.684 -1.2940 -0.3285  1.5635
11999TIP3   OH257411   1.961   1.738   3.500 -0.2514  0.2091 -0.8166
11999TIP3    H157412   1.911   1.759   3.421 -1.2189 -1.4583 -0.6756
11999TIP3    H257413   1.898   1.696   3.559  1.4491 -3.0554 -1.0918
12000TIP3   OH257414   3.756   4.381  17.229  0.2703 -0.2091  0.0703
12000TIP3    H157415   3.740   4.356  17.320  0.5978 -0.3310  0.0948
12000TIP3    H257416   3.794   4.303  17.189 -2.1913 -1.0140 -0.8360
12001TIP3   OH257417   4.812   3.221  13.352 -0.3522  0.0358  0.5201
12001TIP3    H157418   4.785   3.302  13.309 -0.0170 -0.7459 -1.2500
12001TIP3    H257419   4.893   3.243  13.397 -0.4266  0.7661  0.3027
12002TIP3   OH257420   1.188   5.863  11.397  0.2726  0.4347 -0.0081
12002TIP3    H157421   1.134   5.934  11.361 -0.8212 -1.6144 -2.7411
12002TIP3    H257422   1.277   5.885  11.370  0.3421  1.9076  1.2641
12003TIP3   OH257423   0.760   4.041   1.841 -0.0599  0.3049 -0.0402
12003TIP3    H157424   0.833   4.087   1.882 -0.4070  0.8668 -0.0439
12003TIP3    H257425   0.709   4.006   1.915 -0.4108  0.8921  0.0049
12004TIP3   OH257426   5.855   2.827   3.511  0.1403  0.1403 -0.0924
12004TIP3    H157427   5.803   2.866   3.582 -0.0069  0.9031 -0.6102
12004TIP3    H257428   5.925   2.781   3.557 -0.3077  0.1019  0.5737
12005TIP3   OH257429   0.558   0.269   4.504 -0.6420  0.5671 -0.0206
12005TIP3    H157430   0.639   0.226   4.533  0.8298  2.8941 -0.4131
12005TIP3    H257431   0.549   0.245   4.412 -0.4030  0.3021  0.0251
12006TIP3   OH257432   2.259   3.111  16.182  0.4565 -0.3477  0.5236
12006TIP3    H157433   2.171   3.103  16.218  0.5119 -1.4412  0.4532
12006TIP3    H257434   2.312   3.052  16.235  1.2935  0.7715  0.9753
12007TIP3   OH257435   1.254   4.345   0.467  0.0722  0.0241  0.7072
12007TIP3    H157436   1.267   4.381   0.379  0.0412  0.0969  0.7328
12007TIP3    H257437   1.187   4.400   0.506  0.3188  0.1956  0.8962
12008TIP3   OH257438   4.552   2.652  13.470  0.2677  0.1838  0.4838
12008TIP3    H157439   4.602   2.572  13.456  2.7172  2.0547 -3.0858
12008TIP3    H257440   4.512   2.670  13.384  0.1250  2.9525  1.0408
12009TIP3   OH257441   1.407   0.477   3.222  0.1848 -0.4718  0.8557
12009TIP3    H157442   1.437   0.458   3.134 -2.4767 -2.4340  0.2326
12009TIP3    H257443   1.338   0.412   3.238 -2.0263  2.1640  2.9437
12010TIP3   OH257444   5.108   5.916   3.345  0.1021  0.2031  0.1513
12010TIP3    H157445   5.182   5.867   3.379 -0.0066 -1.0299 -1.2846
12010TIP3    H257446   5.038   5.900   3.409  0.7591  0.4992  0.9563
12011TIP3   OH257447   4.407   2.436  15.210  0.4119  0.1459  0.0655
12011TIP3    H157448   4.455   2.386  15.145  0.7699 -2.1687  1.9594
12011TIP3    H257449   4.459   2.516  15.223  2.6874 -1.3394  0.5790
12012TIP3   OH257450   4.007   2.490  11.489  0.6964  0.0718 -0.2737
12012TIP3    H157451   3.986   2.525  11.575  0.9612 -0.3231 -0.0479
12012TIP3    H257452   4.064   2.555  11.449  0.1856  0.4872 -0.3466
12013TIP3   OH257453   5.254   1.530   2.629 -0.2332 -0.2675  0.1517
12013TIP3    H157454   5.204   1.505   2.707  0.2590 -0.2839  0.4642
12013TIP3    H257455   5.214   1.480   2.558 -1.1492  0.2909  0.2638
12014TIP3   OH257456   1.100   1.455  14.443 -0.0373  0.0292  0.3257
12014TIP3    H157457   1.120   1.443  14.350  2.2749  0.0112  0.7670
12014TIP3    H257458   1.146   1.535  14.467  0.6686 -0.7714  1.7807
12015TIP3   OH257459   5.566   2.324   4.189 -0.8747 -0.4093  0.0718
12015TIP3    H157460   5.505   2.262   4.149 -0.6545 -2.2036  2.3388
12015TIP3    H257461   5.651   2.281   4.183 -0.4813  0.2910  0.4856
12016TIP3   OH257462   6.141   2.795  15.564  0.2850  0.0141  0.5556
12016TIP3    H157463   6.060   2.753  15.535 -0.0051  0.5054  0.6515
12016TIP3    H257464   6.131   2.806  15.658  1.0514 -1.1877  0.8045
12017TIP3   OH257465   5.880   2.589   1.800 -0.1504  0.3045 -0.1695
12017TIP3    H157466   5.893   2.528   1.872 -0.1375  1.1269  0.5397
12017TIP3    H257467   5.845   2.535   1.729  1.5863 -0.8575 -0.1859
12018TIP3   OH257468   5.915   4.255  17.026  0.3731  0.4594  0.1486
12018TIP3    H157469   5.970   4.310  16.970  0.7849  0.3398  0.4222
12018TIP3    H257470   5.945   4.166  17.009 -1.0244  0.2024 -1.0898
12019TIP3   OH257471   5.125   5.336  14.714 -0.1657  0.3572 -0.2894
12019TIP3    H157472   5.046   5.290  14.742 -0.7796  1.1166 -0.7243
12019TIP3    H257473   5.166   5.277  14.651 -1.4628  0.7826 -1.5898
12020TIP3   OH257474   4.675   3.293  14.699  0.1147  0.2218 -0.0875
12020TIP3    H157475   4.697   3.202  14.681  1.4131  0.4876  0.0555
12020TIP3    H257476   4.641   3.292  14.788 -0.6355 -0.2273 -0.3716
12021TIP3   OH257477   2.131   4.537  15.476  0.3678 -0.8501  1.0482
12021TIP3    H157478   2.212   4.515  15.430  0.0571 -0.7262  0.4431
12021TIP3    H257479   2.066   4.551  15.407  0.1705  0.4315  1.4679
12022TIP3   OH257480   4.527   5.332  11.171  0.7363  0.1606  0.2484
12022TIP3    H157481   4.609   5.374  11.144  0.8383 -0.4020 -0.3568
12022TIP3    H257482   4.486   5.304  11.089  0.6593 -0.8914  0.6206
12023TIP3   OH257483   1.501   0.099  15.989 -0.5690 -0.2234  0.0925
12023TIP3    H157484   1.457   0.154  16.053 -1.8846 -1.3316  0.1915
12023TIP3    H257485   1.542   0.160  15.929 -2.1518  0.8856  0.0721
12024TIP3   OH257486   5.598   3.895  11.640 -0.6168 -0.0183 -0.2493
12024TIP3    H157487   5.609   3.860  11.552 -1.5232 -2.1392  0.4356
12024TIP3    H257488   5.661   3.847  11.694 -1.9771 -0.7524  0.7392
12025TIP3   OH257489   5.676   6.594  15.418 -0.1351 -0.4344 -0.1871
12025TIP3    H157490   5.667   6.595  15.322 -1.8793 -2.1257 -0.1074
12025TIP3    H257491   5.693   6.502  15.439  3.4560  0.3633  0.9660
12026TIP3   OH257492   4.760   0.774  16.581  0.0771 -0.7645  0.1740
12026TIP3    H157493   4.828   0.710  16.560  0.7938  0.1903 -0.4698
12026TIP3    H257494   4.767   0.840  16.512  0.7222  1.1095  1.9441
12027TIP3   OH257495   0.126   0.166   4.309  0.4512  0.5218  0.2651
12027TIP3    H157496   0.100   0.249   4.268  2.7985  0.6489 -1.1316
12027TIP3    H257497   0.183   0.193   4.382  0.7188  0.1467  0.1921
12028TIP3   OH257498   1.396   2.259   5.995 -0.0494 -0.7515 -0.6336
12028TIP3    H157499   1.420   2.192   6.059 -0.8263 -1.1772 -0.7883
12028TIP3    H257500   1.435   2.340   6.031  0.5353 -1.1983 -0.2405
12029TIP3   OH257501   5.634   2.512   2.471 -0.3568 -0.0387 -0.0872
12029TIP3    H157502   5.689   2.474   2.403  0.2125 -1.7312  1.2421
12029TIP3    H257503   5.695   2.560   2.527 -0.6059  0.1159  0.0547
12030TIP3   OH257504   1.757   2.922   6.011  0.4507 -0.1571 -0.5748
12030TIP3    H157505   1.839   2.907   5.964  0.8530 -0.3142  0.1628
12030TIP3    H257506   1.755   3.017   6.026 -0.0251 -0.0080 -1.5161
12031TIP3   OH257507   2.656   5.872  12.678 -0.0582 -0.8700  0.1787
12031TIP3    H157508   2.623   5.787  12.710 -1.4699 -1.0312 -1.5383
12031TIP3    H257509   2.692   5.853  12.592 -0.5285  0.2809 -0.2915
12032TIP3   OH257510   5.395   5.556   4.446  0.2527 -0.4868 -0.1076
12032TIP3    H157511   5.320   5.497   4.456  1.1983 -1.5725  0.6686
12032TIP3    H257512   5.468   5.511   4.488  1.8559 -0.3640 -2.5695
12033TIP3   OH257513   1.222   3.054  12.636 -0.5009 -0.0788  0.2155
12033TIP3    H157514   1.258   2.973  12.599  1.2667  0.7642 -0.0467
12033TIP3    H257515   1.247   3.051  12.728 -1.0837 -0.1773  0.3693
12034TIP3   OH257516   0.323   0.338   1.253 -0.4208  0.6772 -0.3510
12034TIP3    H157517   0.300   0.245   1.242 -1.7613  1.0949 -1.3762
12034TIP3    H257518   0.417   0.337   1.268 -0.5138 -0.9050  0.4322
12035TIP3   OH257519   0.817   4.126   5.081  0.1224  0.1809 -0.0185
12035TIP3    H157520   0.823   4.121   5.177  1.5456 -1.6939 -0.1333
12035TIP3    H257521   0.725   4.107   5.062  0.2183 -1.5229  0.9538
12036TIP3   OH257522   0.844   4.595  11.869 -0.0233  0.1365 -0.3601
12036TIP3    H157523   0.932   4.630  11.858 -0.4223  1.1887 -0.2610
12036TIP3    H257524   0.794   4.666  11.910 -1.1565 -0.1056 -1.2610
12037TIP3   OH257525   1.543   5.200  17.075  0.1833 -0.6968  0.2120
12037TIP3    H157526   1.554   5.114  17.035 -0.6798 -0.3793 -0.7769
12037TIP3    H257527   1.459   5.231  17.040  1.5372  1.5011 -1.3081
12038TIP3   OH257528   0.870   5.421  11.250 -0.4695  0.2831  0.8643
12038TIP3    H157529   0.929   5.494  11.231 -1.0562  0.8091  1.0571
12038TIP3    H257530   0.815   5.413  11.172 -0.8467  0.4730  1.1113
12039TIP3   OH257531   5.146   4.240   3.927 -0.7763 -0.8931 -0.6382
12039TIP3    H157532   5.142   4.330   3.894 -0.8539 -1.3319 -1.8591
12039TIP3    H257533   5.093   4.242   4.007 -0.0894  0.3290 -0.1890
12040TIP3   OH257534   6.317   0.039  11.980 -0.5389 -0.4331  0.4999
12040TIP3    H157535   6.315   0.134  11.996 -1.0699 -0.4811  0.7428
12040TIP3    H257536   6.306   0.031  11.886 -1.4176 -0.2806  0.5853
12041TIP3   OH257537   1.242   6.717   2.598 -0.1632  0.5505 -0.0612
12041TIP3    H157538   1.329   6.685   2.622 -0.2257 -0.5256 -1.1845
12041TIP3    H257539   1.227   6.682   2.510 -0.4967  3.1542 -1.1579
12042TIP3   OH257540   1.500   6.645  10.763  0.1639 -0.0317 -0.2912
12042TIP3    H157541   1.464   6.559  10.781  0.6606 -0.0340  0.7440
12042TIP3    H257542   1.453   6.675  10.685 -1.6415 -0.2729  0.6578
12043TIP3   OH257543   1.313   1.066   0.336  0.2479 -0.1378  1.4083
12043TIP3    H157544   1.371   1.039   0.264  1.7681  1.8254  1.7934
12043TIP3    H257545   1.338   1.010   0.409 -0.0810 -0.9588  0.9074
12044TIP3   OH257546   1.182   1.734  13.230 -0.0626  0.2121  0.7727
12044TIP3    H157547   1.231   1.800  13.278  1.0408  0.9254 -1.2158
12044TIP3    H257548   1.168   1.664  13.294  2.6359  0.4377  1.7593
12045TIP3   OH257549   4.394   1.326   5.673  0.1888  0.3086 -0.0658
12045TIP3    H157550   4.331   1.394   5.698 -0.7858 -0.1442 -1.2056
12045TIP3    H257551   4.454   1.320   5.748 -1.4132  0.3985  1.2590
12046TIP3   OH257552   4.241   2.371  14.437 -0.0279  0.3420  0.0746
12046TIP3    H157553   4.161   2.380  14.385  0.6957 -0.2411 -1.1830
12046TIP3    H257554   4.224   2.298  14.496  0.1567 -0.8754 -1.3473
12047TIP3   OH257555   0.316   5.176  12.333  0.2656  0.3760 -0.1515
12047TIP3    H157556   0.373   5.100  12.344 -1.5752 -0.9604  0.6127
12047TIP3    H257557   0.257   5.173  12.408 -1.3703  1.1829 -1.3430
12048TIP3   OH257558   1.423   2.264  16.074  0.5100  0.1281  0.5699
12048TIP3    H157559   1.421   2.174  16.106  0.8597  0.3507  1.2249
12048TIP3    H257560   1.361   2.265  16.001 -0.6818 -0.2719  1.5386
12049TIP3   OH257561   6.575   5.733   0.582 -0.2715 -0.3394 -0.1465
12049TIP3    H157562   6.581   5.729   0.678 -0.0757 -3.7633 -0.1667
12049TIP3    H257563   6.657   5.774   0.555  1.2202 -2.3003  1.1218
12050TIP3   OH257564   2.735   4.177   5.258  0.0238  0.1310  0.0872
12050TIP3    H157565   2.714   4.143   5.345 -0.9875 -0.0013 -0.1975
12050TIP3    H257566   2.704   4.110   5.198  1.1092  0.0310 -0.3743
12051TIP3   OH257567   0.169   0.624   5.680  0.0534  0.4392  0.1523
12051TIP3    H157568   0.198   0.655   5.595  0.8312 -0.3846  0.1070
12051TIP3    H257569   0.118   0.546   5.661 -0.5843  0.7876  0.3828
12052TIP3   OH257570   3.599   1.390  11.370 -0.2078 -0.0384  0.2431
12052TIP3    H157571   3.639   1.305  11.393 -0.9601 -0.9532 -1.6338
12052TIP3    H257572   3.672   1.451  11.367  0.3219 -0.5416  1.8502
12053TIP3   OH257573   6.327   5.792   0.505 -0.2708  0.1397 -0.4292
12053TIP3    H157574   6.300   5.743   0.427  1.3499 -0.3459 -0.7100
12053TIP3    H257575   6.415   5.761   0.524  0.3650  2.1051  0.0902
12054TIP3   OH257576   0.633   0.779   3.961 -0.4300 -0.3137 -0.6083
12054TIP3    H157577   0.619   0.858   3.909  1.2925  0.6926  0.3648
12054TIP3    H257578   0.550   0.767   4.008 -0.7309  0.8914 -0.8002
12055TIP3   OH257579   0.797   6.679   2.215 -0.0080 -0.6098  0.0727
12055TIP3    H157580   0.707   6.702   2.238  0.0706 -0.6650  0.4538
12055TIP3    H257581   0.826   6.624   2.288  0.1724 -0.9921 -0.2827
12056TIP3   OH257582   6.519   1.230   6.544 -0.1877  0.4365 -0.0061
12056TIP3    H157583   6.485   1.141   6.538 -0.4167  0.4144  1.3411
12056TIP3    H257584   6.613   1.220   6.528 -0.4784  0.2257 -1.7206
12057TIP3   OH257585   2.064   2.021  14.724 -0.2890  0.6415 -0.2089
12057TIP3    H157586   1.980   2.010  14.770  1.5234 -0.9813  3.0296
12057TIP3    H257587   2.068   1.947  14.665 -0.6476  0.0223  0.5214
12058TIP3   OH257588   3.750   1.887   5.431  0.6213 -0.5830 -0.0311
12058TIP3    H157589   3.785   1.800   5.454 -0.5636 -1.2182 -0.5680
12058TIP3    H257590   3.816   1.948   5.465  2.0000 -1.7130 -0.5637
12059TIP3   OH257591   1.894   1.219  12.136 -0.1583 -0.0226  0.1682
12059TIP3    H157592   1.974   1.256  12.174  0.2761  0.5182 -1.2024
12059TIP3    H257593   1.862   1.287  12.076 -1.4524 -0.3836  0.4117
12060TIP3   OH257594   1.606   3.709  12.835 -0.1745  0.6438 -0.1927
12060TIP3    H157595   1.580   3.799  12.851  1.8038  1.2609 -0.1591
12060TIP3    H257596   1.696   3.704  12.868 -0.5374 -1.5836  0.5991
12061TIP3   OH257597   0.728   2.760  14.922 -0.1561  0.1864  0.2332
12061TIP3    H157598   0.790   2.755  14.850  0.7878  1.4334  0.9171
12061TIP3    H257599   0.648   2.721  14.888  0.4992  0.0665 -1.2247
12062TIP3   OH257600   1.036   6.328  11.464  0.0213 -0.1441  0.3640
12062TIP3    H157601   1.116   6.382  11.463  0.4013 -0.6567  1.4737
12062TIP3    H257602   0.996   6.343  11.378  0.0574  1.9856  0.6621
12063TIP3   OH257603   6.302   5.394  15.403  0.2961  0.4495  0.5055
12063TIP3    H157604   6.294   5.464  15.468 -0.6769 -0.1626  1.0686
12063TIP3    H257605   6.327   5.439  15.322  1.1470  1.2753  1.1926
12064TIP3   OH257606   5.779   3.680   1.563 -0.1961  0.5501  0.1469
12064TIP3    H157607   5.857   3.645   1.606  0.6291  2.5527  0.3783
12064TIP3    H257608   5.732   3.602   1.532  0.3550 -0.8614  2.5788
12065TIP3   OH257609   1.602   0.629  13.377  0.2282 -0.0987 -0.6888
12065TIP3    H157610   1.683   0.654  13.421  0.4989 -1.1925 -0.5321
12065TIP3    H257611   1.544   0.704  13.389  1.1197  0.5911 -0.5722
12066TIP3   OH257612   1.790   6.382  15.112  0.9178 -1.1803  0.0339
12066TIP3    H157613   1.823   6.430  15.188  0.9941 -0.6376 -0.3442
12066TIP3    H257614   1.818   6.433  15.036 -2.8013  0.6841 -0.3081
12067TIP3   OH257615   4.001   6.461   1.914  0.0249 -0.1056 -0.1739
12067TIP3    H157616   4.054   6.404   1.970 -2.1226 -1.1207  0.9716
12067TIP3    H257617   3.925   6.407   1.890 -1.0448  1.6028 -0.8368
12068TIP3   OH257618   5.430   1.606   0.422 -0.2185 -0.1726 -0.6996
12068TIP3    H157619   5.510   1.585   0.373 -0.2959 -1.4589 -0.3227
12068TIP3    H257620   5.444   1.695   0.453 -0.4395  0.9636 -3.5471
12069TIP3   OH257621   1.216   5.052  11.252  0.3913 -0.1083 -0.4580
12069TIP3    H157622   1.196   5.108  11.177 -0.9737 -1.3596 -1.0739
12069TIP3    H257623   1.263   4.978  11.215  0.3055 -0.4006  0.0112
12070TIP3   OH257624   3.194   4.766  16.521 -0.2489  0.4441 -0.4726
12070TIP3    H157625   3.202   4.702  16.591 -0.2520 -0.4880 -1.3014
12070TIP3    H257626   3.100   4.769  16.501 -0.3035  1.0310 -0.1474
12071TIP3   OH257627   1.947   3.406   1.243 -0.1483  0.6518  0.1747
12071TIP3    H157628   1.922   3.427   1.153  0.5281  1.3694  0.1486
12071TIP3    H257629   1.888   3.458   1.298 -1.4998 -0.8275  0.1920
12072TIP3   OH257630   6.128   6.491   0.317 -0.6155  0.0494 -0.1815
12072TIP3    H157631   6.161   6.475   0.229  0.3237  1.9221 -0.2114
12072TIP3    H257632   6.198   6.457   0.375  1.8846  4.3587 -0.2426
12073TIP3   OH257633   4.843   6.228   1.096  0.0569  0.0185 -0.4166
12073TIP3    H157634   4.887   6.306   1.127  0.8160 -0.1896 -0.9467
12073TIP3    H257635   4.887   6.156   1.141  0.9302 -0.2603 -1.6713
12074TIP3   OH257636   6.139   3.319   3.981 -0.5369  0.1351  0.1371
12074TIP3    H157637   6.204   3.365   3.927 -0.3204 -0.7482 -0.3706
12074TIP3    H257638   6.055   3.354   3.952 -0.3881  0.0548 -0.3879
12075TIP3   OH257639   6.625   5.483  12.723  0.2475 -0.0582 -0.1423
12075TIP3    H157640   6.694   5.545  12.747 -1.0846  1.1225  0.8029
12075TIP3    H257641   6.609   5.500  12.630 -0.5279  1.5487  0.2334
12076TIP3   OH257642   4.231   3.288   5.601 -0.2776  0.6005 -0.8952
12076TIP3    H157643   4.238   3.341   5.680 -1.2102 -0.6986  0.1093
12076TIP3    H257644   4.147   3.312   5.563 -0.1463  0.7202 -1.1109
12077TIP3   OH257645   0.303   2.552  13.913  0.7530  0.0863 -0.4972
12077TIP3    H157646   0.229   2.592  13.957  2.0146  1.5291  0.4215
12077TIP3    H257647   0.305   2.462  13.947  0.1811  0.4122  0.4405
12078TIP3   OH257648   5.850   6.757  12.874  0.3954  0.0277 -0.0247
12078TIP3    H157649   5.778   6.726  12.819  0.8230 -1.3905  0.1555
12078TIP3    H257650   5.926   6.760  12.815  0.4384  0.3846  0.0479
12079TIP3   OH257651   2.611   0.901   0.149 -0.1780 -0.0814  0.1329
12079TIP3    H157652   2.586   0.889   0.241 -0.4601 -0.3260  0.0276
12079TIP3    H257653   2.662   0.823   0.128  0.4108  0.2667  0.2551
12080TIP3   OH257654   2.783   2.460   0.720 -0.1879  0.0309 -0.4538
12080TIP3    H157655   2.761   2.374   0.685  2.2168 -0.1598 -1.6984
12080TIP3    H257656   2.858   2.488   0.669  1.1230  1.4430  2.0696
12081TIP3   OH257657   2.213   4.807   4.216 -0.0317  0.0871 -0.7059
12081TIP3    H157658   2.197   4.853   4.298  0.4054 -0.3627 -0.3614
12081TIP3    H257659   2.282   4.857   4.172  0.3829 -0.1768 -0.3709
12082TIP3   OH257660   1.262   3.026   1.445 -0.6308 -0.5001  0.1458
12082TIP3    H157661   1.357   3.019   1.433 -0.2617  1.3895  1.3841
12082TIP3    H257662   1.245   2.977   1.525 -0.3332  0.6896  0.9828
12083TIP3   OH257663   3.314   1.348  17.051  0.0364 -0.3973  0.5077
12083TIP3    H157664   3.347   1.385  17.133  1.3493 -1.2580  0.3904
12083TIP3    H257665   3.231   1.306  17.075  0.3129 -0.4779  1.3551
12084TIP3   OH257666   3.943   1.881   3.806 -0.5080  0.1094 -0.3132
12084TIP3    H157667   3.921   1.942   3.877  2.2588 -0.5932  1.2671
12084TIP3    H257668   3.960   1.937   3.731 -1.5633  1.0002  0.0770
12085TIP3   OH257669   4.909   2.269   5.749  0.3879 -0.0072 -0.0653
12085TIP3    H157670   4.898   2.362   5.769  1.5650  0.4757 -1.4574
12085TIP3    H257671   4.852   2.224   5.811  0.3720  1.5952  1.1488
12086TIP3   OH257672   6.771   0.826  16.102 -0.3136  0.6711 -0.4344
12086TIP3    H157673   6.761   0.822  16.197 -2.2760  0.3681 -0.6165
12086TIP3    H257674   6.786   0.919  16.083 -0.6392  0.8392  0.1153
12087TIP3   OH257675   2.989   2.759  13.352 -0.0891  0.1068  0.2349
12087TIP3    H157676   2.914   2.816  13.330  0.2006 -0.6607 -3.4350
12087TIP3    H257677   2.949   2.676  13.378 -0.5821 -0.1794 -1.3342
12088TIP3   OH257678   0.967   0.894   1.961  0.0165 -0.2058 -0.6464
12088TIP3    H157679   1.036   0.850   2.009  2.4117  0.9788 -2.7631
12088TIP3    H257680   0.956   0.979   2.005  1.8451  0.6722 -1.7777
12089TIP3   OH257681   4.889   1.943  14.184 -0.7567  0.3265  0.3486
12089TIP3    H157682   4.909   1.859  14.142 -2.5328 -0.4009  0.8636
12089TIP3    H257683   4.801   1.965  14.153 -0.6245  1.6094  0.8357
12090TIP3   OH257684   3.984   1.851   1.361 -0.0852 -0.5129 -0.0278
12090TIP3    H157685   3.946   1.823   1.278  2.9085 -3.2923 -0.6597
12090TIP3    H257686   4.068   1.891   1.337  0.4206 -0.5300  1.5826
12091TIP3   OH257687   5.551   4.654   0.422  0.6494  0.4921  0.3768
12091TIP3    H157688   5.469   4.640   0.374  0.4958 -0.2161  0.8326
12091TIP3    H257689   5.523   4.674   0.511  0.9706  0.0698  0.5758
12092TIP3   OH257690   0.583   4.314  11.399  0.8369  0.0038 -0.2839
12092TIP3    H157691   0.563   4.364  11.478  1.4625  0.6925 -0.5512
12092TIP3    H257692   0.511   4.252  11.392 -0.7660  1.8093 -0.7418
12093TIP3   OH257693   1.906   4.020   3.429  0.3676 -0.7652  0.8366
12093TIP3    H157694   1.818   3.987   3.447  0.1939 -0.1891  1.0778
12093TIP3    H257695   1.922   4.084   3.498  0.3055  0.3619 -0.1443
12094TIP3   OH257696   1.058   0.801  15.040  0.2980  0.2598  0.2535
12094TIP3    H157697   1.064   0.780  15.133 -1.7580 -0.7941  0.1989
12094TIP3    H257698   1.007   0.882  15.036 -2.2556 -1.2575 -0.0000
12095TIP3   OH257699   5.450   3.730  14.996 -0.0801  0.0519 -0.5184
12095TIP3    H157700   5.441   3.773  15.080 -2.0403  1.2323 -1.2624
12095TIP3    H257701   5.397   3.651  15.003 -0.0600  0.0332 -0.5721
12096TIP3   OH257702   4.316   2.651   4.234 -0.4773 -0.1961 -0.1920
12096TIP3    H157703   4.336   2.561   4.208 -0.5254 -0.0035 -0.9260
12096TIP3    H257704   4.264   2.642   4.314  0.8228 -0.7589  0.6077
12097TIP3   OH257705   5.619   4.104  12.982 -0.3644 -0.3256  0.0049
12097TIP3    H157706   5.651   4.178  13.034  0.5566 -0.1290 -0.8188
12097TIP3    H257707   5.678   4.032  13.004  0.9581  0.1374 -1.7974
12098TIP3   OH257708   2.096   4.173   0.009  0.1964  0.2217 -0.3263
12098TIP3    H157709   2.146   4.160  -0.071 -0.4639 -0.8598 -0.5903
12098TIP3    H257710   2.101   4.088   0.054 -0.9719  0.2468 -0.1195
12099TIP3   OH257711   3.873   1.129   1.413  0.3977 -0.5301  0.2245
12099TIP3    H157712   3.814   1.135   1.338 -0.1964  1.1763  0.7753
12099TIP3    H257713   3.817   1.098   1.485  0.1326  1.0674  0.7413
12100TIP3   OH257714   6.093   6.591  11.245 -0.1555  0.1500 -0.2491
12100TIP3    H157715   6.077   6.497  11.252 -0.3802  0.2837  1.1437
12100TIP3    H257716   6.028   6.632  11.302 -1.3768  1.2961 -2.3355
12101TIP3   OH257717   3.361   3.624  15.015 -0.9332  0.1833  0.4786
12101TIP3    H157718   3.305   3.696  15.044 -1.3180  0.5128 -1.0048
12101TIP3    H257719   3.448   3.663  15.006 -1.1426  0.4736 -0.3298
12102TIP3   OH257720   0.544   4.271  17.034 -0.0065  0.2087 -0.5580
12102TIP3    H157721   0.586   4.312  16.958 -0.0471 -0.3805 -0.9031
12102TIP3    H257722   0.482   4.337  17.065  0.5132  0.7320 -0.5985
12103TIP3   OH257723   1.143   3.691  10.527 -0.5825  0.0709  0.0074
12103TIP3    H157724   1.068   3.740  10.560 -0.6810  0.6366 -1.0096
12103TIP3    H257725   1.185   3.751  10.465  1.4789  0.2707  1.4990
12104TIP3   OH257726   6.033   1.725  16.513 -0.4052 -0.3846  0.0406
12104TIP3    H157727   5.966   1.739  16.445 -0.2168 -0.1890 -0.1086
12104TIP3    H257728   6.057   1.814  16.540  1.5896 -0.3190 -1.6690
12105TIP3   OH257729   0.297   4.595  12.473  0.1426  0.6917 -0.2112
12105TIP3    H157730   0.325   4.528  12.535 -0.6953  0.4811 -0.0544
12105TIP3    H257731   0.204   4.579  12.460  0.2441  0.9163 -1.3076
12106TIP3   OH257732   0.657   2.282  16.331 -0.4291 -0.2842 -0.2184
12106TIP3    H157733   0.749   2.297  16.348 -0.4910  0.5603 -0.5776
12106TIP3    H257734   0.619   2.263  16.417 -0.0013 -0.2419 -0.0193
12107TIP3   OH257735   0.129   1.808   5.746  0.4903  0.2159  0.0029
12107TIP3    H157736   0.085   1.813   5.831  1.8095 -2.1060  0.9106
12107TIP3    H257737   0.098   1.726   5.708  1.0469  0.5099 -1.1150
12108TIP3   OH257738   1.186   0.173   5.431 -0.2636  0.3052 -0.5380
12108TIP3    H157739   1.225   0.154   5.345  1.0726 -1.3205  0.3701
12108TIP3    H257740   1.204   0.267   5.444 -0.7022  0.6407 -2.1136
12109TIP3   OH257741   2.174   6.066   3.790 -0.9143 -0.1808 -0.0544
12109TIP3    H157742   2.149   5.985   3.834 -1.0026 -0.5373 -0.7539
12109TIP3    H257743   2.270   6.065   3.791 -0.9144 -0.3549 -0.1684
12110TIP3   OH257744   5.696   0.440   0.695  0.3214  0.2606 -0.2802
12110TIP3    H157745   5.704   0.393   0.612 -0.4371  1.4139 -1.0268
12110TIP3    H257746   5.764   0.507   0.691 -1.1057  1.7315 -0.9676
12111TIP3   OH257747   5.507   0.989  14.095 -0.3464  0.1237 -0.0067
12111TIP3    H157748   5.484   1.063  14.151 -2.0265 -0.2236 -0.1866
12111TIP3    H257749   5.484   0.912  14.147  1.8076 -0.3463  0.3608
12112TIP3   OH257750   5.202   5.597   5.547  0.8123 -0.1282  0.1764
12112TIP3    H157751   5.269   5.541   5.508 -0.0488 -0.5309 -0.7724
12112TIP3    H257752   5.206   5.678   5.496  1.2533  0.2416  0.7819
12113TIP3   OH257753   0.248   4.870   5.535 -0.0563  0.4331  0.2753
12113TIP3    H157754   0.175   4.880   5.596  0.2739 -1.9071  1.1680
12113TIP3    H257755   0.216   4.908   5.453 -1.4579  1.3588  1.1966
12114TIP3   OH257756   0.413   6.689   2.546  0.7616 -0.1315  0.1341
12114TIP3    H157757   0.476   6.732   2.603  0.7988 -2.3915  1.9414
12114TIP3    H257758   0.467   6.644   2.480  0.7522  1.7955 -1.2598
12115TIP3   OH257759   2.055   4.863   1.829  0.4392  0.1295  0.0485
12115TIP3    H157760   1.965   4.840   1.850  1.0036 -0.8379  1.5815
12115TIP3    H257761   2.086   4.911   1.906  0.4991  2.7620 -1.4868
12116TIP3   OH257762   1.546   0.999   2.861  0.1049  0.3126  0.5453
12116TIP3    H157763   1.572   1.019   2.951  0.5266  2.1412  0.0618
12116TIP3    H257764   1.566   0.906   2.850 -0.1559 -0.0012  2.3879
12117TIP3   OH257765   6.705   3.555   1.934 -0.1217 -0.3043  0.1416
12117TIP3    H157766   6.788   3.521   1.900 -0.0892  0.3945 -0.4901
12117TIP3    H257767   6.640   3.529   1.869  0.0201  1.5104 -0.7897
12118TIP3   OH257768   1.896   4.368   2.560 -0.1146 -0.3307 -0.1906
12118TIP3    H157769   1.984   4.399   2.582 -0.6185  0.5280  0.7041
12118TIP3    H257770   1.871   4.311   2.633  0.5798 -2.5004 -1.5535
12119TIP3   OH257771   2.177   4.854   3.668  0.2436  0.1718  0.2996
12119TIP3    H157772   2.123   4.892   3.737 -0.7105 -1.2553  0.3568
12119TIP3    H257773   2.119   4.794   3.621  1.2909 -0.0341 -0.7810
12120TIP3   OH257774   4.591   1.524  14.846  0.1360  0.0196  0.7089
12120TIP3    H157775   4.644   1.599  14.821  0.2147 -0.0823  0.5717
12120TIP3    H257776   4.634   1.489  14.924  1.1043 -0.9197 -0.2029
12121TIP3   OH257777   2.130   2.878  12.152 -0.5321 -0.2192 -0.1210
12121TIP3    H157778   2.209   2.832  12.123 -0.3075  1.0056 -1.6032
12121TIP3    H257779   2.058   2.827  12.116 -0.3096  0.1165 -1.0815
12122TIP3   OH257780   4.924   1.950  16.643 -0.3878  0.2905 -0.2701
12122TIP3    H157781   4.968   1.932  16.726  1.4175  0.3361 -1.1784
12122TIP3    H257782   4.918   1.864  16.600 -1.4661  0.2405 -0.0395
12123TIP3   OH257783   4.258   0.066   6.467 -0.1779 -0.2602  0.0105
12123TIP3    H157784   4.299   0.138   6.514 -0.1951  0.0004 -0.3729
12123TIP3    H257785   4.282  -0.012   6.517  2.4086 -0.3677 -1.2418
12124TIP3   OH257786   6.091   3.788   2.716  0.2817  0.8021  0.2985
12124TIP3    H157787   6.017   3.833   2.676 -0.4782 -0.6675  0.0062
12124TIP3    H257788   6.168   3.837   2.686 -0.4497  1.2884 -0.8212
12125TIP3   OH257789   4.059   4.814   4.132 -0.4715 -0.0293 -0.0151
12125TIP3    H157790   3.970   4.788   4.106 -0.3307 -0.2871 -0.2407
12125TIP3    H257791   4.061   4.800   4.227 -0.9163  0.7083  0.1115
12126TIP3   OH257792   5.835   1.433   3.936 -0.0621 -0.3159 -0.5342
12126TIP3    H157793   5.827   1.342   3.965 -2.2218 -0.8024 -2.3584
12126TIP3    H257794   5.755   1.475   3.968  1.0077  1.0445  0.4694
12127TIP3   OH257795   4.544   3.843   4.398 -0.2702  0.3415 -0.2268
12127TIP3    H157796   4.526   3.936   4.386 -0.2155  0.2784 -0.8096
12127TIP3    H257797   4.569   3.836   4.490  0.3651  1.0075 -0.3334
12128TIP3   OH257798   5.610   3.049   3.770 -0.0018 -0.1536 -0.3965
12128TIP3    H157799   5.536   3.019   3.717  0.2712  0.1018 -0.9272
12128TIP3    H257800   5.661   2.970   3.788 -0.6694 -0.4224  0.4153
12129TIP3   OH257801   0.686   2.690   6.700 -0.1705 -0.4749  0.1752
12129TIP3    H157802   0.691   2.594   6.698 -2.7909 -0.6656 -1.1258
12129TIP3    H257803   0.767   2.719   6.658  1.0972 -2.0528  1.3896
12130TIP3   OH257804   4.809   6.147  13.132  0.2727 -0.2579  0.5097
12130TIP3    H157805   4.852   6.062  13.121  0.1752 -0.3967  1.1479
12130TIP3    H257806   4.749   6.134  13.206  2.1179  1.0503  2.3607
12131TIP3   OH257807   2.261   1.999  15.257  0.1461  0.3694  0.2155
12131TIP3    H157808   2.246   2.056  15.333  0.8621  2.3990 -1.0609
12131TIP3    H257809   2.356   1.990  15.252  0.1035  0.1421 -0.3453
12132TIP3   OH257810   1.993   1.772   6.088 -0.0767  0.0121 -0.1057
12132TIP3    H157811   1.963   1.832   6.156 -0.7290  1.6928 -1.7770
12132TIP3    H257812   2.017   1.692   6.135 -2.7104  0.2388  1.8311
12133TIP3   OH257813   1.626   5.683  10.541 -0.2310  0.0514  0.1736
12133TIP3    H157814   1.665   5.606  10.581 -1.2151 -0.4347  0.2292
12133TIP3    H257815   1.698   5.725  10.495  1.1874  1.1852  3.1806
12134TIP3   OH257816   6.362   4.414  15.972  0.3661  0.2435 -0.2358
12134TIP3    H157817   6.372   4.372  15.887  1.5033  1.0729 -0.5348
12134TIP3    H257818   6.273   4.451  15.970  0.7151  1.0952 -1.4615
12135TIP3   OH257819   6.339   5.820   3.968 -0.4761 -0.1972  0.1059
12135TIP3    H157820   6.401   5.848   4.036 -1.6866 -2.2536  2.1702
12135TIP3    H257821   6.338   5.893   3.906  1.3514  1.4131  1.8162
12136TIP3   OH257822   4.361   2.793   4.647 -0.1858  0.4516 -0.4419
12136TIP3    H157823   4.457   2.799   4.655 -0.1626  2.9832 -1.4875
12136TIP3    H257824   4.339   2.707   4.682  2.2574  0.6182  1.8711
12137TIP3   OH257825   1.239   6.185  15.439  0.2059 -0.6063 -0.2386
12137TIP3    H157826   1.301   6.146  15.502 -0.5455  0.4137  1.2029
12137TIP3    H257827   1.208   6.264  15.483 -3.5371 -2.0115 -0.0703
12138TIP3   OH257828   3.886   4.794  12.225 -0.3126 -0.6605  0.3960
12138TIP3    H157829   3.914   4.855  12.294  0.4161 -0.2349 -0.2682
12138TIP3    H257830   3.846   4.850  12.159 -0.2658 -0.9793  0.0969
12139TIP3   OH257831   2.707   5.177   5.863  0.7342  0.3432  0.1178
12139TIP3    H157832   2.729   5.085   5.851  2.6357  0.9163 -1.2604
12139TIP3    H257833   2.627   5.190   5.811  0.2887 -0.5606  0.5594
12140TIP3   OH257834   4.585   3.878   0.763  0.2523 -0.2537  0.1654
12140TIP3    H157835   4.536   3.957   0.741 -0.6133  0.1534  3.0301
12140TIP3    H257836   4.615   3.894   0.853  1.3693 -2.5774  0.2645
12141TIP3   OH257837   4.170   6.155  11.908  0.3131  0.7442  0.4678
12141TIP3    H157838   4.179   6.242  11.948 -0.7958  1.0742  0.0354
12141TIP3    H257839   4.088   6.121  11.941  0.3693  0.1718  0.0395
12142TIP3   OH257840   1.476   2.977   6.052 -0.0599 -0.2372 -0.4086
12142TIP3    H157841   1.570   2.961   6.044  0.2205  0.6976  0.7349
12142TIP3    H257842   1.457   3.041   5.984  0.6403  1.3720  0.8342
12143TIP3   OH257843   6.278   0.669  14.947 -0.3243  0.3255 -0.5981
12143TIP3    H157844   6.196   0.672  14.897 -0.8083  2.7308  0.2068
12143TIP3    H257845   6.309   0.579  14.937 -3.0469 -0.6672 -0.9662
12144TIP3   OH257846   3.914   6.011  13.238  0.0594 -0.0557  0.0645
12144TIP3    H157847   3.941   6.099  13.266 -1.4409 -0.0842  1.8457
12144TIP3    H257848   3.994   5.959  13.242  0.5840  0.7835  0.9827
12145TIP3   OH257849   0.087   4.444   3.658  0.0549 -0.1316  0.4150
12145TIP3    H157850   0.108   4.494   3.737  0.7738  1.2632 -0.6129
12145TIP3    H257851   0.159   4.462   3.598 -0.3404 -1.3813 -0.4730
12146TIP3   OH257852   5.536   5.658   3.737  0.3243 -0.3371 -0.4319
12146TIP3    H157853   5.488   5.685   3.815  1.0352 -0.8584  0.2097
12146TIP3    H257854   5.591   5.733   3.716 -0.5867  0.1724 -1.0294
12147TIP3   OH257855   4.394   5.566   5.656 -0.4587  0.4230  0.1759
12147TIP3    H157856   4.430   5.547   5.570 -2.0358 -0.9805 -0.2378
12147TIP3    H257857   4.323   5.629   5.639  0.7101  1.9604  0.7765
12148TIP3   OH257858   1.840   4.661  11.506  0.3298 -0.3266  0.1579
12148TIP3    H157859   1.781   4.601  11.461  1.1803 -1.6340  0.6970
12148TIP3    H257860   1.899   4.693  11.438  1.7882 -2.5096  0.2999
12149TIP3   OH257861   2.771   6.124   1.191  0.6235 -0.0885 -0.7863
12149TIP3    H157862   2.850   6.116   1.138  0.4540 -0.9427 -0.9247
12149TIP3    H257863   2.803   6.129   1.281  0.8619  0.1544 -0.8863
12150TIP3   OH257864   5.279   5.001  11.877 -0.0058  0.2288  0.4060
12150TIP3    H157865   5.277   5.073  11.814 -0.2925  2.0918  2.3948
12150TIP3    H257866   5.343   4.940  11.842  0.6261  1.6944 -1.1345
12151TIP3   OH257867   6.220   2.323  12.835  0.1357 -0.1080 -0.1066
12151TIP3    H157868   6.236   2.255  12.900 -0.8173 -1.8764 -1.6111
12151TIP3    H257869   6.135   2.360  12.859 -0.3048 -0.8894 -0.4472
12152TIP3   OH257870   0.123   0.065   5.160 -0.6850 -0.8949  0.1065
12152TIP3    H157871   0.040   0.043   5.203 -0.3376 -0.5855  0.9581
12152TIP3    H257872   0.174  -0.015   5.165  0.1972 -0.2648  2.3051
12153TIP3   OH257873   5.821   5.340  17.017 -0.1972 -0.1412 -0.7175
12153TIP3    H157874   5.750   5.309  16.960 -1.7400 -1.9566  2.0048
12153TIP3    H257875   5.792   5.427  17.046 -1.7501 -1.1645  0.9420
12154TIP3   OH257876   0.670   5.203  16.249  0.8145  0.4349  0.1645
12154TIP3    H157877   0.664   5.285  16.200 -0.2440  1.0879  1.3479
12154TIP3    H257878   0.763   5.180  16.246  1.2089  1.9276  0.2272
12155TIP3   OH257879   2.982   4.959  15.175 -0.5215  0.7431 -0.3081
12155TIP3    H157880   2.918   5.016  15.217 -0.6307  1.6075 -1.6080
12155TIP3    H257881   3.067   4.992  15.205 -0.5809  1.6532 -1.0893
12156TIP3   OH257882   4.051   3.982  14.849 -0.5900 -0.5603  0.2968
12156TIP3    H157883   3.958   3.966  14.859 -0.2681 -2.1417  0.9934
12156TIP3    H257884   4.067   4.061  14.901 -0.9919 -2.1871  3.0928
12157TIP3   OH257885   6.473   5.596  14.201 -0.0711 -0.5555  0.5132
12157TIP3    H157886   6.487   5.582  14.107 -0.2993 -0.2220  0.4295
12157TIP3    H257887   6.558   5.626  14.234 -0.3230  0.5633  0.1755
12158TIP3   OH257888   2.724   0.730  14.527 -0.0433 -0.4590 -0.1589
12158TIP3    H157889   2.732   0.692  14.614  1.3538 -1.6855 -0.7863
12158TIP3    H257890   2.663   0.673  14.481  2.7374 -2.6565 -1.3861
12159TIP3   OH257891   3.841   6.767  13.763  0.6506 -0.3226  0.0333
12159TIP3    H157892   3.888   6.845  13.734  1.6628 -1.8741 -3.0701
12159TIP3    H257893   3.907   6.714  13.808 -0.3136  0.9639  3.2271
12160TIP3   OH257894   4.671   0.881  14.969  0.5504  0.4989 -0.9712
12160TIP3    H157895   4.622   0.804  14.998 -0.5863  0.2156 -3.4229
12160TIP3    H257896   4.644   0.950  15.031  0.0044 -0.5646  0.0211
12161TIP3   OH257897   5.057   1.197  15.152 -0.2936 -0.5745  0.1196
12161TIP3    H157898   5.058   1.170  15.060  0.6779 -3.6193  0.8841
12161TIP3    H257899   4.988   1.144  15.192  1.5090 -1.8818  1.7023
12162TIP3   OH257900   1.881   3.282   4.398  0.1092  0.0334  0.1946
12162TIP3    H157901   1.847   3.326   4.319 -0.3363  1.3543  1.0905
12162TIP3    H257902   1.974   3.268   4.379  0.2933  1.4913 -0.0783
12163TIP3   OH257903   2.825   0.204   5.704 -0.1694 -0.1927 -0.1929
12163TIP3    H157904   2.737   0.166   5.704 -0.5326  0.5974  0.7989
12163TIP3    H257905   2.828   0.258   5.782  0.4297  1.5579 -1.3576
12164TIP3   OH257906   1.854   5.031   4.940  0.2007 -0.0960  0.3520
12164TIP3    H157907   1.839   5.023   5.034  0.9973 -0.1189  0.4817
12164TIP3    H257908   1.818   5.117   4.917  0.9360  0.3652  0.8765
12165TIP3   OH257909   5.373   2.664   6.020  0.0914 -0.2505 -0.1913
12165TIP3    H157910   5.350   2.750   6.056 -1.8456 -0.6696 -0.3299
12165TIP3    H257911   5.289   2.618   6.011  1.0893 -2.2728  0.1513
12166TIP3   OH257912   5.933   1.935  13.077 -0.2008  0.2058 -0.0551
12166TIP3    H157913   5.861   1.901  13.025 -0.6186  1.3807 -0.2826
12166TIP3    H257914   6.011   1.896  13.038 -0.5228  0.8741 -1.4406
12167TIP3   OH257915   2.734   1.144  13.478  0.3700 -0.3698  0.3455
12167TIP3    H157916   2.790   1.211  13.439  0.4193 -0.7720 -0.2852
12167TIP3    H257917   2.795   1.075  13.506  0.2259 -0.6270  0.0257
12168TIP3   OH257918   1.193   1.676  11.212 -0.3305 -0.3402  0.0033
12168TIP3    H157919   1.280   1.707  11.187 -0.2485 -0.8075 -0.3109
12168TIP3    H257920   1.200   1.581  11.211 -0.5106 -0.3784  1.2067
12169TIP3   OH257921   6.647   5.570   4.638  0.0000 -0.2489 -0.0826
12169TIP3    H157922   6.738   5.591   4.659 -0.3158  0.5668  0.5036
12169TIP3    H257923   6.601   5.654   4.643 -0.9810 -0.8148  0.6855
12170TIP3   OH257924   1.372   1.169  16.130  0.6059 -0.4262  0.2020
12170TIP3    H157925   1.391   1.175  16.224  1.6628  1.6613 -0.0812
12170TIP3    H257926   1.454   1.196  16.088 -0.5800  1.0433 -1.2544
12171TIP3   OH257927   2.306   4.925  16.519 -0.5981 -0.3466  0.2629
12171TIP3    H157928   2.334   4.962  16.436 -2.1581  1.7293  0.6049
12171TIP3    H257929   2.348   4.839  16.522  3.1413  1.2730 -0.6116
12172TIP3   OH257930   5.668   4.018   3.186  0.5812 -0.2743  0.7239
12172TIP3    H157931   5.599   4.083   3.176 -1.3634 -2.4320 -1.1759
12172TIP3    H257932   5.730   4.037   3.116  0.7690  0.3606  1.0609
12173TIP3   OH257933   3.832   2.559  13.371 -0.5600 -0.0358 -0.2232
12173TIP3    H157934   3.831   2.615  13.448 -1.1397  0.7537 -0.7841
12173TIP3    H257935   3.843   2.619  13.298 -0.5928 -0.7154 -0.7983
12174TIP3   OH257936   4.646   1.980  12.626 -0.5745 -0.1202 -0.2913
12174TIP3    H157937   4.633   1.931  12.707 -2.2525  0.1300 -0.3824
12174TIP3    H257938   4.611   2.067  12.645  0.0668  0.2884 -0.9382
12175TIP3   OH257939   2.593   4.030   3.977 -0.0387  0.1140  0.2661
12175TIP3    H157940   2.516   3.977   3.953 -0.2049  0.1452  0.7102
12175TIP3    H257941   2.585   4.109   3.924  0.1459 -0.2546 -0.3149
12176TIP3   OH257942   3.321   4.786   6.577 -0.0918 -0.1191  0.1842
12176TIP3    H157943   3.392   4.723   6.565 -2.1705 -2.2985 -2.0874
12176TIP3    H257944   3.342   4.858   6.518  0.7768 -0.1814  0.4060
12177TIP3   OH257945   4.186   3.417  12.314  0.2787  0.4188  0.0873
12177TIP3    H157946   4.134   3.479  12.366 -0.2939  1.0452 -1.1799
12177TIP3    H257947   4.172   3.333  12.357 -0.2837  0.8937  0.8731
12178TIP3   OH257948   6.506   5.691   0.189  0.1439 -0.3284  0.1043
12178TIP3    H157949   6.587   5.740   0.207  2.0000 -1.5426 -3.8752
12178TIP3    H257950   6.457   5.748   0.130 -0.5735 -0.7514  0.2903
12179TIP3   OH257951   3.967   5.318  16.903  0.1523  0.1803 -0.4431
12179TIP3    H157952   4.022   5.326  16.981  0.2519 -1.6152 -0.3004
12179TIP3    H257953   4.007   5.249  16.851 -1.2714 -0.3250 -0.9317
12180TIP3   OH257954   5.464   4.802   2.583  0.0939 -0.1747 -0.0740
12180TIP3    H157955   5.369   4.788   2.577 -0.0152  0.0356  0.8982
12180TIP3    H257956   5.481   4.875   2.524 -0.5913  0.6986  0.7715
12181TIP3   OH257957   2.017   2.841   4.535 -0.2482  0.5681 -0.1210
12181TIP3    H157958   1.957   2.915   4.545 -0.4440  0.3478  0.3838
12181TIP3    H257959   1.969   2.779   4.481  0.7437  1.6880 -2.4425
12182TIP3   OH257960   4.321   3.923  14.432  0.5046  0.1824 -0.3235
12182TIP3    H157961   4.262   3.925  14.507  0.3419  1.6325 -0.4570
12182TIP3    H257962   4.350   4.014  14.422 -0.8534  0.4207 -3.1006
12183TIP3   OH257963   6.601   2.825   4.431 -0.6439 -0.0818  0.6361
12183TIP3    H157964   6.539   2.879   4.479 -0.0135  1.2574 -0.0162
12183TIP3    H257965   6.552   2.793   4.355 -0.9507 -0.2232  0.8948
12184TIP3   OH257966   6.565   1.311   5.040  0.3724  0.4026 -0.3754
12184TIP3    H157967   6.566   1.218   5.059  1.2651  0.2825 -0.9665
12184TIP3    H257968   6.477   1.340   5.065  0.5040 -0.3333  1.0046
12185TIP3   OH257969   6.382   0.851   2.291  0.2004  0.1036 -0.0071
12185TIP3    H157970   6.443   0.777   2.293  1.1957  0.9050 -0.0396
12185TIP3    H257971   6.414   0.911   2.358  0.3736  1.2539 -1.0953
12186TIP3   OH257972   2.758   0.021  16.555  0.4090 -0.0596  0.2437
12186TIP3    H157973   2.771   0.092  16.617 -0.6062  1.2053 -0.9319
12186TIP3    H257974   2.799  -0.055  16.596  1.0453  1.0707  1.7738
12187TIP3   OH257975   2.861   1.133   3.630 -0.3807 -0.1999  0.2237
12187TIP3    H157976   2.915   1.056   3.613  0.8276  0.5496  0.5183
12187TIP3    H257977   2.795   1.133   3.560  0.8304 -0.4008 -0.9499
12188TIP3   OH257978   1.767   1.444   4.727  0.4630 -0.4033 -0.0420
12188TIP3    H157979   1.673   1.426   4.718  0.6523 -2.5992  1.4137
12188TIP3    H257980   1.807   1.400   4.651  0.3091  1.0884 -1.0238
12189TIP3   OH257981   1.511   4.056  15.134  0.0389 -0.2461  0.8645
12189TIP3    H157982   1.448   4.033  15.202 -0.5717 -0.1080  0.3545
12189TIP3    H257983   1.596   4.027  15.169 -0.4021 -1.1212  1.2341
12190TIP3   OH257984   2.086   0.640   2.062 -0.3065 -0.1033  0.4404
12190TIP3    H157985   2.148   0.578   2.025 -0.1476 -0.1154  0.7247
12190TIP3    H257986   2.016   0.586   2.098 -0.2585 -0.1105  0.5236
12191TIP3   OH257987   1.058   4.470  12.886 -0.1452 -0.0063 -0.3150
12191TIP3    H157988   1.079   4.563  12.899 -0.4668  0.2341 -1.4134
12191TIP3    H257989   0.963   4.465  12.894 -0.2189 -0.0771 -1.1874
12192TIP3   OH257990   5.543   1.183   1.790  0.2205 -0.0198  0.2527
12192TIP3    H157991   5.536   1.273   1.820 -0.4307 -0.0311  0.1282
12192TIP3    H257992   5.623   1.150   1.833  0.5625  0.6619  0.1521
12193TIP3   OH257993   2.915   1.076   3.173 -0.1817 -0.4336 -0.0580
12193TIP3    H157994   2.995   1.023   3.170 -0.3980 -0.7307 -2.5179
12193TIP3    H257995   2.848   1.020   3.132 -1.6343 -0.0838  1.7018
12194TIP3   OH257996   4.994   0.980   5.456  0.5309 -0.5982  0.1828
12194TIP3    H157997   5.020   0.890   5.475 -0.9248 -1.7190 -2.5424
12194TIP3    H257998   5.075   1.022   5.427  1.0561 -1.2844  0.6199
12195TIP3   OH257999   3.464   2.559  15.347 -0.7939  0.2317 -0.2061
12195TIP3    H158000   3.468   2.476  15.394 -1.5717  0.2596 -0.0750
12195TIP3    H258001   3.372   2.566  15.320  0.0285 -0.9855 -3.8907
12196TIP3   OH258002   5.166   4.241   3.611 -0.0023 -0.4599 -0.3350
12196TIP3    H158003   5.072   4.219   3.612 -0.2315  0.4917  1.1147
12196TIP3    H258004   5.198   4.215   3.697  1.1217 -0.9074 -0.8669
12197TIP3   OH258005   2.574   2.049   2.376  0.2096 -0.0353  0.4508
12197TIP3    H158006   2.514   2.043   2.301  1.7993 -0.9256 -0.8135
12197TIP3    H258007   2.601   1.958   2.391  0.1509  0.1696  1.9451
12198TIP3   OH258008   4.402   0.372  16.315  0.6835  1.1638 -0.0891
12198TIP3    H158009   4.403   0.332  16.228 -0.2818  0.9122  0.0023
12198TIP3    H258010   4.494   0.378  16.340  0.8724 -1.1822 -0.0350
12199TIP3   OH258011   6.087   0.319  16.905 -0.0061  0.1232  0.2194
12199TIP3    H158012   6.087   0.230  16.870  0.0038 -1.7607  4.3754
12199TIP3    H258013   5.995   0.345  16.906 -0.5908 -1.6802  2.6902
12200TIP3   OH258014   0.969   2.178  17.267 -0.0159 -0.1254 -0.0702
12200TIP3    H158015   0.940   2.187  17.358 -0.6683 -2.8080  0.0696
12200TIP3    H258016   1.054   2.221  17.265 -0.7326  1.4946  1.3505
12201TIP3   OH258017   4.629   0.098   1.070  0.1816  0.0159 -0.3166
12201TIP3    H158018   4.586   0.018   1.100  0.0063  0.0595 -0.4526
12201TIP3    H258019   4.676   0.130   1.147 -1.8792  1.2282  0.5408
12202TIP3   OH258020   3.187   2.928   2.885  0.1574 -0.2599  0.3924
12202TIP3    H158021   3.109   2.968   2.846  0.4506  0.6554  0.7053
12202TIP3    H258022   3.159   2.840   2.911 -0.5494 -0.2174 -0.1977
12203TIP3   OH258023   4.749   4.050  13.471  0.1473  0.0294  0.1149
12203TIP3    H158024   4.822   4.106  13.497 -0.2450 -0.1524  1.7418
12203TIP3    H258025   4.746   3.982  13.538 -1.0700 -0.3840 -0.3287
12204TIP3   OH258026   5.220   3.854   3.612 -0.2325  0.0581  0.0426
12204TIP3    H158027   5.186   3.903   3.538 -0.4220  2.0523  1.3741
12204TIP3    H258028   5.309   3.887   3.624  0.1800 -1.0172  0.0760
12205TIP3   OH258029   5.393   3.059   0.613  0.0729 -0.0175 -0.1260
12205TIP3    H158030   5.395   3.008   0.532  2.2247 -0.2845  0.0252
12205TIP3    H258031   5.384   3.150   0.584  1.1953 -0.0762 -0.7066
12206TIP3   OH258032   4.967   3.956  16.042  0.2102  0.9234  0.3631
12206TIP3    H158033   5.010   3.871  16.036 -0.3491  0.5762  1.0554
12206TIP3    H258034   4.874   3.937  16.031  0.1191  1.5008  0.1108
12207TIP3   OH258035   3.575   6.271  13.883  0.1843  0.0945  0.2293
12207TIP3    H158036   3.531   6.324  13.816  0.1733 -0.1849  0.0141
12207TIP3    H258037   3.533   6.185  13.877  0.5525 -0.0868  0.2248
12208TIP3   OH258038   0.286   2.489   2.985 -0.1612  0.3543  0.4921
12208TIP3    H158039   0.329   2.570   3.012 -0.7591  1.4411 -1.5573
12208TIP3    H258040   0.281   2.436   3.065  3.2128  0.9225  1.2190
12209TIP3   OH258041   0.997   6.294  10.673  0.0718  0.5246 -0.6851
12209TIP3    H158042   1.024   6.372  10.624  4.9737 -0.5015 -0.1920
12209TIP3    H258043   1.025   6.312  10.763 -2.8775 -0.1424  0.4667
12210TIP3   OH258044   2.020   2.162   5.670 -0.2603  0.2980 -0.2089
12210TIP3    H158045   1.955   2.110   5.622 -0.6975 -1.6374  2.2476
12210TIP3    H258046   2.092   2.100   5.686  1.9227  2.1620 -2.1481
12211TIP3   OH258047   2.390   3.826   3.972 -0.0783  0.0681 -0.0994
12211TIP3    H158048   2.417   3.736   3.991 -0.1502  0.0947  0.1315
12211TIP3    H258049   2.357   3.859   4.056  0.8927  0.6476  0.0652
12212TIP3   OH258050   3.108   6.546  15.431  0.4313  0.7017  0.2266
12212TIP3    H158051   3.117   6.629  15.384 -1.3086  0.1826 -1.0841
12212TIP3    H258052   3.036   6.561  15.492 -1.5395 -0.4977 -1.6762
12213TIP3   OH258053   1.925   4.793  14.754  0.7798 -0.6015  0.2241
12213TIP3    H158054   1.977   4.797  14.673  2.2837 -0.9195  1.1308
12213TIP3    H258055   1.939   4.878  14.796  1.0701 -0.9046  0.7583
12214TIP3   OH258056   2.146   6.367  16.843  0.3611 -0.6069 -0.4334
12214TIP3    H158057   2.219   6.416  16.804  0.8751  0.7576  2.0771
12214TIP3    H258058   2.068   6.410  16.808  0.8111  1.0178  0.4450
12215TIP3   OH258059   2.071   6.660  13.330  0.0081 -0.6270  0.3331
12215TIP3    H158060   1.999   6.720  13.308  0.8987  1.0250  1.7277
12215TIP3    H258061   2.087   6.612  13.249 -0.6841  1.0989 -0.8859
12216TIP3   OH258062   2.053   6.402   1.658 -0.3129  0.3651 -0.3796
12216TIP3    H158063   2.065   6.472   1.594  0.2252 -0.5060 -1.2601
12216TIP3    H258064   2.109   6.426   1.732 -2.0850  2.1579  0.4724
12217TIP3   OH258065   0.249   3.838  15.941 -0.0506  0.4571 -0.0656
12217TIP3    H158066   0.214   3.812  16.026  0.7905 -0.5174 -0.0007
12217TIP3    H258067   0.296   3.761  15.909 -2.3232 -0.0602 -2.5247
12218TIP3   OH258068   1.575   4.366   5.732  0.6258  0.3785  0.3917
12218TIP3    H158069   1.508   4.403   5.674 -1.1797 -0.0164  2.1052
12218TIP3    H258070   1.596   4.281   5.692  2.1358  1.5909 -1.5868
12219TIP3   OH258071   5.426   4.655  15.840 -0.2246 -0.4935 -0.3742
12219TIP3    H158072   5.486   4.728  15.855  0.5767 -1.2785  0.3456
12219TIP3    H258073   5.470   4.600  15.775 -1.3739  0.2506 -1.8586
12220TIP3   OH258074   0.287   1.102   1.224 -0.9186  0.2147 -0.5336
12220TIP3    H158075   0.240   1.053   1.291  0.5977 -0.6125 -0.0336
12220TIP3    H258076   0.254   1.191   1.232  0.1023  0.4415  2.2010
12221TIP3   OH258077   3.243   2.228   4.658 -0.4448 -0.2120  0.4881
12221TIP3    H158078   3.256   2.134   4.647 -0.0762 -0.0414 -0.7921
12221TIP3    H258079   3.269   2.265   4.573 -0.3718  1.0612  1.0468
12222TIP3   OH258080   0.605   0.439   1.487 -0.1083 -0.1540  0.2445
12222TIP3    H158081   0.532   0.420   1.545  0.2558 -1.0148  0.4283
12222TIP3    H258082   0.603   0.369   1.421 -0.6760  0.9472 -0.9591
12223TIP3   OH258083   4.827   0.548  14.141  0.0473 -0.1569  0.4743
12223TIP3    H158084   4.751   0.503  14.178 -1.8653  1.4516 -1.2318
12223TIP3    H258085   4.863   0.485  14.078 -1.5272 -0.0213 -0.6210
12224TIP3   OH258086   6.308   3.110   0.234  0.2999  0.4996  0.3128
12224TIP3    H158087   6.215   3.108   0.259  0.2311  1.1723  0.1434
12224TIP3    H258088   6.307   3.126   0.140  0.5754 -0.9388  0.0495
12225TIP3   OH258089   2.990   3.911  12.680 -0.9356 -0.1065  0.0230
12225TIP3    H158090   2.934   3.882  12.752  0.1544 -3.3108 -0.2746
12225TIP3    H258091   2.938   3.892  12.601 -1.2659  1.3940 -0.1503
12226TIP3   OH258092   4.977   5.197   4.812 -0.2156  0.3416  0.1621
12226TIP3    H158093   4.950   5.143   4.886 -0.8831  1.5343  0.8280
12226TIP3    H258094   4.967   5.141   4.736  0.1386 -0.8024  0.9327
12227TIP3   OH258095   0.478   1.037  13.280 -0.4415 -0.1066  0.1044
12227TIP3    H158096   0.442   1.125  13.291  0.0009  0.1062 -0.1374
12227TIP3    H258097   0.511   1.013  13.366  1.2178  0.7606 -0.2412
12228TIP3   OH258098   0.426   5.981   0.792  0.2214 -0.4127  0.1881
12228TIP3    H158099   0.483   5.914   0.831 -0.7174 -0.6588  1.1796
12228TIP3    H258100   0.354   5.991   0.855  0.9144  2.3912  0.6845
12229TIP3   OH258101   5.074   1.472   1.939 -0.0541 -0.0567  0.1590
12229TIP3    H158102   5.034   1.527   1.872  0.3266 -0.5739 -0.5065
12229TIP3    H258103   5.058   1.382   1.908  3.6207 -0.3369 -1.4140
12230TIP3   OH258104   6.165   5.105   0.602 -0.1979  0.5279  0.5704
12230TIP3    H158105   6.218   5.166   0.552  0.4573 -0.1935  0.3628
12230TIP3    H258106   6.082   5.101   0.555  0.4113 -0.1481 -0.4833
12231TIP3   OH258107   6.665   3.051   3.072  0.3135 -0.3423  0.3906
12231TIP3    H158108   6.652   3.001   2.990 -0.2972 -0.1647  0.3750
12231TIP3    H258109   6.642   2.989   3.141  0.8801 -0.5088  0.4362
12232TIP3   OH258110   1.972   1.579  10.852 -0.3164 -0.7425 -0.1278
12232TIP3    H158111   2.041   1.518  10.880  0.7814  1.2390  1.7835
12232TIP3    H258112   1.941   1.619  10.934 -1.4191  0.7975 -1.2510
12233TIP3   OH258113   0.241   2.058  13.836 -0.3008  0.4830  0.2059
12233TIP3    H158114   0.264   2.008  13.758  0.3991 -1.1310  1.4052
12233TIP3    H258115   0.166   2.011  13.873 -1.8275  2.2732 -0.4102
12234TIP3   OH258116   2.461   2.377  13.715  0.3588 -0.8487  0.1977
12234TIP3    H158117   2.553   2.363  13.691  0.0866 -0.9598 -0.8458
12234TIP3    H258118   2.453   2.472  13.723  0.6808 -0.8691  0.7912
12235TIP3   OH258119   4.950   3.431  14.909 -0.1225  0.1668  0.5148
12235TIP3    H158120   4.958   3.526  14.916 -1.7359  0.3844 -0.2007
12235TIP3    H258121   5.025   3.405  14.855 -0.2730  1.1886 -0.2194
12236TIP3   OH258122   5.313   5.516  15.741 -0.1923  0.2109  0.6542
12236TIP3    H158123   5.297   5.595  15.791  0.0341  0.8265 -0.2164
12236TIP3    H258124   5.399   5.486  15.771  0.5429  1.3076 -0.2607
12237TIP3   OH258125   0.298   6.302   5.365 -0.3277  0.0104 -0.0015
12237TIP3    H158126   0.279   6.335   5.453 -2.0502 -0.1262 -0.2983
12237TIP3    H258127   0.232   6.342   5.309 -0.8652 -1.8905 -0.8035
12238TIP3   OH258128   2.510   5.235  16.513  0.4360  0.6948 -0.2959
12238TIP3    H158129   2.419   5.225  16.485  0.7562  0.6392 -1.3594
12238TIP3    H258130   2.545   5.305  16.457  0.5699  1.9957  1.3248
12239TIP3   OH258131   0.430   3.955   3.139 -0.0137 -0.4495 -0.3228
12239TIP3    H158132   0.393   4.022   3.082 -1.5906 -1.3037 -0.3553
12239TIP3    H258133   0.414   3.987   3.228 -0.1994 -0.4983 -0.3398
12240TIP3   OH258134   5.959   4.133   4.648 -0.1099 -0.7509  0.7754
12240TIP3    H158135   5.877   4.121   4.695 -0.8564 -1.7989 -0.7015
12240TIP3    H258136   5.940   4.202   4.584 -0.0494 -1.4190  0.0186
12241TIP3   OH258137   3.844   6.237   6.526  0.0003  0.3572  0.1039
12241TIP3    H158138   3.928   6.197   6.504  0.7214  0.1512  2.8910
12241TIP3    H258139   3.790   6.164   6.557 -0.8017  0.6838 -0.4805
12242TIP3   OH258140   4.212   2.725   6.590  0.2547  0.0085  0.1550
12242TIP3    H158141   4.217   2.740   6.685  1.0265  0.6892  0.0183
12242TIP3    H258142   4.303   2.719   6.562  0.0298 -1.7149 -0.3339
12243TIP3   OH258143   6.362   2.429   1.512  0.9045  0.1340  0.5732
12243TIP3    H158144   6.357   2.481   1.592  0.9420  1.2197 -0.0999
12243TIP3    H258145   6.332   2.342   1.537  0.5420  0.5608  1.6679
12244TIP3   OH258146   5.908   3.143  12.581 -0.3172 -0.1148  0.7052
12244TIP3    H158147   5.917   3.216  12.519 -1.7863  0.5121  1.1905
12244TIP3    H258148   5.976   3.081  12.555  0.7307  1.2542  0.0383
12245TIP3   OH258149   3.011   3.241   1.804  0.5950 -0.0657  0.3160
12245TIP3    H158150   3.051   3.315   1.758  0.5819 -0.1557  0.1593
12245TIP3    H258151   3.084   3.184   1.828  0.5642 -0.2166  0.0536
12246TIP3   OH258152   0.751   5.436   2.775  0.3500 -0.5497  0.1892
12246TIP3    H158153   0.828   5.462   2.827 -0.4179  0.6409  0.7883
12246TIP3    H258154   0.700   5.517   2.767 -2.0626 -1.7658  1.9369
12247TIP3   OH258155   3.454   4.117  14.934 -0.1973 -0.1350 -0.3912
12247TIP3    H158156   3.530   4.166  14.901  1.3774 -1.9014  0.4545
12247TIP3    H258157   3.475   4.100  15.025 -1.2456 -1.4015 -0.3677
12248TIP3   OH258158   6.095   6.509  13.975  0.1541  0.0767 -0.3670
12248TIP3    H158159   6.053   6.570  13.914 -0.2578  1.2241  0.9892
12248TIP3    H258160   6.134   6.566  14.041  0.7919 -1.1165  0.3013
12249TIP3   OH258161   4.709   1.059  13.407 -0.3975 -0.1959  0.1185
12249TIP3    H158162   4.626   1.014  13.419 -0.1120 -1.0480 -0.9631
12249TIP3    H258163   4.687   1.139  13.359 -0.6771 -0.0474  0.4898
12250TIP3   OH258164   2.825   2.268  12.132  0.0238  0.0584 -0.4550
12250TIP3    H158165   2.901   2.249  12.187 -0.1907  0.4623 -0.0136
12250TIP3    H258166   2.773   2.330  12.183 -0.2150  0.3875 -1.0817
12251TIP3   OH258167   4.080   3.991   4.060  0.2775  0.2503  0.3444
12251TIP3    H158168   4.124   4.069   4.092  1.2131  0.4965 -1.3981
12251TIP3    H258169   3.989   4.017   4.048 -0.1933  0.0411  3.0049
12252TIP3   OH258170   2.790   6.705  12.761 -0.2478  0.1617  0.0788
12252TIP3    H158171   2.780   6.726  12.854  2.7197  0.0835  0.4952
12252TIP3    H258172   2.843   6.626  12.760  0.4446  0.6127 -1.6868
12253TIP3   OH258173   3.262   4.899   1.970  0.2658 -0.2237 -0.7030
12253TIP3    H158174   3.167   4.903   1.982  0.4741  1.2365  0.9067
12253TIP3    H258175   3.284   4.982   1.929  1.0106  0.2141  0.5367
12254TIP3   OH258176   1.706   3.720  14.201  0.5602  0.0750  0.6772
12254TIP3    H158177   1.800   3.736  14.191  0.8897 -1.2798  1.4030
12254TIP3    H258178   1.671   3.724  14.112  1.4659 -0.2667  0.2991
12255TIP3   OH258179   6.576   6.576  14.431 -0.0328  0.2893  0.3708
12255TIP3    H158180   6.653   6.521  14.442  0.1283  0.3870 -0.2479
12255TIP3    H258181   6.545   6.558  14.343  0.8071  2.1554 -0.3616
12256TIP3   OH258182   3.903   6.588   1.643 -0.4007  0.5839  0.2569
12256TIP3    H158183   3.822   6.607   1.597  0.3492  1.3529 -0.8103
12256TIP3    H258184   3.882   6.599   1.735 -1.7932 -0.3901  0.0844
12257TIP3   OH258185   3.627   0.624   0.341  0.2745  0.2496  0.4405
12257TIP3    H158186   3.562   0.613   0.272  0.7576  1.1888 -0.1982
12257TIP3    H258187   3.606   0.557   0.405  0.1299 -1.0059 -0.8702
12258TIP3   OH258188   5.177   1.470   0.402  1.0097 -0.3686 -0.3211
12258TIP3    H158189   5.244   1.532   0.374 -0.4088  1.9929  1.2005
12258TIP3    H258190   5.187   1.466   0.498 -0.2054 -0.9584 -0.2047
12259TIP3   OH258191   3.789   4.856   4.748  0.3768  0.1888  0.6690
12259TIP3    H158192   3.832   4.935   4.783 -0.9856  0.8760  0.8636
12259TIP3    H258193   3.713   4.889   4.701 -1.2674 -1.0632  2.2743
12260TIP3   OH258194   0.122   1.634   0.105  0.6430 -0.6300  0.0343
12260TIP3    H158195   0.143   1.568   0.038 -0.1767 -0.1561 -0.7177
12260TIP3    H258196   0.078   1.585   0.174 -1.9124 -0.6267 -1.4636
12261TIP3   OH258197   4.678   6.455  13.141 -0.0126  0.0846  0.1478
12261TIP3    H158198   4.712   6.409  13.217 -1.0634 -0.3814  0.3606
12261TIP3    H258199   4.636   6.387  13.088  0.4236  0.4513 -0.6859
12262TIP3   OH258200   2.118   5.861   2.134 -0.3485  0.4941  0.5059
12262TIP3    H158201   2.129   5.777   2.179  1.3269  0.1929 -0.4189
12262TIP3    H258202   2.059   5.911   2.191  0.1408 -0.6024  2.0253
12263TIP3   OH258203   0.265   3.387  11.115 -0.5875  0.1501  0.1509
12263TIP3    H158204   0.235   3.296  11.113 -0.0111 -0.0517  0.3015
12263TIP3    H258205   0.251   3.419  11.026 -3.8989  0.9887  0.8441
12264TIP3   OH258206   0.448   0.667   3.446  0.1811 -0.4765 -0.3997
12264TIP3    H158207   0.357   0.668   3.477  1.0690  1.4014  2.4966
12264TIP3    H258208   0.476   0.758   3.451  2.2645 -1.0245 -1.2242
12265TIP3   OH258209   1.723   3.536  15.508  0.3554 -0.0897  0.4622
12265TIP3    H158210   1.661   3.589  15.458  0.0809 -1.1800 -0.3736
12265TIP3    H258211   1.806   3.584  15.502  0.1892  0.0862 -0.5693
12266TIP3   OH258212   5.410   6.019   4.930 -0.6010 -0.3164  0.2784
12266TIP3    H158213   5.391   6.061   5.015  0.1414 -0.1218  0.3575
12266TIP3    H258214   5.324   6.007   4.890 -0.8803  0.6575  0.5556
12267TIP3   OH258215   4.116   0.822   1.273  0.2543  0.3064 -0.4028
12267TIP3    H158216   4.070   0.739   1.281  0.5486  0.1387 -0.4632
12267TIP3    H258217   4.112   0.860   1.361  1.8820 -0.6949  0.1363
12268TIP3   OH258218   2.065   1.246   3.713  0.4969 -0.1270 -0.7168
12268TIP3    H158219   1.991   1.221   3.658  0.2279 -0.6288 -0.1422
12268TIP3    H258220   2.067   1.180   3.782  1.6099 -0.2442 -0.8350
12269TIP3   OH258221   6.706   3.063   4.169 -0.0310 -0.8064  0.3076
12269TIP3    H158222   6.655   3.125   4.117 -1.2878 -1.6109  0.5594
12269TIP3    H258223   6.780   3.115   4.201  0.6889 -0.2156 -2.0712
12270TIP3   OH258224   0.354   1.479  11.877 -0.2693 -0.2237  0.4357
12270TIP3    H158225   0.404   1.439  11.948  1.6028 -3.0018 -2.1561
12270TIP3    H258226   0.270   1.433  11.877 -0.1936 -0.3618  0.7342
12271TIP3   OH258227   0.482   3.391   0.781 -0.8664  0.3771  0.5027
12271TIP3    H158228   0.547   3.322   0.795  0.7332  1.3277 -1.7720
12271TIP3    H258229   0.496   3.452   0.854  2.2955  1.5961 -0.9554
12272TIP3   OH258230   6.219   0.163  13.535  0.0057 -0.5526  0.2287
12272TIP3    H158231   6.147   0.212  13.573 -0.9340 -1.4539 -0.3153
12272TIP3    H258232   6.181   0.077  13.515  1.1991 -1.0061 -0.1832
12273TIP3   OH258233   4.494   2.745  13.712  0.3089 -0.1955 -0.3477
12273TIP3    H158234   4.512   2.688  13.636 -0.6057 -1.0332  0.0473
12273TIP3    H258235   4.451   2.821  13.674  1.1484  0.0606 -0.8322
12274TIP3   OH258236   5.826   2.633  17.318 -0.3762 -0.8392  0.4995
12274TIP3    H158237   5.747   2.687  17.324 -0.2870 -0.7861  1.1901
12274TIP3    H258238   5.801   2.550  17.359 -0.5555 -1.3917 -0.6623
12275TIP3   OH258239   2.776   6.601   2.848  0.7021  0.5784 -0.8463
12275TIP3    H158240   2.728   6.627   2.927  2.1588 -0.2283  0.3463
12275TIP3    H258241   2.810   6.683   2.813 -2.5436  1.3956 -2.5155
12276TIP3   OH258242   4.117   1.792   2.870 -0.2342  0.2359 -0.4581
12276TIP3    H158243   4.063   1.868   2.894 -1.6256 -1.4553  2.4631
12276TIP3    H258244   4.054   1.720   2.861  1.2266 -1.0879 -0.5520
12277TIP3   OH258245   2.565   4.559   2.835 -0.8148  0.1136 -0.0213
12277TIP3    H158246   2.544   4.645   2.872 -0.9416  0.4533 -0.8758
12277TIP3    H258247   2.606   4.578   2.751  1.0979 -0.5998  0.6860
12278TIP3   OH258248   6.778   5.763  11.995 -0.5462  0.2153 -0.0658
12278TIP3    H158249   6.737   5.678  11.978 -0.2301  0.3150 -1.3939
12278TIP3    H258250   6.864   5.742  12.030 -1.0951  0.0112  1.2489
12279TIP3   OH258251   4.322   0.422   5.889 -0.1302 -0.0215 -0.3402
12279TIP3    H158252   4.393   0.364   5.916 -0.9838 -1.0600 -0.2861
12279TIP3    H258253   4.246   0.365   5.879 -0.8934  1.0217 -0.7017
12280TIP3   OH258254   5.225   3.438   4.301 -0.3062 -0.0527  0.0208
12280TIP3    H158255   5.205   3.411   4.211  0.1919  0.5388 -0.2750
12280TIP3    H258256   5.301   3.495   4.292 -0.3416  0.1220  0.8083
12281TIP3   OH258257   2.607   0.018  17.136 -0.0683 -0.0563 -0.1518
12281TIP3    H158258   2.638  -0.071  17.122 -0.4374  0.0760 -2.1023
12281TIP3    H258259   2.687   0.071  17.140  0.1397 -0.0873 -2.3448
12282TIP3   OH258260   0.587   6.517  14.309 -0.3735 -0.3651  0.1296
12282TIP3    H158261   0.511   6.473  14.348 -1.6377 -1.2267 -2.9178
12282TIP3    H258262   0.641   6.446  14.275 -1.3661  0.1754 -2.9950
12283TIP3   OH258263   1.062   0.853  11.440  0.5363 -0.0495  0.4406
12283TIP3    H158264   1.091   0.939  11.411 -0.0372  1.0083  2.7319
12283TIP3    H258265   1.062   0.859  11.536 -0.6108 -2.2393  0.6442
12284TIP3   OH258266   4.763   6.734  17.308  0.3173  0.1519 -0.0320
12284TIP3    H158267   4.711   6.813  17.319 -0.5719 -0.4944  0.4970
12284TIP3    H258268   4.701   6.667  17.279  0.9949 -0.4371 -0.1798
12285TIP3   OH258269   5.424   4.950  15.638  0.8323  0.3838  0.0263
12285TIP3    H158270   5.511   4.914  15.655  0.2932 -1.2035 -0.3843
12285TIP3    H258271   5.386   4.890  15.574  0.3382  2.4330 -1.7135
12286TIP3   OH258272   1.928   5.095   3.338  0.2260 -0.1028 -1.1533
12286TIP3    H158273   2.021   5.114   3.345  0.6374 -2.2414  0.2294
12286TIP3    H258274   1.917   5.011   3.382 -2.3074 -0.1097 -1.6160
12287TIP3   OH258275   2.178   1.868   1.839  0.1064  0.3626 -0.3379
12287TIP3    H158276   2.127   1.944   1.866  0.9024  1.0168 -0.6504
12287TIP3    H258277   2.186   1.815   1.918 -0.6207  0.5016 -0.1651
12288TIP3   OH258278   5.339   5.922   5.953  0.8645  0.1304 -0.0487
12288TIP3    H158279   5.417   5.963   5.990  1.0472 -1.7300  1.8179
12288TIP3    H258280   5.330   5.961   5.866  3.5097  0.8674 -0.0716
12289TIP3   OH258281   4.493   3.133   5.547  0.4252 -0.0764  0.2831
12289TIP3    H158282   4.423   3.188   5.582  0.0761  0.2065 -0.7987
12289TIP3    H258283   4.572   3.163   5.591 -0.3804 -1.8879  3.1926
12290TIP3   OH258284   2.803   5.720   0.871  0.3274  0.0144 -0.1693
12290TIP3    H158285   2.846   5.754   0.950  0.6284 -0.0178 -0.3160
12290TIP3    H258286   2.767   5.636   0.897  0.2311  0.1071 -0.0048
12291TIP3   OH258287   5.642   1.585  12.768 -0.3985 -0.1736 -0.0729
12291TIP3    H158288   5.697   1.563  12.692  0.2627 -1.7829  0.8249
12291TIP3    H258289   5.638   1.681  12.768  0.5913 -0.1001 -1.4319
12292TIP3   OH258290   2.601   0.935  13.626 -0.4904 -0.5507 -0.0775
12292TIP3    H158291   2.680   0.985  13.604 -0.1899 -1.5021 -1.2779
12292TIP3    H258292   2.559   0.918  13.541 -2.1681  0.1891  0.5637
12293TIP3   OH258293   3.091   0.291  12.397 -0.0236 -0.2330  0.1225
12293TIP3    H158294   3.008   0.253  12.426  1.3940 -1.6118  2.6453
12293TIP3    H258295   3.079   0.385  12.409 -1.5812 -0.2907 -0.6933
12294TIP3   OH258296   2.098   5.016  12.872 -0.0307  0.5787 -0.3813
12294TIP3    H158297   2.069   4.970  12.951 -0.2705  1.6353  0.1767
12294TIP3    H258298   2.192   5.002  12.869 -0.2796 -1.0726 -0.9926
12295TIP3   OH258299   0.905   0.023   2.473  0.1915 -0.3703  0.1112
12295TIP3    H158300   0.983   0.058   2.515  0.9541 -0.6820 -1.0125
12295TIP3    H258301   0.927  -0.069   2.455 -0.1938 -0.2981 -0.7702
12296TIP3   OH258302   2.376   0.948   0.977 -0.3248 -0.2848 -0.0019
12296TIP3    H158303   2.419   0.948   1.062  0.5089 -0.1605 -0.4028
12296TIP3    H258304   2.284   0.928   0.995  0.0662 -1.4371  0.8028
12297TIP3   OH258305   1.441   1.584   0.476  0.4975  0.2027  0.2642
12297TIP3    H158306   1.446   1.522   0.549 -0.9530 -1.3184 -0.8451
12297TIP3    H258307   1.350   1.613   0.475 -0.2101 -1.7014 -2.3209
12298TIP3   OH258308   4.631   4.231   4.977 -0.0629 -0.1480 -0.0435
12298TIP3    H158309   4.584   4.153   4.947  2.4418 -0.6770 -3.0418
12298TIP3    H258310   4.581   4.304   4.943 -1.0703 -0.5060  0.6259
12299TIP3   OH258311   3.386   5.665   2.593  0.5814 -0.3064  0.0482
12299TIP3    H158312   3.340   5.681   2.675  1.5992 -1.4375  0.8718
12299TIP3    H258313   3.320   5.625   2.536  0.9437 -4.0508  1.9451
12300TIP3   OH258314   2.550   2.972  11.644 -0.3303 -0.7709  0.4229
12300TIP3    H158315   2.486   2.923  11.593 -0.0965  1.1364 -1.8362
12300TIP3    H258316   2.504   3.052  11.669  0.7130 -0.0354  0.0265
12301TIP3   OH258317   6.226   1.477   5.950 -0.0523 -0.0003  0.3007
12301TIP3    H158318   6.173   1.405   5.984 -0.8450  0.9791  1.1798
12301TIP3    H258319   6.163   1.548   5.935  1.0590  1.4122  1.9707
12302TIP3   OH258320   2.013   0.507   4.721  0.1399 -0.1508  0.2778
12302TIP3    H158321   1.963   0.583   4.752  1.8868  2.4226 -2.5845
12302TIP3    H258322   2.099   0.516   4.763  1.0392  0.8013 -1.6131
12303TIP3   OH258323   1.777   2.652   0.313 -0.0814  0.6366 -0.4170
12303TIP3    H158324   1.791   2.610   0.228  1.2686  1.9668 -0.8920
12303TIP3    H258325   1.737   2.736   0.291 -1.4617  0.2334  0.4258
12304TIP3   OH258326   2.035   1.219  15.106 -0.3811 -0.0674  0.0055
12304TIP3    H158327   2.002   1.179  15.026 -0.6043 -0.9714  0.5317
12304TIP3    H258328   2.069   1.304  15.079  0.7555 -0.9038 -1.2819
12305TIP3   OH258329   5.657   1.569   5.828  0.3887 -0.4713 -0.0921
12305TIP3    H158330   5.627   1.481   5.807  0.0681 -0.2082 -0.7572
12305TIP3    H258331   5.632   1.622   5.752 -0.5467  0.4403  0.8080
12306TIP3   OH258332   3.481   6.231  14.871  0.2292  0.6422  0.2457
12306TIP3    H158333   3.563   6.281  14.870 -0.8306  2.5021 -0.8449
12306TIP3    H258334   3.429   6.271  14.941 -0.5914  1.0418 -0.5649
12307TIP3   OH258335   5.645   5.021   4.062  0.7406  0.1008 -0.0237
12307TIP3    H158336   5.590   4.967   4.119  2.5549  0.6947  2.4641
12307TIP3    H258337   5.593   5.033   3.982 -1.5102 -1.6455  1.0789
12308TIP3   OH258338   2.554   4.521   3.323  0.7224  0.1977 -0.3083
12308TIP3    H158339   2.487   4.552   3.263 -0.2864 -0.6130  0.3719
12308TIP3    H258340   2.529   4.555   3.409  1.9759  1.0798 -0.2629
12309TIP3   OH258341   6.392   6.638  16.136  0.3995 -0.0443 -0.3437
12309TIP3    H158342   6.413   6.722  16.095  0.7812  0.6797  1.2699
12309TIP3    H258343   6.361   6.583  16.064 -0.4497  1.6729 -1.3480
12310TIP3   OH258344   5.106   1.828   0.201 -0.0273  0.5185  0.3399
12310TIP3    H158345   5.132   1.906   0.151 -0.5214 -0.7591 -2.0483
12310TIP3    H258346   5.063   1.863   0.279 -2.2499  2.7036 -1.7115
12311TIP3   OH258347   3.768   0.680   5.111  0.3983 -0.5516 -0.3664
12311TIP3    H158348   3.850   0.722   5.086  0.3601 -0.3923 -0.2217
12311TIP3    H258349   3.794   0.610   5.171  0.3684 -0.0709  0.2105
12312TIP3   OH258350   2.924   1.801  14.799  0.2521 -0.0607  0.3357
12312TIP3    H158351   3.007   1.757  14.785 -0.9675 -1.9754 -1.2943
12312TIP3    H258352   2.915   1.861  14.725 -0.0275 -0.2139  0.2419
12313TIP3   OH258353   5.441   2.843  13.152  0.0304  0.1648 -0.0963
12313TIP3    H158354   5.470   2.873  13.065 -0.1519 -0.0127 -0.2207
12313TIP3    H258355   5.389   2.916  13.186  0.4047  0.3830  0.0209
12314TIP3   OH258356   2.256   4.647   1.387  0.1151  0.2958 -0.2613
12314TIP3    H158357   2.173   4.674   1.348 -0.4949  0.3323  1.0182
12314TIP3    H258358   2.239   4.645   1.481  1.2543 -0.7951 -0.0531
12315TIP3   OH258359   1.030   2.163  16.912 -0.6146 -0.0527  0.6928
12315TIP3    H158360   1.090   2.200  16.847  0.2498 -1.1282  0.8430
12315TIP3    H258361   1.030   2.069  16.893 -2.7428 -0.0193  0.3074
12316TIP3   OH258362   0.901   1.360   5.717  0.5092 -0.1470  0.2499
12316TIP3    H158363   0.839   1.364   5.789  0.2314 -0.1404  0.0110
12316TIP3    H258364   0.864   1.417   5.649 -0.6156 -2.2046 -0.9712
12317TIP3   OH258365   6.425   6.578  12.056 -0.1684  0.2260 -0.3246
12317TIP3    H158366   6.416   6.580  12.151  0.0218 -1.0119 -0.2658
12317TIP3    H258367   6.378   6.656  12.026 -0.7969  0.2765  0.7319
12318TIP3   OH258368   1.882   6.554  15.309 -0.1916  0.2650 -0.0109
12318TIP3    H158369   1.893   6.528  15.401  0.8075  0.2764 -0.1078
12318TIP3    H258370   1.971   6.576  15.280 -0.2797 -1.0045 -1.3595
12319TIP3   OH258371   5.100   3.669  13.920 -0.0398  0.5724 -0.2273
12319TIP3    H158372   5.186   3.696  13.953 -0.3898  1.3919  0.0432
12319TIP3    H258373   5.037   3.719  13.973 -0.7946 -1.6977  1.1986
12320TIP3   OH258374   0.356   5.882   5.540 -0.2447 -0.1963 -0.1238
12320TIP3    H158375   0.403   5.798   5.542 -2.3046 -1.3909  0.4132
12320TIP3    H258376   0.270   5.863   5.578 -0.3382  2.4743  1.2369
12321TIP3   OH258377   3.282   3.028   1.818  0.2142 -0.3172 -0.3200
12321TIP3    H158378   3.237   2.944   1.820  1.6871 -1.1368 -0.0510
12321TIP3    H258379   3.311   3.042   1.908  1.3121 -0.2926 -0.6608
12322TIP3   OH258380   3.254   5.098  14.065  0.2609 -0.1983 -0.0996
12322TIP3    H158381   3.310   5.153  14.120  0.7701 -0.0068 -0.7881
12322TIP3    H258382   3.227   5.026  14.122  3.1917 -1.6615 -0.3486
12323TIP3   OH258383   2.551   4.404   0.170  0.0173  0.1061  0.1523
12323TIP3    H158384   2.542   4.312   0.196 -0.6004  0.2845  0.5932
12323TIP3    H258385   2.475   4.421   0.114  1.0473 -0.1236 -1.3751
12324TIP3   OH258386   1.817   3.172  11.357  0.4907  0.1779 -0.8176
12324TIP3    H158387   1.868   3.151  11.436  1.6614  0.1375 -1.5714
12324TIP3    H258388   1.862   3.127  11.286 -1.3867 -0.9839 -1.3254
12325TIP3   OH258389   2.220   2.936   1.985  0.0758 -0.2185 -0.4673
12325TIP3    H158390   2.205   3.020   2.028 -0.7789 -0.3286 -0.5410
12325TIP3    H258391   2.254   2.879   2.054  1.3360  0.3705 -0.5718
12326TIP3   OH258392   1.089   4.987   5.217 -0.6341  0.1400 -0.5957
12326TIP3    H158393   1.111   4.895   5.201  0.0853  0.4363 -1.3826
12326TIP3    H258394   0.993   4.990   5.211 -0.8507 -0.9322  1.5614
12327TIP3   OH258395   3.485   4.307  12.510 -0.1871 -0.1114  0.0626
12327TIP3    H158396   3.500   4.212  12.510  0.0247 -0.0796 -0.1906
12327TIP3    H258397   3.534   4.338  12.434  0.1212  0.2631  0.4123
12328TIP3   OH258398   6.060   1.263  13.779  0.3667  0.9002  0.5031
12328TIP3    H158399   6.052   1.235  13.687  2.6308 -0.6428  0.6999
12328TIP3    H258400   6.000   1.205  13.826 -0.5131  1.4366  0.0859
12329TIP3   OH258401   3.305   4.966   0.070  0.4858  0.4117 -0.0623
12329TIP3    H158402   3.375   4.904   0.092  1.0560  1.2222  0.4894
12329TIP3    H258403   3.296   4.959  -0.025 -0.7744 -1.8653  0.1515
12330TIP3   OH258404   1.357   3.891  16.357 -0.1382  0.4478 -0.6059
12330TIP3    H158405   1.415   3.951  16.404 -1.6273  0.6549  1.0789
12330TIP3    H258406   1.343   3.819  16.419 -0.7289 -0.1887 -1.4563
12331TIP3   OH258407   4.023   3.274  13.417  0.6127  0.2678 -0.0640
12331TIP3    H158408   4.002   3.215  13.344 -0.9942  1.7558 -0.8883
12331TIP3    H258409   3.946   3.270  13.473  1.1494  0.4216  0.6989
12332TIP3   OH258410   3.365   6.588   3.134 -0.3202 -0.0099  0.8374
12332TIP3    H158411   3.400   6.509   3.090  0.9111  0.3881  1.0556
12332TIP3    H258412   3.340   6.557   3.221 -0.6432 -0.3390  0.6309
12333TIP3   OH258413   5.180   6.381   1.000  0.4080  0.0774  0.3672
12333TIP3    H158414   5.252   6.433   0.964  1.1593 -0.7262  0.6875
12333TIP3    H258415   5.107   6.397   0.940  1.4105 -0.6489 -1.1153
12334TIP3   OH258416   3.888   2.044   4.031 -0.2357  0.6178  0.0836
12334TIP3    H158417   3.912   2.078   4.117 -0.2498  4.7855 -1.3238
12334TIP3    H258418   3.793   2.032   4.035 -0.1328 -0.0267  0.8503
12335TIP3   OH258419   1.814   0.581   4.220 -0.9121 -0.0424 -0.1449
12335TIP3    H158420   1.835   0.674   4.212  0.8393 -0.5222 -1.9031
12335TIP3    H258421   1.861   0.553   4.299  0.8750  0.0429 -1.1155
12336TIP3   OH258422   3.635   4.484   3.734 -0.5052 -0.2912 -0.4092
12336TIP3    H158423   3.591   4.526   3.807 -0.1700 -2.7143  1.3100
12336TIP3    H258424   3.573   4.490   3.661 -0.2947  3.4292 -0.4904
12337TIP3   OH258425   0.424   3.143   4.932 -0.6756  0.0970 -0.4625
12337TIP3    H158426   0.397   3.100   5.013  0.0589  0.2779 -0.1116
12337TIP3    H258427   0.492   3.204   4.959  0.7166 -0.9657 -1.4273
12338TIP3   OH258428   1.782   1.706   1.036 -0.2129 -0.5427 -0.5889
12338TIP3    H158429   1.727   1.679   1.110  1.9828 -1.4781  0.8122
12338TIP3    H258430   1.831   1.781   1.069 -0.5345  0.2171 -1.7781
12339TIP3   OH258431   3.412   1.193  12.704  0.0784 -0.4883 -0.0940
12339TIP3    H158432   3.413   1.114  12.650  0.0351 -1.6573  1.5604
12339TIP3    H258433   3.455   1.260  12.650 -0.9917 -1.2809 -2.0122
12340TIP3   OH258434   3.881   6.458   0.180 -0.2819  0.0480  0.2885
12340TIP3    H158435   3.957   6.413   0.143 -0.4940 -0.9580  1.0490
12340TIP3    H258436   3.871   6.536   0.125  0.6901 -0.3148 -0.4394
12341TIP3   OH258437   5.870   1.873   4.893 -0.2765 -0.4245  0.6306
12341TIP3    H158438   5.854   1.957   4.850  0.4574 -0.9395 -0.7009
12341TIP3    H258439   5.818   1.877   4.973  0.0173  1.4314  0.7676
12342TIP3   OH258440   0.853   4.950   5.796 -0.3968  0.0731  0.1200
12342TIP3    H158441   0.853   4.902   5.713 -0.2808 -1.8622  1.1800
12342TIP3    H258442   0.784   4.908   5.847  1.4786 -0.7866  2.0751
12343TIP3   OH258443   4.924   4.080   1.660 -0.4177 -0.9606 -0.7291
12343TIP3    H158444   4.961   4.069   1.747 -1.1715  0.4925 -0.1965
12343TIP3    H258445   4.906   3.990   1.630 -1.1883 -1.4455  1.0666
12344TIP3   OH258446   5.875   1.625  10.334 -0.1786 -0.5072  0.0392
12344TIP3    H158447   5.809   1.674  10.285 -1.3158 -1.6136  0.4113
12344TIP3    H258448   5.829   1.593  10.411  1.2443  0.0751  1.1729
12345TIP3   OH258449   5.628   6.400  15.000 -0.7395 -0.0715  0.2125
12345TIP3    H158450   5.625   6.384  15.095 -1.4991  0.5315  0.2974
12345TIP3    H258451   5.549   6.450  14.982 -0.2001  0.4929 -0.6217
12346TIP3   OH258452   2.701   3.035  16.043 -0.1203  0.5132 -0.0163
12346TIP3    H158453   2.703   3.113  16.099  1.5881  0.4681  0.0362
12346TIP3    H258454   2.684   2.962  16.103  0.6470  0.5829  0.2875
12347TIP3   OH258455   1.019   6.308  17.196  0.2947  0.0076  0.3406
12347TIP3    H158456   1.023   6.404  17.198  0.1487  0.0123  0.3529
12347TIP3    H258457   1.075   6.280  17.268 -1.9478  0.1179  2.2057
12348TIP3   OH258458   0.716   2.597   4.571  0.1624  0.0515 -0.1158
12348TIP3    H158459   0.708   2.683   4.613 -1.1113  0.8785 -1.9199
12348TIP3    H258460   0.633   2.585   4.526  0.9390 -1.3981 -1.2354
12349TIP3   OH258461   0.250   5.098   1.159 -0.0332 -0.2845  0.0367
12349TIP3    H158462   0.255   5.026   1.222 -0.2482 -1.8295 -1.6556
12349TIP3    H258463   0.197   5.065   1.087 -0.2355  1.6174 -0.7654
12350TIP3   OH258464   1.591   1.102  14.370  0.2665  0.2306 -0.0863
12350TIP3    H158465   1.685   1.112  14.386  0.4003  0.0928 -0.7430
12350TIP3    H258466   1.555   1.073  14.454  0.5678  1.7426  0.6024
12351TIP3   OH258467   0.185   5.394   5.247  0.6091 -0.1479 -0.2068
12351TIP3    H158468   0.145   5.345   5.318  0.4279 -1.3739 -1.1204
12351TIP3    H258469   0.276   5.404   5.273  1.2449 -3.0252 -0.9775
12352TIP3   OH258470   3.329   4.899  15.603 -0.0896  0.5211 -0.6771
12352TIP3    H158471   3.379   4.818  15.589 -0.3169  0.3677 -0.6051
12352TIP3    H258472   3.385   4.968  15.568  0.7697  0.5097  0.6064
12353TIP3   OH258473   6.297   0.293  15.214 -0.0953 -0.2403  0.1950
12353TIP3    H158474   6.305   0.205  15.178  1.8717  0.0613 -0.2418
12353TIP3    H258475   6.387   0.325  15.219 -0.7331  1.6103  0.7105
12354TIP3   OH258476   4.908   1.947   4.361 -0.1582  0.2157 -0.4604
12354TIP3    H158477   4.904   2.014   4.429  2.9840  1.1141 -1.0120
12354TIP3    H258478   4.887   1.993   4.280  0.8528  0.3015 -0.6872
12355TIP3   OH258479   3.260   1.459  15.182 -0.0934  0.3492 -0.7521
12355TIP3    H158480   3.326   1.415  15.128 -1.9075 -1.9911 -1.2128
12355TIP3    H258481   3.176   1.437  15.141 -1.4820 -0.5878  2.2802
12356TIP3   OH258482   3.848   0.113   2.054  0.3706 -0.3054 -0.0139
12356TIP3    H158483   3.927   0.122   2.107  0.3521 -0.6822  0.0831
12356TIP3    H258484   3.777   0.103   2.117  0.3578 -0.8188 -0.1039
12357TIP3   OH258485   1.860   5.349   2.963 -0.3922  0.4178 -0.3376
12357TIP3    H158486   1.952   5.365   2.939 -0.5571  0.1839 -1.1700
12357TIP3    H258487   1.856   5.366   3.057  0.6126 -0.0550 -0.2008
12358TIP3   OH258488   3.849   1.721  12.934 -0.3274 -0.6805 -0.3728
12358TIP3    H158489   3.859   1.775  13.012  1.0170 -1.6701  0.1811
12358TIP3    H258490   3.756   1.703  12.929 -0.6643  0.8123  0.0104
12359TIP3   OH258491   1.106   1.548  16.206  0.0582 -0.1623 -0.6857
12359TIP3    H158492   1.136   1.614  16.268 -0.4290 -1.1881  0.6899
12359TIP3    H258493   1.010   1.554  16.208 -0.0138 -1.2706 -0.1218
12360TIP3   OH258494   5.817   1.084   5.327  0.1389 -0.2640  0.2669
12360TIP3    H158495   5.871   1.153   5.365 -0.5515  0.1543  0.5139
12360TIP3    H258496   5.753   1.130   5.273  0.0709 -0.7533 -0.0758
12361TIP3   OH258497   3.280   3.873   2.785  0.1310 -0.0590  0.6408
12361TIP3    H158498   3.267   3.876   2.690  0.0457 -1.8949  0.5589
12361TIP3    H258499   3.357   3.927   2.801  0.8809 -0.7043 -0.6322
12362TIP3   OH258500   3.424   5.222   0.868 -1.0322  0.0116  0.1486
12362TIP3    H158501   3.383   5.137   0.885 -0.6509  0.2906  2.8514
12362TIP3    H258502   3.350   5.282   0.859 -1.2741 -0.3243 -0.1782
12363TIP3   OH258503   1.330   3.838   1.070 -0.4130 -0.3709 -0.3834
12363TIP3    H158504   1.397   3.787   1.024 -0.3861 -0.6896  0.0132
12363TIP3    H258505   1.275   3.774   1.114 -0.4798 -0.0732 -0.0213
12364TIP3   OH258506   5.482   3.105   1.103 -0.0648 -0.2095  0.1268
12364TIP3    H158507   5.465   3.011   1.095  1.0893 -0.5325  1.1537
12364TIP3    H258508   5.539   3.126   1.029 -0.6677 -0.2156 -0.3469
12365TIP3   OH258509   2.980   3.179  11.495  0.1818 -0.2048 -0.2164
12365TIP3    H158510   2.903   3.161  11.440 -1.4021  1.1591  1.4164
12365TIP3    H258511   2.987   3.275  11.496  0.4896 -0.2105  1.4845
12366TIP3   OH258512   5.928   2.843  13.774 -0.3747 -0.1380  0.6441
12366TIP3    H158513   5.918   2.787  13.851  0.2636 -2.0240 -0.5665
12366TIP3    H258514   5.856   2.818  13.717  0.7868 -0.8606 -0.5587
12367TIP3   OH258515   5.415   5.744  12.414  0.0299 -0.2784 -0.1111
12367TIP3    H158516   5.391   5.656  12.385  0.9647 -0.0220 -1.8034
12367TIP3    H258517   5.332   5.789  12.427 -0.4504 -1.1753  0.0011
12368TIP3   OH258518   6.645   5.709  14.669 -0.9526  0.3291 -0.3702
12368TIP3    H158519   6.614   5.776  14.608  0.5782  0.6788 -0.8080
12368TIP3    H258520   6.692   5.758  14.736  1.8457 -0.3457 -1.7001
12369TIP3   OH258521   3.172   0.980   2.552  0.0044  0.5523 -1.0021
12369TIP3    H158522   3.244   0.931   2.591 -1.7990 -1.1790  0.3367
12369TIP3    H258523   3.208   1.014   2.470  2.6571  0.7737  0.1591
12370TIP3   OH258524   2.423   5.023   4.506 -0.5311  0.1361 -0.2251
12370TIP3    H158525   2.498   5.065   4.464  0.0788 -2.2703 -1.7147
12370TIP3    H258526   2.418   5.064   4.593  0.7012  2.3553 -1.1243
12371TIP3   OH258527   3.746   1.144   3.173 -0.0135  0.1783  0.2546
12371TIP3    H158528   3.651   1.140   3.159  0.2421 -0.3301 -1.5071
12371TIP3    H258529   3.755   1.169   3.265 -1.8605  1.7757  0.0638
12372TIP3   OH258530   2.526   2.682  14.472 -0.1164 -0.4048 -0.4940
12372TIP3    H158531   2.561   2.626  14.403 -0.0855 -2.0066  0.7753
12372TIP3    H258532   2.440   2.646  14.491  0.6696 -1.2761  1.6737
12373TIP3   OH258533   6.678   3.419  12.015 -0.0322 -0.3346  0.2378
12373TIP3    H158534   6.618   3.410  11.941  0.0591  0.7841  0.0124
12373TIP3    H258535   6.739   3.488  11.988  0.8840 -0.9204  0.7768
12374TIP3   OH258536   1.905   5.576   5.653  1.1484  0.1635 -0.1997
12374TIP3    H158537   1.870   5.664   5.637  1.3310  0.1353 -0.7667
12374TIP3    H258538   1.932   5.578   5.745 -0.8239  0.0029  0.4270
12375TIP3   OH258539   5.498   2.728  16.840 -0.2213  0.1983 -0.2731
12375TIP3    H158540   5.544   2.669  16.780 -0.9590 -0.7833  0.0785
12375TIP3    H258541   5.447   2.669  16.896  2.8743  0.7318  3.5464
12376TIP3   OH258542   1.502   6.591  15.141  0.3720 -0.1818 -0.2137
12376TIP3    H158543   1.513   6.546  15.058 -2.1574 -2.4383  0.5352
12376TIP3    H258544   1.496   6.521  15.206 -2.2271  1.2085  1.2440
12377TIP3   OH258545   5.951   3.265   6.215 -0.4495  0.0739  0.3275
12377TIP3    H158546   5.938   3.172   6.193  0.3237  0.4704 -2.0645
12377TIP3    H258547   6.046   3.276   6.216 -0.5361  1.0521 -0.5079
12378TIP3   OH258548   5.994   2.972  14.623  0.3958  0.0263  0.0259
12378TIP3    H158549   6.037   3.029  14.687 -1.8241  3.2636 -1.1266
12378TIP3    H258550   5.928   2.924  14.674  1.7279 -0.9582  0.8752
12379TIP3   OH258551   6.102   5.123   3.643 -0.0604 -0.1918  0.2608
12379TIP3    H158552   6.076   5.167   3.723 -2.2522  0.0316 -0.5103
12379TIP3    H258553   6.024   5.078   3.613  0.7080 -0.3532 -1.7051
12380TIP3   OH258554   1.087   6.709   0.585  0.1676 -0.1537 -0.1576
12380TIP3    H158555   1.033   6.746   0.515  0.0792  0.4288  0.2083
12380TIP3    H258556   1.158   6.772   0.596  1.0014 -0.9673 -0.7088
12381TIP3   OH258557   1.625   0.485  15.471  0.1236 -0.3927  0.0436
12381TIP3    H158558   1.559   0.417  15.461 -0.9273  0.4196  1.0752
12381TIP3    H258559   1.659   0.499  15.383 -1.3953 -0.5500 -0.5991
12382TIP3   OH258560   4.435   3.593  14.192 -0.0696  0.1060  0.4397
12382TIP3    H158561   4.453   3.524  14.256 -1.6162 -2.5040 -1.6738
12382TIP3    H258562   4.386   3.659  14.240  1.3472 -0.2547  2.5396
12383TIP3   OH258563   0.655   5.711  12.623 -0.0224  0.4214  0.4930
12383TIP3    H158564   0.664   5.722  12.528  1.1592  0.8137  0.6310
12383TIP3    H258565   0.729   5.759  12.659 -0.6296  0.5148  1.6359
12384TIP3   OH258566   0.399   5.794   1.843  0.1298  0.1420  0.1648
12384TIP3    H158567   0.330   5.728   1.845  1.7973 -1.8467 -2.3330
12384TIP3    H258568   0.378   5.852   1.917 -4.2403 -0.2128 -0.5069
12385TIP3   OH258569   3.160   2.055  12.638  0.4264  0.2039 -0.2533
12385TIP3    H158570   3.236   2.053  12.580  0.0055  2.0358 -0.9267
12385TIP3    H258571   3.146   1.963  12.661  2.5977 -0.2201 -0.3889
12386TIP3   OH258572   6.412   4.162   6.456  0.0643 -0.2186 -0.9197
12386TIP3    H158573   6.435   4.249   6.425  0.0857  0.0025 -0.2950
12386TIP3    H258574   6.326   4.144   6.419 -0.6345  0.7066  0.1911
12387TIP3   OH258575   6.089   4.214  11.217 -0.1365  0.2053  1.0391
12387TIP3    H158576   6.125   4.302  11.226 -0.5587  0.9435 -3.0317
12387TIP3    H258577   6.012   4.224  11.163  1.1205 -2.8411 -1.6410
12388TIP3   OH258578   4.169   3.662  15.709  0.3438  0.4214 -0.3479
12388TIP3    H158579   4.077   3.688  15.713 -0.3614 -2.0398  1.2550
12388TIP3    H258580   4.171   3.588  15.648  1.0210 -0.3439  0.5673
12389TIP3   OH258581   6.253   2.610  12.860  0.2200  0.6741 -0.2027
12389TIP3    H158582   6.302   2.532  12.888  2.3899  1.6739 -1.0169
12389TIP3    H258583   6.229   2.592  12.769 -1.2140  0.0904  0.2615
12390TIP3   OH258584   2.752   2.999  16.367  0.3614  0.2343 -0.3771
12390TIP3    H158585   2.738   3.088  16.336  1.5128  0.3805 -0.5441
12390TIP3    H258586   2.682   2.948  16.328 -0.2880  1.0515 -0.3138
12391TIP3   OH258587   0.267   1.607   3.249 -0.3433  0.6372  0.1181
12391TIP3    H158588   0.285   1.571   3.337 -0.0526 -0.1288 -0.2404
12391TIP3    H258589   0.353   1.635   3.218 -0.3618  0.4339 -0.1183
12392TIP3   OH258590   3.551   0.165  17.293  0.4545  0.0111 -0.7773
12392TIP3    H158591   3.492   0.165  17.368 -0.7157 -0.0616 -1.6707
12392TIP3    H258592   3.625   0.219  17.321  0.6068 -0.9721  0.8404
12393TIP3   OH258593   1.078   4.136   2.622  0.3880 -0.3050  0.1653
12393TIP3    H158594   1.162   4.171   2.650  1.2281 -1.4169 -0.8320
12393TIP3    H258595   1.099   4.082   2.545 -1.2543 -0.4868 -0.1972
12394TIP3   OH258596   6.267   2.389  13.602  0.0166  0.4110 -0.4242
12394TIP3    H158597   6.346   2.437  13.579 -0.0054  0.4575 -0.4037
12394TIP3    H258598   6.196   2.452  13.590 -0.2499 -0.2104 -2.4091
12395TIP3   OH258599   4.739   0.353  10.937  0.1373 -0.2876 -0.1897
12395TIP3    H158600   4.694   0.413  10.877 -0.3206 -0.0056  0.4292
12395TIP3    H258601   4.819   0.328  10.890 -1.5463 -2.4172 -2.2344
12396TIP3   OH258602   2.636   0.384   1.298  0.1111 -0.2661  0.0114
12396TIP3    H158603   2.646   0.304   1.348 -1.3455 -0.3523  0.2200
12396TIP3    H258604   2.702   0.379   1.229  0.1951 -1.5227  0.1735
12397TIP3   OH258605   3.473   6.634   4.778  0.1385  0.2780 -0.5451
12397TIP3    H158606   3.466   6.582   4.858 -1.3611 -0.0748 -0.8731
12397TIP3    H258607   3.442   6.721   4.803  1.7471  0.7873 -0.2309
12398TIP3   OH258608   2.191   5.788   2.675  0.5663  0.4699 -0.3094
12398TIP3    H158609   2.119   5.794   2.612  0.8560 -0.4314 -0.7370
12398TIP3    H258610   2.252   5.726   2.635  1.1872  0.6033  0.4342
12399TIP3   OH258611   4.703   4.126  16.750 -0.1653  0.1766  0.0526
12399TIP3    H158612   4.709   4.214  16.713 -2.1006  0.8222  1.1530
12399TIP3    H258613   4.620   4.092  16.718 -0.0089 -0.7683  0.6150
12400TIP3   OH258614   6.191   5.055  13.366 -0.3496 -0.2902  0.1215
12400TIP3    H158615   6.192   4.991  13.294  0.6557  0.4065 -0.5089
12400TIP3    H258616   6.145   5.010  13.437  1.3174 -2.1579  0.0867
12401TIP3   OH258617   1.040   2.121   6.112  0.3891  0.4699 -0.0020
12401TIP3    H158618   1.103   2.077   6.168 -2.4337 -4.4127 -0.0815
12401TIP3    H258619   0.985   2.173   6.172 -1.4150 -3.1623  1.7957
12402TIP3   OH258620   3.648   6.311   0.518  1.0080  0.3240  0.5984
12402TIP3    H158621   3.634   6.406   0.515  0.5424  0.2341 -0.4166
12402TIP3    H258622   3.721   6.296   0.458  0.1990 -0.1023 -0.2980
12403TIP3   OH258623   3.611   4.015   5.418  0.8055  0.1583  0.3702
12403TIP3    H158624   3.545   4.054   5.362  1.0981  2.4207  1.4952
12403TIP3    H258625   3.562   3.957   5.477 -0.0042  0.7652  0.3079
12404TIP3   OH258626   2.826   1.008   6.155  1.0717  0.2852  0.5601
12404TIP3    H158627   2.907   1.010   6.206 -0.1561 -0.3637  2.6800
12404TIP3    H258628   2.805   1.100   6.139  1.4732  0.5123  1.2811
12405TIP3   OH258629   4.292   1.125   2.396 -0.4259 -1.4235 -0.4892
12405TIP3    H158630   4.225   1.166   2.341 -0.6166 -0.8622  0.1470
12405TIP3    H258631   4.354   1.195   2.415 -0.3812 -1.5991  0.0383
12406TIP3   OH258632   3.705   5.134  15.755 -0.3916  0.1534  0.6818
12406TIP3    H158633   3.668   5.047  15.737  0.5080 -0.1043  0.0088
12406TIP3    H258634   3.652   5.168  15.827  0.1881 -1.5761  1.9888
12407TIP3   OH258635   2.816   1.026  15.491  0.2133  0.0876 -0.0021
12407TIP3    H158636   2.879   1.089  15.527  0.4445  0.0275 -0.2951
12407TIP3    H258637   2.859   0.991  15.413  1.3234 -2.5197  1.6339
12408TIP3   OH258638   0.960   5.329  17.160 -0.2280 -0.2033  0.8015
12408TIP3    H158639   0.935   5.237  17.151 -0.2502 -0.0507 -1.0216
12408TIP3    H258640   0.912   5.360  17.237  0.1332 -1.8134  1.7298
12409TIP3   OH258641   2.324   6.442   1.283 -0.0385  0.5781 -0.3036
12409TIP3    H158642   2.411   6.407   1.302 -0.5958 -0.4487  0.4271
12409TIP3    H258643   2.337   6.537   1.279  1.3001  0.3887 -1.2668
12410TIP3   OH258644   0.942   2.485   2.521 -0.8972  0.1673 -0.4503
12410TIP3    H158645   0.932   2.451   2.610 -1.9073  0.1230 -0.5707
12410TIP3    H258646   0.931   2.408   2.465 -3.2416  0.6285 -0.7258
12411TIP3   OH258647   3.673   2.946  16.763 -0.0072  0.5773 -0.4061
12411TIP3    H158648   3.746   3.003  16.741 -0.2612  0.5705 -1.3019
12411TIP3    H258649   3.604   3.006  16.791  0.3191  0.5861  0.3973
12412TIP3   OH258650   5.370   3.838  12.110  0.6175 -0.1507 -0.1788
12412TIP3    H158651   5.311   3.875  12.175  1.4479 -3.1066  2.5454
12412TIP3    H258652   5.390   3.910  12.051 -2.9683  1.8309  0.7323
12413TIP3   OH258653   2.092   6.131  13.211  0.8700 -0.2754  0.2353
12413TIP3    H158654   2.092   6.081  13.293  1.1300 -0.7780 -0.0712
12413TIP3    H258655   2.060   6.218  13.236  1.0103 -0.4079  0.8807
12414TIP3   OH258656   6.556   5.260  13.818  0.1843 -0.1464 -0.4299
12414TIP3    H158657   6.522   5.249  13.907 -1.5704  0.5180 -0.9674
12414TIP3    H258658   6.484   5.302  13.771  0.8101 -1.1315 -2.3482
12415TIP3   OH258659   0.051   1.534   5.702  0.0217  0.4678 -0.0831
12415TIP3    H158660   0.034   1.454   5.753 -0.8630  1.8560  1.9406
12415TIP3    H258661   0.146   1.544   5.705 -0.0259  0.8427  1.9533
12416TIP3   OH258662   3.887   0.806  12.268  0.3496  0.3726  0.4735
12416TIP3    H158663   3.929   0.816  12.353 -1.5516  1.6600  1.3506
12416TIP3    H258664   3.852   0.717  12.268  1.0245  0.1059  0.7045
12417TIP3   OH258665   2.396   3.266   6.036  0.4095  0.6660  0.0268
12417TIP3    H158666   2.317   3.285   5.984 -0.1924 -2.8826 -0.6640
12417TIP3    H258667   2.364   3.258   6.126  0.4043  1.3046  0.0873
12418TIP3   OH258668   0.698   3.459   1.597 -0.6985 -0.3631  0.0873
12418TIP3    H158669   0.665   3.403   1.667 -2.1263 -1.2198 -1.1787
12418TIP3    H258670   0.785   3.425   1.577 -0.3419 -0.1992  1.3187
12419TIP3   OH258671   5.814   0.093  15.319  0.4827  0.3729 -0.1241
12419TIP3    H158672   5.908   0.097  15.337  0.2858  0.6251  0.8945
12419TIP3    H258673   5.791   0.000  15.331  0.5121  0.3974  0.1302
12420TIP3   OH258674   5.116   5.281   2.179 -0.5057 -0.0206 -0.1588
12420TIP3    H158675   5.161   5.354   2.222  0.5958 -1.3515  1.0782
12420TIP3    H258676   5.037   5.267   2.231  0.5948 -1.3295  1.2672
12421TIP3   OH258677   5.514   6.391   1.095  0.0975  0.1234 -0.1761
12421TIP3    H158678   5.532   6.302   1.067 -0.8765 -0.5181  1.1027
12421TIP3    H258679   5.579   6.409   1.163  0.7409  0.6659 -0.9207
12422TIP3   OH258680   0.780   2.744   3.944 -0.6482 -0.9952 -0.6650
12422TIP3    H158681   0.821   2.767   4.028 -1.2290 -0.5613 -0.4950
12422TIP3    H258682   0.694   2.786   3.947 -0.2554 -0.0715 -1.9470
12423TIP3   OH258683   4.469   1.437  13.475  0.2341  0.4916 -0.0604
12423TIP3    H158684   4.434   1.485  13.550  1.0499  0.5487  0.3015
12423TIP3    H258685   4.537   1.381  13.513  0.5350  0.3929 -0.7324
12424TIP3   OH258686   5.554   2.674  11.164  0.2513  0.0301 -0.5996
12424TIP3    H158687   5.575   2.730  11.239  3.1618 -2.3681  0.6167
12424TIP3    H258688   5.484   2.616  11.196 -0.1557  0.5343 -0.5706
12425TIP3   OH258689   4.120   2.583   1.264  0.1140 -0.0012 -0.7283
12425TIP3    H158690   4.032   2.549   1.250  0.5728 -1.7438  0.3337
12425TIP3    H258691   4.178   2.513   1.233  1.0957 -0.1547  1.3141
12426TIP3   OH258692   4.663   2.116   1.745 -0.2516 -0.2456 -0.5169
12426TIP3    H158693   4.721   2.188   1.723 -2.3432  1.9350  0.5849
12426TIP3    H258694   4.675   2.052   1.675  2.2266  0.8152 -1.1381
12427TIP3   OH258695   3.260   5.701   5.303  1.0533  0.4510 -0.1115
12427TIP3    H158696   3.266   5.639   5.229  0.7110 -0.9198  0.9628
12427TIP3    H258697   3.230   5.647   5.376 -1.4051  2.3044  0.3828
12428TIP3   OH258698   1.619   0.281  16.262  0.4431 -0.5456 -0.4502
12428TIP3    H158699   1.525   0.292  16.280  0.2294  0.0723 -1.7686
12428TIP3    H258700   1.630   0.316  16.173  1.5436 -2.5292 -1.1619
12429TIP3   OH258701   4.697   6.233  12.834 -0.0723  0.2949 -0.4341
12429TIP3    H158702   4.791   6.246  12.845 -0.0391  1.9231 -2.1024
12429TIP3    H258703   4.690   6.151  12.785  0.4655  0.1455 -0.2689
12430TIP3   OH258704   5.551   6.466   5.283 -0.6673  0.0378  0.5925
12430TIP3    H158705   5.500   6.477   5.203 -0.7166 -2.0200  0.2909
12430TIP3    H258706   5.642   6.456   5.252 -0.7920 -1.6410  0.6765
12431TIP3   OH258707   6.434   4.752  15.129 -0.5160  0.3324 -0.3660
12431TIP3    H158708   6.341   4.772  15.133 -0.7354 -0.8432  1.8741
12431TIP3    H258709   6.439   4.657  15.125  0.6189  0.3929 -1.3309
12432TIP3   OH258710   3.552   4.534  14.400  0.0369 -0.0565  0.8525
12432TIP3    H158711   3.626   4.586  14.372 -0.8855  1.1883  0.6484
12432TIP3    H258712   3.483   4.598  14.418 -1.8456 -1.2563 -1.5151
12433TIP3   OH258713   2.194   2.351   0.688  0.5017 -0.2401  0.6925
12433TIP3    H158714   2.215   2.263   0.658 -1.0961 -0.6643  0.7446
12433TIP3    H258715   2.170   2.399   0.608 -0.3548 -0.3708  0.8646
12434TIP3   OH258716   0.578   6.022   1.506 -0.2249  0.5444 -0.1748
12434TIP3    H158717   0.514   6.025   1.577 -0.8884  0.1786 -0.7524
12434TIP3    H258718   0.555   5.944   1.456 -0.4601  1.4014 -1.4474
12435TIP3   OH258719   1.395   6.702   3.838 -0.5918 -0.2087 -0.1070
12435TIP3    H158720   1.314   6.736   3.876  0.6444  1.3472  1.2326
12435TIP3    H258721   1.422   6.632   3.898  0.7127  1.4311  1.2961
12436TIP3   OH258722   5.380   4.163  13.820 -0.1658 -0.2888 -0.1221
12436TIP3    H158723   5.366   4.257  13.827  4.4288  0.5637  1.6848
12436TIP3    H258724   5.357   4.141  13.730 -2.1740  2.3290 -0.3408
12437TIP3   OH258725   4.973   4.063  14.013 -0.4154  1.4282 -0.0541
12437TIP3    H158726   5.063   4.073  14.043 -0.4917 -1.0910  1.2740
12437TIP3    H258727   4.979   4.065  13.917  1.5685 -1.7055 -0.1198
12438TIP3   OH258728   6.602   2.690  12.876 -0.6543  0.7042 -0.5217
12438TIP3    H158729   6.609   2.675  12.782 -0.3193 -0.3681 -0.3338
12438TIP3    H258730   6.544   2.766  12.883 -2.4966 -0.5403 -1.5189
12439TIP3   OH258731   5.796   4.520   1.895  0.2586 -0.1934 -0.5998
12439TIP3    H158732   5.765   4.476   1.974  0.0763  1.0802  0.0735
12439TIP3    H258733   5.828   4.450   1.839 -0.1133 -1.1736  0.3805
12440TIP3   OH258734   4.909   0.291  17.210 -0.2559 -0.3864  0.5122
12440TIP3    H158735   4.845   0.342  17.160 -0.2980 -0.3806  0.5719
12440TIP3    H258736   4.969   0.356  17.247 -0.2897 -0.3829  0.5596
12441TIP3   OH258737   4.919   0.943  13.269 -0.6827  0.2678 -0.2094
12441TIP3    H158738   4.976   0.887  13.322 -0.9474 -0.2438 -0.4589
12441TIP3    H258739   4.860   0.984  13.332  0.3715  1.3283  0.1380
12442TIP3   OH258740   0.912   3.998   6.324 -0.0075 -0.0282 -0.5244
12442TIP3    H158741   0.857   4.075   6.339  2.2495  1.4783  0.4319
12442TIP3    H258742   0.959   4.017   6.244  0.6567 -0.3518 -0.2145
12443TIP3   OH258743   3.572   3.229   2.250  0.5745  0.1350  0.0007
12443TIP3    H158744   3.647   3.209   2.195 -0.4532 -0.8581 -1.0854
12443TIP3    H258745   3.555   3.322   2.235  1.4980  0.3367  0.1614
12444TIP3   OH258746   1.336   2.525   6.517  0.0923 -0.0606  0.3040
12444TIP3    H158747   1.315   2.541   6.425  0.9979  0.0554  0.1016
12444TIP3    H258748   1.421   2.481   6.514  0.3415  0.3553  1.1040
12445TIP3   OH258749   2.202   0.317  12.700  0.7289  0.4288 -0.3191
12445TIP3    H158750   2.256   0.238  12.699  0.1029 -0.0029 -1.0462
12445TIP3    H258751   2.213   0.352  12.789  0.7621 -0.6484  0.1154
12446TIP3   OH258752   0.447   3.806   5.067 -0.7237  0.2233 -0.2455
12446TIP3    H158753   0.461   3.769   5.155  0.0341 -0.2561 -0.5561
12446TIP3    H258754   0.457   3.731   5.008 -0.0285  0.7544 -0.8267
12447TIP3   OH258755   5.134   0.895   4.939 -0.0558  0.2619 -0.2819
12447TIP3    H158756   5.157   0.881   5.031  2.3368  1.7590 -0.5696
12447TIP3    H258757   5.165   0.817   4.894  1.2949  0.6928 -0.1465
12448TIP3   OH258758   0.776   0.680   3.342  0.2450 -0.6265  0.3503
12448TIP3    H158759   0.708   0.661   3.407 -1.0621 -0.8253 -1.0217
12448TIP3    H258760   0.792   0.774   3.352 -0.3155 -0.5533  0.6128
12449TIP3   OH258761   3.612   3.997  17.253  0.3305 -0.6126 -0.1379
12449TIP3    H158762   3.650   3.981  17.339 -1.5621 -1.4484  0.6080
12449TIP3    H258763   3.553   3.923  17.239  0.1083 -0.1523 -1.8613
12450TIP3   OH258764   2.681   3.696   5.943  0.6406  0.4618  0.0208
12450TIP3    H158765   2.725   3.655   5.868  0.1629  1.1432 -0.6401
12450TIP3    H258766   2.710   3.787   5.940  0.2325  0.6030  0.3812
12451TIP3   OH258767   0.831   5.317  15.130  0.5753  0.0405  0.0625
12451TIP3    H158768   0.847   5.399  15.083 -1.2827 -0.4534 -1.5610
12451TIP3    H258769   0.750   5.332  15.179  1.6455  0.0099  1.9606
12452TIP3   OH258770   5.675   4.055   5.387 -0.0686  1.2036 -0.3591
12452TIP3    H158771   5.611   4.125   5.379 -0.0760  1.1810 -0.4957
12452TIP3    H258772   5.757   4.099   5.408 -0.5188  1.1049  1.8245
12453TIP3   OH258773   6.578   1.052  12.073 -0.4295  0.2715 -0.6453
12453TIP3    H158774   6.649   1.053  12.137 -0.2227 -1.1980 -0.8090
12453TIP3    H258775   6.613   1.002  11.999 -1.4868 -0.1478 -0.8927
12454TIP3   OH258776   1.353   5.619  14.559 -0.6155  0.0500 -0.0944
12454TIP3    H158777   1.384   5.532  14.584  0.5048  0.5885  0.4896
12454TIP3    H258778   1.430   5.675  14.571 -1.0199  0.9378 -1.4698
12455TIP3   OH258779   5.216   0.905   5.689  0.1231  0.6223  0.2476
12455TIP3    H158780   5.272   0.850   5.744 -0.4674  1.0751  1.3336
12455TIP3    H258781   5.131   0.902   5.731 -0.6874 -0.0197 -1.3623
12456TIP3   OH258782   0.145   0.625   4.459 -0.3706  0.2651 -0.5027
12456TIP3    H158783   0.082   0.575   4.511 -0.5654  0.3783 -0.6293
12456TIP3    H258784   0.091   0.675   4.398 -0.3557  2.6027  1.2952
12457TIP3   OH258785   4.050   0.726  12.459 -0.6352 -0.0282 -0.3133
12457TIP3    H158786   4.115   0.674  12.412 -0.0879 -1.1840  1.6128
12457TIP3    H258787   4.097   0.806  12.485 -0.2211 -0.4484  0.2698
12458TIP3   OH258788   3.095   6.212   1.919 -0.2699  0.1201 -0.4895
12458TIP3    H158789   3.081   6.306   1.934  1.5087  0.2861  0.3384
12458TIP3    H258790   3.090   6.173   2.007  0.8771 -0.2691 -0.5825
12459TIP3   OH258791   0.079   4.591  10.542  0.0533  0.0129 -0.0033
12459TIP3    H158792   0.060   4.684  10.553 -0.5206 -0.3055  2.2549
12459TIP3    H258793   0.064   4.573  10.449  0.3454  2.1882 -0.5083
12460TIP3   OH258794   5.188   6.300   5.781  0.1362  0.1589 -0.1386
12460TIP3    H158795   5.132   6.283   5.857  1.0167 -0.9682  0.2849
12460TIP3    H258796   5.277   6.300   5.816  0.5043  0.4657 -1.0427
12461TIP3   OH258797   2.467   3.981   1.966 -0.1296 -0.5378  0.3133
12461TIP3    H158798   2.467   4.030   1.884  0.0910 -0.8947  0.0950
12461TIP3    H258799   2.384   3.934   1.966 -0.5036  0.1189  0.6973
12462TIP3   OH258800   5.127   5.169   2.785  0.4265 -0.1472  0.0864
12462TIP3    H158801   5.107   5.171   2.692 -0.0318 -0.6109  0.1693
12462TIP3    H258802   5.051   5.126   2.825  0.9894 -0.6993  0.5717
12463TIP3   OH258803   5.461   6.669   2.152  0.4558  0.4185  0.0150
12463TIP3    H158804   5.538   6.682   2.098 -0.6895 -0.3507 -1.9176
12463TIP3    H258805   5.493   6.620   2.229  1.8214 -0.2492 -0.9449
12464TIP3   OH258806   4.241   6.680   0.936  0.2644 -0.5735 -0.4518
12464TIP3    H158807   4.212   6.654   0.848  0.0763  0.8223 -0.8260
12464TIP3    H258808   4.260   6.773   0.928  2.0935 -0.8206  0.5286
12465TIP3   OH258809   3.989   5.152  14.286 -0.2832  0.2799 -0.5825
12465TIP3    H158810   4.067   5.097  14.281 -0.5275 -0.2763  1.3279
12465TIP3    H258811   4.011   5.220  14.350 -1.3000  0.2072 -0.1377
12466TIP3   OH258812   0.189   5.609  13.279  0.0065  0.6108 -0.4623
12466TIP3    H158813   0.265   5.552  13.269 -1.0636 -1.0250  0.2172
12466TIP3    H258814   0.125   5.574  13.218  0.0172  2.4582 -1.6103
12467TIP3   OH258815   2.818   3.875   2.807 -0.1470 -0.0414  0.0928
12467TIP3    H158816   2.820   3.872   2.711  2.0555 -0.0745  0.0878
12467TIP3    H258817   2.747   3.815   2.831 -1.7673  1.1129 -1.5032
12468TIP3   OH258818   5.379   0.177   3.756  0.0664  0.0227  0.0210
12468TIP3    H158819   5.427   0.235   3.697 -2.4341  3.5282  1.1213
12468TIP3    H258820   5.292   0.169   3.715  0.0464 -2.3078  0.3947
12469TIP3   OH258821   6.734   3.275   1.741  0.0639  0.7043  0.8094
12469TIP3    H158822   6.702   3.306   1.656  1.5564 -2.0069 -0.9184
12469TIP3    H258823   6.819   3.317   1.752  0.4116  0.1553  0.3137
12470TIP3   OH258824   0.261   4.440   1.816 -0.1613 -0.2341 -0.4372
12470TIP3    H158825   0.355   4.457   1.817 -0.0706 -0.5399  1.5072
12470TIP3    H258826   0.221   4.526   1.832 -0.0115 -0.5641  2.1450
12471TIP3   OH258827   0.715   2.714  15.778  0.3402  0.2292 -0.2898
12471TIP3    H158828   0.775   2.780  15.742 -1.0294  0.8194 -1.6199
12471TIP3    H258829   0.747   2.631  15.743  1.2175  0.3380  0.2100
12472TIP3   OH258830   2.374   1.805   4.821  0.1539 -0.1776 -0.0143
12472TIP3    H158831   2.314   1.741   4.859  1.0494 -1.0416 -0.0261
12472TIP3    H258832   2.417   1.846   4.896  0.5763 -0.5634 -0.0471
12473TIP3   OH258833   5.525   1.331  15.640 -0.2014  0.1185 -0.3413
12473TIP3    H158834   5.489   1.327  15.551 -3.0399 -0.8322  0.7373
12473TIP3    H258835   5.512   1.421  15.668  0.1440  0.2694 -0.6570
12474TIP3   OH258836   4.747   4.200   3.164  0.6083 -0.5555  0.0711
12474TIP3    H158837   4.813   4.258   3.125  0.0553  0.3640  0.4447
12474TIP3    H258838   4.724   4.243   3.246 -0.3527 -0.9258  0.0060
12475TIP3   OH258839   6.063   0.505   1.891  0.1132  0.1213  0.0775
12475TIP3    H158840   5.982   0.544   1.857  0.1359  0.1832  0.0938
12475TIP3    H258841   6.065   0.417   1.854 -0.0614  0.0496  0.2348
12476TIP3   OH258842   6.380   0.598   5.566 -0.0014  0.1319 -0.6799
12476TIP3    H158843   6.374   0.542   5.489  0.4492 -0.0663 -0.5773
12476TIP3    H258844   6.372   0.538   5.640 -1.0927  0.3996 -0.5655
12477TIP3   OH258845   2.479   3.445  15.762  0.3425  0.0539  0.4347
12477TIP3    H158846   2.423   3.371  15.738  0.4306 -0.1450  0.8404
12477TIP3    H258847   2.552   3.441  15.701  1.0029 -0.9571  1.2634
12478TIP3   OH258848   0.014   4.056   1.403 -0.3252  0.1342 -0.1397
12478TIP3    H158849   0.065   4.066   1.484 -1.1197  0.4537  0.3364
12478TIP3    H258850   0.032   3.967   1.374  0.9834  0.4358 -0.3266
12479TIP3   OH258851   3.188   4.161  17.061  0.4695  0.5087 -0.0478
12479TIP3    H158852   3.282   4.181  17.053  0.8404 -0.6750  1.0029
12479TIP3    H258853   3.185   4.066  17.067 -0.7551  0.5776  0.5827
12480TIP3   OH258854   2.812   2.217  15.586  0.3587 -0.1759  0.2682
12480TIP3    H158855   2.795   2.144  15.647  1.0558 -1.0042 -0.5053
12480TIP3    H258856   2.842   2.174  15.506 -2.1396  0.7769 -1.2782
12481TIP3   OH258857   2.749   5.053  16.159 -0.3526 -0.2830 -0.6305
12481TIP3    H158858   2.702   5.054  16.242 -0.7107 -1.4304 -0.8051
12481TIP3    H258859   2.744   5.143  16.127  1.5007  0.6842  1.5029
12482TIP3   OH258860   0.167   5.610  14.566 -0.4584 -0.4206  0.0208
12482TIP3    H158861   0.125   5.556  14.499  1.2545 -2.2251  0.3224
12482TIP3    H258862   0.252   5.568  14.581  1.4215  2.9209 -0.3959
12483TIP3   OH258863   6.315   3.888  13.768  0.1483  0.4887  0.1210
12483TIP3    H158864   6.344   3.970  13.727  2.1766  0.7608  1.8858
12483TIP3    H258865   6.267   3.917  13.846 -0.1211 -0.0090  0.1407
12484TIP3   OH258866   4.214   0.399   4.837  0.9357  0.0080 -0.1910
12484TIP3    H158867   4.188   0.413   4.746  0.2837  0.8521  0.1227
12484TIP3    H258868   4.264   0.477   4.861 -0.2454  0.5261  0.6603
12485TIP3   OH258869   4.221   3.307   0.169 -0.3288  0.3253  0.2488
12485TIP3    H158870   4.273   3.365   0.224 -0.8835  0.1216  1.0106
12485TIP3    H258871   4.202   3.231   0.225  0.4275 -0.6231 -0.7391
12486TIP3   OH258872   0.809   0.759   5.257  0.2881  0.1680  0.3163
12486TIP3    H158873   0.804   0.665   5.237 -0.8049  0.0658  0.9882
12486TIP3    H258874   0.876   0.793   5.198  0.3939 -0.9594 -0.2325
12487TIP3   OH258875   4.461   6.319   3.481  0.8528 -0.7437 -0.4083
12487TIP3    H158876   4.377   6.308   3.438 -0.2131 -1.3738  1.6827
12487TIP3    H258877   4.522   6.269   3.427 -0.3202 -1.1945 -1.3719
12488TIP3   OH258878   1.461   4.157   6.711  0.4709 -0.2869 -0.2245
12488TIP3    H158879   1.368   4.174   6.697 -0.2486 -4.1170 -1.3114
12488TIP3    H258880   1.469   4.142   6.805  0.0960  0.5750 -0.0518
12489TIP3   OH258881   1.474   4.848  13.975  0.1039  0.7342  0.4085
12489TIP3    H158882   1.527   4.769  13.979 -0.8716  0.0583  0.1135
12489TIP3    H258883   1.423   4.849  14.056 -0.8077  0.3912 -0.1472
12490TIP3   OH258884   3.439   5.998   0.214 -1.1990 -0.5035 -0.2176
12490TIP3    H158885   3.488   5.939   0.158  0.8980  1.4488 -0.5818
12490TIP3    H258886   3.405   6.065   0.155 -2.5193 -0.6607  0.3323
12491TIP3   OH258887   0.201   4.067   4.035 -0.9892  0.0745  0.3890
12491TIP3    H158888   0.142   4.000   4.002 -1.8748  1.1100 -0.1953
12491TIP3    H258889   0.151   4.148   4.029 -0.1643  0.7193  1.6359
12492TIP3   OH258890   6.533   5.727   4.377  0.3748  0.9723 -0.2864
12492TIP3    H158891   6.554   5.757   4.465  0.0140  0.0639  0.1289
12492TIP3    H258892   6.586   5.648   4.365 -2.0602 -0.9290  0.5017
12493TIP3   OH258893   4.766   0.514   2.483  0.1316  0.0271  0.2501
12493TIP3    H158894   4.701   0.567   2.530  2.1472  3.1533 -0.2067
12493TIP3    H258895   4.835   0.497   2.548  0.2427 -0.7209 -0.0503
12494TIP3   OH258896   5.851   2.461  15.644  0.2395 -0.4050  0.4068
12494TIP3    H158897   5.780   2.399  15.661  0.0963 -0.1624  0.6887
12494TIP3    H258898   5.898   2.423  15.569 -0.9288  0.0426 -0.5997
12495TIP3   OH258899   6.257   4.525   0.487  0.1464 -0.5372 -0.1198
12495TIP3    H158900   6.218   4.542   0.572  0.4058 -2.7138  0.4938
12495TIP3    H258901   6.191   4.554   0.424  0.3765  2.0883  0.7308
12496TIP3   OH258902   1.057   5.092  16.904 -0.9928  0.2576 -0.7029
12496TIP3    H158903   0.968   5.081  16.871 -0.2024  0.3605 -3.1119
12496TIP3    H258904   1.113   5.067  16.830  0.9789  0.2431  0.7139
12497TIP3   OH258905   3.831   4.181  15.756  0.2631 -0.0652 -0.3567
12497TIP3    H158906   3.893   4.254  15.761  0.3475 -0.0428 -1.6105
12497TIP3    H258907   3.879   4.112  15.712 -0.6706  0.0358 -1.5705
12498TIP3   OH258908   3.955   0.144  12.685  0.1251  0.0960 -0.0434
12498TIP3    H158909   3.994   0.165  12.770  2.1424  2.2395 -1.3921
12498TIP3    H258910   3.867   0.180  12.689 -0.5063 -1.4768  1.7377
12499TIP3   OH258911   1.707   2.148   3.358 -0.4573 -0.3241  0.1740
12499TIP3    H158912   1.675   2.111   3.276 -0.0863 -1.3252  0.4681
12499TIP3    H258913   1.629   2.175   3.405 -0.8091 -1.5981  0.3513
12500TIP3   OH258914   5.705   3.966   6.403 -0.1711 -0.1461  0.0305
12500TIP3    H158915   5.671   4.021   6.473  1.8071 -0.0369  0.9684
12500TIP3    H258916   5.786   4.009   6.376 -1.0700  0.0828 -2.6979
12501TIP3   OH258917   3.149   4.872  16.802 -0.1543 -0.0885  0.3668
12501TIP3    H158918   3.099   4.951  16.783 -1.0188 -0.5786  0.5129
12501TIP3    H258919   3.103   4.803  16.753  0.2727 -0.5893  0.6594
12502TIP3   OH258920   0.100   1.947   3.589  0.0298 -0.8301  0.1926
12502TIP3    H158921   0.025   1.897   3.558 -1.0403  0.8235  0.0138
12502TIP3    H258922   0.121   1.910   3.674 -2.2723 -0.0586  1.1514
12503TIP3   OH258923   4.776   1.563  13.623  0.0983  0.1776 -0.0330
12503TIP3    H158924   4.760   1.471  13.646 -0.7630  0.7837  1.9449
12503TIP3    H258925   4.860   1.561  13.576  0.7939 -1.4571  1.1963
12504TIP3   OH258926   1.179   5.755  14.778  0.1066 -0.3571  0.1191
12504TIP3    H158927   1.247   5.723  14.718  0.2155 -0.0870  0.0998
12504TIP3    H258928   1.177   5.690  14.848 -2.1265 -2.4205 -1.6423
12505TIP3   OH258929   2.437   3.516  13.747  0.2635 -0.1753 -0.0901
12505TIP3    H158930   2.522   3.515  13.702  1.1255  0.5140  1.4518
12505TIP3    H258931   2.439   3.438  13.803 -0.2803 -0.3446 -0.2955
12506TIP3   OH258932   2.683   5.768   4.706  0.1729  0.1944  0.4095
12506TIP3    H158933   2.683   5.692   4.765  2.1213  0.7281  1.1771
12506TIP3    H258934   2.776   5.790   4.696 -0.3159  1.9923 -0.4314
12507TIP3   OH258935   4.548   2.623   2.512  0.0492 -0.0586 -0.0015
12507TIP3    H158936   4.511   2.536   2.521 -0.9532  0.4737  1.2739
12507TIP3    H258937   4.621   2.625   2.574 -1.5402  0.8089  1.9506
12508TIP3   OH258938   0.101   6.370  15.258  0.5663  0.5061  0.3800
12508TIP3    H158939   0.178   6.362  15.314  0.5565  0.6975  0.4205
12508TIP3    H258940   0.034   6.409  15.315  0.2672 -0.1732  0.5077
12509TIP3   OH258941   0.361   1.586  13.990 -0.0288 -0.0258  0.2248
12509TIP3    H158942   0.392   1.676  13.998 -0.5546  0.4113 -1.9758
12509TIP3    H258943   0.267   1.591  14.007 -0.1509 -0.0487 -0.4115
12510TIP3   OH258944   2.686   3.228   0.669 -0.3467 -0.0835 -0.4668
12510TIP3    H158945   2.724   3.145   0.699 -0.1365  0.4149  0.6954
12510TIP3    H258946   2.755   3.292   0.683 -1.0310  0.5451  0.0529
12511TIP3   OH258947   6.154   2.691   0.927 -0.4232 -0.2197  0.3885
12511TIP3    H158948   6.079   2.718   0.873 -1.6887  0.9658  2.5855
12511TIP3    H258949   6.137   2.599   0.947 -0.4542 -0.3888 -0.3701
12512TIP3   OH258950   3.043   6.331   0.388 -0.7837 -0.2020  0.2415
12512TIP3    H158951   2.960   6.377   0.404 -0.3318  0.3920  0.9267
12512TIP3    H258952   3.075   6.367   0.306  1.3647  3.4931  2.4729
12513TIP3   OH258953   6.429   6.373  13.975 -0.1483  0.1422 -0.0463
12513TIP3    H158954   6.431   6.279  13.990  1.3192  0.1109 -0.3234
12513TIP3    H258955   6.368   6.384  13.902  0.8869 -0.7809 -1.0998
12514TIP3   OH258956   6.731   2.149   2.551  0.5485 -0.1324  0.1310
12514TIP3    H158957   6.802   2.208   2.576 -0.0173 -0.0091  1.5423
12514TIP3    H258958   6.672   2.150   2.626 -1.6983  0.8750 -1.5233
12515TIP3   OH258959   6.447   2.545   1.056 -0.0470 -0.4119 -0.4481
12515TIP3    H158960   6.436   2.579   1.145 -1.3119 -1.4307 -0.1965
12515TIP3    H258961   6.515   2.478   1.064  1.7893  1.3294 -0.7779
12516TIP3   OH258962   4.435   6.595  14.323 -0.2774  0.9690 -0.1296
12516TIP3    H158963   4.390   6.673  14.291 -0.4251  0.4601 -1.1994
12516TIP3    H258964   4.429   6.532  14.251  1.0723  0.4539  0.1837
12517TIP3   OH258965   4.993   3.729  12.683 -0.1028 -0.6535 -0.4144
12517TIP3    H158966   4.907   3.772  12.688 -0.8158 -1.9401 -1.0701
12517TIP3    H258967   5.012   3.725  12.589  0.7240 -0.3010 -0.2667
12518TIP3   OH258968   4.373   2.636   6.256 -0.1334  0.0954 -0.4737
12518TIP3    H158969   4.449   2.653   6.200  0.5669 -1.2526  0.0052
12518TIP3    H258970   4.408   2.637   6.345 -0.1649 -2.5854 -0.3393
12519TIP3   OH258971   2.131   0.410  16.940  0.2361  0.1037  0.2534
12519TIP3    H158972   2.165   0.491  16.977  2.3134 -0.6708  0.1692
12519TIP3    H258973   2.093   0.363  17.015  2.0537 -0.2888  0.9937
12520TIP3   OH258974   2.016   5.709  14.626 -0.2783 -0.4129  0.2090
12520TIP3    H158975   1.997   5.744  14.713 -0.9234 -2.5648  0.9821
12520TIP3    H258976   2.033   5.616  14.640  0.7187 -0.5926 -1.8405
12521TIP3   OH258977   3.074   1.812  12.779 -0.2565 -0.4458 -0.4548
12521TIP3    H158978   3.112   1.727  12.757  0.3669 -0.0836 -0.8120
12521TIP3    H258979   2.992   1.815  12.730 -0.0264 -0.6296 -0.8573
12522TIP3   OH258980   2.800   2.703   3.079 -0.9494 -0.3897  0.1801
12522TIP3    H158981   2.844   2.639   3.135 -1.6739  0.7480  2.1575
12522TIP3    H258982   2.871   2.755   3.041 -0.4625 -0.6754  0.6900
12523TIP3   OH258983   0.332   2.018   3.757  0.0382 -0.6700 -0.3948
12523TIP3    H158984   0.421   1.996   3.783  0.1615  0.9213  0.7056
12523TIP3    H258985   0.319   2.107   3.790 -2.3197 -1.2428  0.4300
12524TIP3   OH258986   4.583   0.163  17.306  1.0064 -0.4187 -0.0499
12524TIP3    H158987   4.608   0.221  17.378  1.0998  0.0098 -0.4193
12524TIP3    H258988   4.581   0.220  17.229 -2.2719 -0.1323  0.1091
12525TIP3   OH258989   0.877   0.152   0.858 -0.5398 -0.1537  0.4513
12525TIP3    H158990   0.948   0.116   0.911 -0.0697 -0.4144 -0.3443
12525TIP3    H258991   0.916   0.229   0.817 -1.1816  0.5939  1.2006
12526TIP3   OH258992   4.348   0.359  14.172 -0.1766  0.0131 -0.5394
12526TIP3    H158993   4.330   0.307  14.250 -0.2661 -1.0991 -1.2792
12526TIP3    H258994   4.331   0.449  14.199 -2.3158 -0.5317  0.1218
12527TIP3   OH258995   6.496   3.117  13.734  0.6134 -0.5819  0.3415
12527TIP3    H158996   6.462   3.119  13.824  2.0532  1.6794  0.8934
12527TIP3    H258997   6.461   3.196  13.693  0.4776 -1.2750 -0.9520
12528TIP3   OH258998   4.043   3.513  13.275  0.3841  0.1073  0.3015
12528TIP3    H158999   4.023   3.478  13.188 -3.0031  1.0420  0.5730
12528TIP3    H259000   4.029   3.440  13.335  1.4022 -0.1738  0.2195
12529TIP3   OH259001   4.716   3.466  11.037 -0.2223 -0.2405 -0.5502
12529TIP3    H159002   4.789   3.439  11.092 -1.5743 -1.9647  0.4881
12529TIP3    H259003   4.650   3.399  11.050 -3.0084  2.4560  0.4761
12530TIP3   OH259004   0.898   2.730  11.116  0.2716 -0.1608  0.3826
12530TIP3    H159005   0.904   2.637  11.094  1.1693  0.2720 -1.4137
12530TIP3    H259006   0.988   2.762  11.111  0.0202  0.7592  1.2917
12531TIP3   OH259007   3.880   2.710  13.880 -0.4886 -0.2099  0.3290
12531TIP3    H159008   3.831   2.717  13.962  0.8402  0.5041  1.0936
12531TIP3    H259009   3.962   2.666  13.904 -0.2137 -0.2791 -0.6744
12532TIP3   OH259010   1.134   4.415   2.815  0.1338 -0.1968  0.2585
12532TIP3    H159011   1.051   4.408   2.768 -0.4773 -0.5514  1.3539
12532TIP3    H259012   1.194   4.357   2.767 -0.4543 -0.4992 -0.1190
12533TIP3   OH259013   0.189   0.651  14.023 -0.6526  0.6660 -0.8944
12533TIP3    H159014   0.279   0.620  14.036  0.0925  2.6337 -1.0350
12533TIP3    H259015   0.136   0.594  14.078  0.8962  0.5609  0.5640
12534TIP3   OH259016   2.385   1.495  14.420 -0.4708 -0.6396 -0.1994
12534TIP3    H159017   2.411   1.505  14.511 -1.0940  0.3064 -0.1134
12534TIP3    H259018   2.313   1.557  14.409  0.7821  0.6008 -1.8236
12535TIP3   OH259019   1.710   2.597  16.241 -0.4801  0.6065  0.1981
12535TIP3    H159020   1.744   2.633  16.159 -1.0045 -1.1489 -0.8566
12535TIP3    H259021   1.705   2.502  16.225 -3.7078  0.5081  1.0212
12536TIP3   OH259022   2.888   1.476   5.617  0.6462  0.0062  0.1125
12536TIP3    H159023   2.928   1.416   5.554  0.0513  2.0083 -2.3351
12536TIP3    H259024   2.812   1.429   5.650  0.8114 -1.0063 -0.8814
12537TIP3   OH259025   4.059   4.169  12.058  0.2470 -0.5386 -0.2595
12537TIP3    H159026   4.057   4.189  12.152  3.9262 -0.1678 -0.1137
12537TIP3    H259027   4.080   4.252  12.016  2.4578 -1.3861 -0.9605
12538TIP3   OH259028   4.925   2.088   4.035  0.1195  0.0235  0.1228
12538TIP3    H159029   5.005   2.139   4.048  1.0997 -1.0849 -1.3015
12538TIP3    H259030   4.921   2.072   3.941 -1.3939 -0.5878  0.2607
12539TIP3   OH259031   2.766   3.754  12.847 -0.1291  0.4889  0.1428
12539TIP3    H159032   2.796   3.702  12.772 -1.8597 -1.3550  0.6237
12539TIP3    H259033   2.804   3.710  12.923 -0.9364  0.4126  0.5096
12540TIP3   OH259034   1.030   6.151   5.588  0.2476 -0.3702 -0.0848
12540TIP3    H159035   0.971   6.172   5.515  0.2320  0.6117  0.1998
12540TIP3    H259036   1.093   6.222   5.590  0.0346 -0.1860  1.0794
12541TIP3   OH259037   1.047   2.743   3.173 -0.4656  0.4759 -0.0830
12541TIP3    H159038   0.989   2.699   3.235 -0.9177  1.0941 -0.0563
12541TIP3    H259039   1.099   2.672   3.135 -0.0869  0.0864  1.0842
12542TIP3   OH259040   0.688   6.561   3.686  0.0925 -0.3488  0.1677
12542TIP3    H159041   0.745   6.637   3.670  1.6913 -1.2101  1.4796
12542TIP3    H259042   0.656   6.573   3.775 -2.6601  0.6028 -0.8507
12543TIP3   OH259043   3.366   0.591   3.157 -0.1866 -0.1414 -0.1637
12543TIP3    H159044   3.391   0.673   3.116  2.3930  0.2531  1.9504
12543TIP3    H259045   3.306   0.616   3.227  0.3929 -0.0662  0.3123
12544TIP3   OH259046   5.838   0.953  16.579  0.5281 -0.2549  0.3117
12544TIP3    H159047   5.780   0.880  16.599  1.0048 -1.0440 -1.0263
12544TIP3    H259048   5.814   1.022  16.642 -0.5540 -1.2224  0.9900
12545TIP3   OH259049   2.706   4.571   1.285 -0.2232  0.6400 -0.0260
12545TIP3    H159050   2.726   4.522   1.364  0.2350  1.7139  0.5395
12545TIP3    H259051   2.637   4.520   1.242  2.4301 -2.3211 -1.2020
12546TIP3   OH259052   2.110   6.053   2.426 -0.1439 -0.0419 -0.0956
12546TIP3    H159053   2.034   6.032   2.373  0.8336  1.5472 -2.2471
12546TIP3    H259054   2.074   6.096   2.504 -1.4709  0.6627 -1.0606
12547TIP3   OH259055   2.717   4.593  15.638  0.0746  0.2706 -0.0296
12547TIP3    H159056   2.812   4.582  15.636  0.1770  0.1478  2.4919
12547TIP3    H259057   2.701   4.656  15.708 -1.7426 -0.3062  0.1305
12548TIP3   OH259058   5.010   6.419   1.223 -0.4318 -0.0542 -0.3706
12548TIP3    H159059   5.019   6.339   1.274 -1.7906 -1.3908 -2.1023
12548TIP3    H259060   5.085   6.418   1.163  0.5067  0.9051  0.7416
12549TIP3   OH259061   1.725   2.047   2.972  0.0080  0.0223 -0.0459
12549TIP3    H159062   1.704   2.036   2.879 -0.3575 -1.0367  0.1531
12549TIP3    H259063   1.639   2.052   3.015  0.1734  0.7470  0.2218
12550TIP3   OH259064   5.963   1.531  13.041 -0.3471  0.2010 -0.2885
12550TIP3    H159065   6.053   1.503  13.024 -0.1598  0.2449  0.5618
12550TIP3    H259066   5.954   1.614  12.994 -0.7364 -0.9656 -2.3820
12551TIP3   OH259067   5.215   1.176   5.590  0.0940 -0.1079  0.0430
12551TIP3    H159068   5.234   1.092   5.631  0.9890 -0.8009 -1.6705
12551TIP3    H259069   5.242   1.241   5.654 -0.3621 -1.1077  1.3010
12552TIP3   OH259070   4.333   4.798   4.197  0.1489 -0.5291  0.5248
12552TIP3    H159071   4.250   4.764   4.164 -0.6678 -0.4934  2.4202
12552TIP3    H259072   4.345   4.880   4.150 -1.2763 -0.1772  0.7154
12553TIP3   OH259073   0.101   1.579  14.050  0.1841 -0.2120 -0.7083
12553TIP3    H159074   0.111   1.484  14.060 -0.5861 -0.2955 -0.5977
12553TIP3    H259075   0.052   1.605  14.129  0.5347  0.3019 -0.6587
12554TIP3   OH259076   4.945   4.601   3.812  0.4161 -0.2697  0.5335
12554TIP3    H159077   5.021   4.543   3.809  0.3111 -0.4255  0.8585
12554TIP3    H259078   4.919   4.611   3.720  1.5427  0.7375  0.2930
12555TIP3   OH259079   5.013   0.266   1.367  0.4296  0.6907 -0.1364
12555TIP3    H159080   4.940   0.227   1.320  0.5646 -0.6806  0.7400
12555TIP3    H259081   5.055   0.324   1.303 -1.0285  1.0098 -0.8299
12556TIP3   OH259082   3.236   4.438  15.864  0.1606  0.0951  0.4885
12556TIP3    H159083   3.176   4.443  15.939 -0.2960  0.4904  0.1074
12556TIP3    H259084   3.296   4.511  15.876  0.1723  0.0777  0.5363
12557TIP3   OH259085   5.374   4.532  16.057  0.4225  0.2085 -0.0513
12557TIP3    H159086   5.380   4.569  15.969 -0.9763  3.2268  0.9872
12557TIP3    H259087   5.440   4.579  16.107  0.6018 -0.8427  0.7208
12558TIP3   OH259088   1.879   0.520  14.324 -0.6632 -0.1488 -0.0033
12558TIP3    H159089   1.796   0.513  14.371 -0.9672 -1.3289 -0.6717
12558TIP3    H259090   1.871   0.600  14.272 -1.7597 -0.7142 -0.7456
12559TIP3   OH259091   2.724   4.985   0.072 -0.5848  0.0100  0.6095
12559TIP3    H159092   2.656   4.927   0.109 -2.4973  1.4022 -0.5314
12559TIP3    H259093   2.740   5.048   0.142 -0.2126 -0.5041  0.9997
12560TIP3   OH259094   2.659   5.008  10.837  0.2220  0.4697 -0.5857
12560TIP3    H159095   2.740   5.034  10.795  0.8182 -0.7366 -0.2470
12560TIP3    H259096   2.600   5.083  10.826  2.0308  2.2199  0.9985
12561TIP3   OH259097   0.816   3.165   4.433 -0.5489  0.3159 -0.0442
12561TIP3    H159098   0.812   3.260   4.445  1.7998  0.2968  1.5075
12561TIP3    H259099   0.910   3.145   4.434 -0.9537 -1.9396 -1.2154
12562TIP3   OH259100   4.439   5.930  17.287  0.2786 -0.3783  0.0319
12562TIP3    H159101   4.377   5.859  17.302 -1.1376  0.9521  0.8207
12562TIP3    H259102   4.384   6.007  17.271  1.7456  0.6676 -0.2059
12563TIP3   OH259103   2.169   3.352   4.807 -0.0649  0.1265 -0.0559
12563TIP3    H159104   2.232   3.283   4.788  0.7250  0.1382  2.2379
12563TIP3    H259105   2.083   3.310   4.799  0.4107 -1.3289  1.8647
12564TIP3   OH259106   1.212   6.197   5.088 -0.3597 -0.5744  0.2485
12564TIP3    H159107   1.122   6.200   5.056 -0.8158 -1.7067  1.3306
12564TIP3    H259108   1.263   6.242   5.021 -1.7108 -0.0095 -0.4357
12565TIP3   OH259109   3.083   6.693  16.120 -0.6689  0.1358  0.4558
12565TIP3    H159110   3.098   6.689  16.025 -3.6168  0.0746 -0.0991
12565TIP3    H259111   3.128   6.616  16.155 -0.3918 -0.4171 -1.0528
12566TIP3   OH259112   0.995   2.637  16.069 -0.2671 -0.3142  0.0314
12566TIP3    H159113   1.075   2.613  16.023 -0.3196 -0.4264 -0.0006
12566TIP3    H259114   1.006   2.603  16.157  0.1749  0.5867  0.3417
12567TIP3   OH259115   4.680   1.941   1.962 -0.2494  0.1547 -0.8616
12567TIP3    H159116   4.643   1.949   2.050 -0.9800  0.3959 -1.1858
12567TIP3    H259117   4.661   2.025   1.920  3.0182  1.4099 -0.1825
12568TIP3   OH259118   4.387   3.430   1.545 -0.5760 -0.2644  0.4475
12568TIP3    H159119   4.441   3.351   1.546 -0.2514 -0.0866 -1.3721
12568TIP3    H259120   4.402   3.470   1.631  1.0823 -0.9462  0.5108
12569TIP3   OH259121   5.924   0.412  15.495  0.2260 -0.0517 -0.3368
12569TIP3    H159122   5.978   0.400  15.418  3.0843  1.1181  1.3495
12569TIP3    H259123   5.905   0.506  15.498  0.2073 -0.0700  0.4229
12570TIP3   OH259124   0.452   4.622   5.052 -0.1218 -0.2698 -0.4038
12570TIP3    H159125   0.365   4.588   5.033  0.3849 -2.5597  0.8884
12570TIP3    H259126   0.510   4.573   4.993  0.3685  0.8165 -0.8547
12571TIP3   OH259127   4.129   6.300   4.795  0.2153 -0.0798 -0.4357
12571TIP3    H159128   4.066   6.326   4.728 -1.1699 -0.2105  0.7738
12571TIP3    H259129   4.215   6.315   4.754 -0.5794  0.3375 -2.0286
12572TIP3   OH259130   0.402   0.474   4.724  0.0353  0.2078 -0.0477
12572TIP3    H159131   0.450   0.395   4.751  2.1019  1.1226 -0.8374
12572TIP3    H259132   0.456   0.512   4.655 -2.5293  0.6315 -1.9649
12573TIP3   OH259133   1.950   6.640  14.286 -0.2707  0.3422  0.8198
12573TIP3    H159134   1.956   6.567  14.224 -0.4561 -0.9956  2.2989
12573TIP3    H259135   1.920   6.714  14.234 -0.6226 -0.7776 -0.6340
12574TIP3   OH259136   1.016   1.141  15.819  0.0609 -0.4615  0.0096
12574TIP3    H159137   1.009   1.175  15.908  1.7385 -1.1058  0.4192
12574TIP3    H259138   0.972   1.057  15.821 -0.0998 -0.3731  0.1723
12575TIP3   OH259139   4.289   1.299  15.644  0.4431  0.3464 -0.1588
12575TIP3    H159140   4.278   1.207  15.620 -0.7916  0.9578 -2.1567
12575TIP3    H259141   4.231   1.311  15.719  0.9559 -0.5881  0.4067
12576TIP3   OH259142   5.146   2.727   2.951 -0.1378  0.1198 -0.6166
12576TIP3    H159143   5.124   2.679   2.871 -1.5240  0.4670 -0.4835
12576TIP3    H259144   5.226   2.775   2.929  0.0843 -0.6006 -1.4395
12577TIP3   OH259145   3.822   3.841  11.969  0.1802 -0.0647  0.1892
12577TIP3    H159146   3.788   3.756  11.995 -2.6113  1.2116  1.1242
12577TIP3    H259147   3.895   3.821  11.911 -0.0074 -3.0622  0.8206
12578TIP3   OH259148   5.862   3.809  12.931 -0.1814  0.0223 -0.2109
12578TIP3    H159149   5.887   3.814  13.023 -0.6921  0.0104 -0.0663
12578TIP3    H259150   5.925   3.864  12.886  1.0752 -1.2489 -0.0718
12579TIP3   OH259151   3.562   4.639   0.859  0.2580  0.0519 -0.4522
12579TIP3    H159152   3.508   4.627   0.781  1.8864 -0.9054 -1.5074
12579TIP3    H259153   3.587   4.550   0.884 -0.0444  0.3649  1.0446
12580TIP3   OH259154   6.541   5.489   1.300 -0.1451 -0.0634 -0.2698
12580TIP3    H159155   6.491   5.468   1.379  0.2459  1.0833  0.3027
12580TIP3    H259156   6.625   5.520   1.333 -0.4628  1.7736 -1.0628
12581TIP3   OH259157   3.092   0.837  15.709  0.2886 -0.6986 -0.8613
12581TIP3    H159158   3.170   0.781  15.706  0.7446 -0.1684  0.1798
12581TIP3    H259159   3.105   0.900  15.639  0.5532 -0.9254 -1.0179
12582TIP3   OH259160   2.084   6.605   2.888 -0.7959 -0.1955 -0.0772
12582TIP3    H159161   2.049   6.625   2.801 -1.6844 -2.0082 -0.1719
12582TIP3    H259162   2.061   6.514   2.903  0.1141 -0.1706  1.7142
12583TIP3   OH259163   6.272   6.587   3.836 -0.2556  0.4196  0.7242
12583TIP3    H159164   6.257   6.568   3.929  0.8568 -0.9644  0.6474
12583TIP3    H259165   6.199   6.544   3.791 -0.1336  0.0458  0.8771
12584TIP3   OH259166   3.525   6.322   0.849 -0.1290 -0.1122  0.6663
12584TIP3    H159167   3.507   6.282   0.934 -0.0618 -0.4674  0.5146
12584TIP3    H259168   3.513   6.416   0.864 -2.5201 -0.3262  0.4759
12585TIP3   OH259169   3.152   0.926   3.202  0.1475 -0.1896  0.7288
12585TIP3    H159170   3.245   0.910   3.182  0.3405  0.8985  0.6524
12585TIP3    H259171   3.106   0.850   3.167  0.8240  0.1016 -0.8768
12586TIP3   OH259172   3.188   0.159   2.017 -0.1707 -0.2346 -0.0298
12586TIP3    H159173   3.115   0.098   2.014 -0.9160  0.6476 -0.3565
12586TIP3    H259174   3.148   0.244   2.034  0.8372  0.1829  0.3674
12587TIP3   OH259175   0.924   2.674  14.714  0.3832  0.2194  1.0521
12587TIP3    H159176   1.004   2.722  14.737  1.7270 -0.3102 -2.0417
12587TIP3    H259177   0.921   2.676  14.618 -1.8177 -2.2290  0.9502
12588TIP3   OH259178   0.779   3.774   1.696 -0.4642 -0.1662  0.9620
12588TIP3    H159179   0.793   3.854   1.746 -1.0682 -0.3795  1.4844
12588TIP3    H259180   0.716   3.724   1.748 -1.3532 -0.2562 -0.1606
12589TIP3   OH259181   4.027   3.462   2.523 -0.0109 -0.5266  1.1935
12589TIP3    H159182   4.089   3.417   2.581  0.1413  1.5948  2.8356
12589TIP3    H259183   3.964   3.503   2.582 -0.6419  0.6506 -0.2279
12590TIP3   OH259184   1.410   1.737  11.044 -0.9877  0.0960 -0.0090
12590TIP3    H159185   1.389   1.644  11.054 -0.0583 -0.1964 -0.6787
12590TIP3    H259186   1.505   1.741  11.053 -0.8518  0.7724 -1.4417
12591TIP3   OH259187   5.385   2.359  12.279  0.8641 -0.0750 -0.7817
12591TIP3    H159188   5.410   2.283  12.226  1.6013 -0.7012  0.4107
12591TIP3    H259189   5.468   2.402  12.300  0.5367  0.4709 -0.5799
12592TIP3   OH259190   3.140   1.333   1.701 -0.0629 -0.8372  0.3150
12592TIP3    H159191   3.063   1.333   1.643  1.0025  0.2085 -1.1742
12592TIP3    H259192   3.129   1.411   1.754  0.5900  0.0371 -0.8042
12593TIP3   OH259193   4.255   6.464  15.047 -0.3217  0.0539 -0.0303
12593TIP3    H159194   4.327   6.401  15.037  0.3056  0.8883 -0.9602
12593TIP3    H259195   4.259   6.518  14.968  0.4598  2.5596  1.5907
12594TIP3   OH259196   1.412   5.570  12.102  0.0070  0.4748 -0.4868
12594TIP3    H159197   1.412   5.503  12.171  1.1498 -0.6844 -1.5587
12594TIP3    H259198   1.500   5.608  12.106 -0.7182  2.1829  0.3080
12595TIP3   OH259199   0.579   2.718  11.548 -0.3025 -0.4994  0.6249
12595TIP3    H159200   0.650   2.765  11.505 -3.2919  1.4662 -2.8368
12595TIP3    H259201   0.556   2.773  11.623 -0.1829  0.6010 -0.1191
12596TIP3   OH259202   6.086   0.158  11.479  0.3732  0.0203 -0.2176
12596TIP3    H159203   6.075   0.231  11.418  2.0996  2.3155  2.0126
12596TIP3    H259204   6.173   0.123  11.459 -0.6573 -1.8982 -1.6339
12597TIP3   OH259205   5.510   5.049   2.819  0.5626 -0.0020  0.5302
12597TIP3    H159206   5.489   5.111   2.888  0.0798  1.2194 -0.6748
12597TIP3    H259207   5.429   5.000   2.805  0.2101  0.7539 -0.1512
12598TIP3   OH259208   5.892   4.769  14.023 -0.1555  0.0203  0.5206
12598TIP3    H159209   5.829   4.787  14.093  0.7265  3.3635  0.6047
12598TIP3    H259210   5.973   4.747  14.069 -0.6570 -2.2296  0.4254
12599TIP3   OH259211   2.241   0.599   2.435 -0.0813  0.2015  0.1347
12599TIP3    H159212   2.258   0.639   2.521  2.0252 -3.0816  1.4336
12599TIP3    H259213   2.319   0.619   2.383 -0.0029 -0.3097  0.0492
12600TIP3   OH259214   5.958   1.309   5.406  0.0033 -0.8589  0.0656
12600TIP3    H159215   5.965   1.391   5.357  1.5851 -1.1862 -0.3052
12600TIP3    H259216   6.042   1.265   5.391  0.1963 -1.3780  2.3821
12601TIP3   OH259217   4.771   0.497  16.397 -0.0662  0.2086  0.2435
12601TIP3    H159218   4.854   0.536  16.425 -0.0796 -0.5415  1.3725
12601TIP3    H259219   4.707   0.526  16.462 -0.5841  0.3076 -0.2962
12602TIP3   OH259220   3.375   4.489  13.038  0.0331  0.1514 -0.4267
12602TIP3    H159221   3.387   4.410  12.985 -0.3142  0.8739 -1.6246
12602TIP3    H259222   3.281   4.505  13.034 -0.0546 -0.0170  0.7855
12603TIP3   OH259223   5.544   5.431  16.156 -0.0005 -0.5589 -0.4531
12603TIP3    H159224   5.574   5.343  16.181 -2.5477 -0.8057  2.3945
12603TIP3    H259225   5.528   5.475  16.239 -0.5736  1.9867 -1.8093
12604TIP3   OH259226   2.523   6.425  14.893  0.1880  0.1243  0.3510
12604TIP3    H159227   2.457   6.360  14.914  0.8502 -1.0362 -1.0311
12604TIP3    H259228   2.505   6.450  14.802  1.2356  0.2789  0.1708
12605TIP3   OH259229   2.411   3.929  10.758 -0.0511  0.2585 -0.0683
12605TIP3    H159230   2.459   3.892  10.683  0.9808  0.8194  0.2938
12605TIP3    H259231   2.414   4.023  10.743  0.1752  0.3724  0.6889
12606TIP3   OH259232   4.616   5.247   1.356  0.4354  0.1466 -0.1377
12606TIP3    H159233   4.521   5.235   1.357  0.3518  0.7598 -0.2455
12606TIP3    H259234   4.641   5.247   1.449  0.4130 -0.5929 -0.1255
12607TIP3   OH259235   2.252   4.462   4.032  0.0148 -0.7755  0.1945
12607TIP3    H159236   2.308   4.537   4.010  0.2535 -0.5566  1.4516
12607TIP3    H259237   2.170   4.502   4.061 -0.0905 -1.0220  0.2381
12608TIP3   OH259238   1.676   2.737  11.471  0.2636 -0.2658 -0.1097
12608TIP3    H159239   1.640   2.649  11.461 -0.0593 -0.5283  2.6858
12608TIP3    H259240   1.625   2.776  11.541  1.4986  1.5706 -0.1575
12609TIP3   OH259241   4.197   0.888  15.957 -0.1003 -0.0303 -0.4697
12609TIP3    H159242   4.205   0.867  16.050  1.4263  2.5164  0.0828
12609TIP3    H259243   4.266   0.953  15.941 -1.1043  0.5200 -3.1076
12610TIP3   OH259244   5.124   3.116  12.968  0.0901 -0.4168 -1.1130
12610TIP3    H159245   5.030   3.130  12.979  0.1220 -0.6331 -0.4868
12610TIP3    H259246   5.164   3.169  13.037  0.4211 -0.4071 -1.3114
12611TIP3   OH259247   6.237   1.978   2.885  0.1168  0.4177  0.1867
12611TIP3    H159248   6.295   2.021   2.822 -0.3310 -1.1174 -1.3808
12611TIP3    H259249   6.183   1.919   2.831 -1.7489  0.5521  1.7752
12612TIP3   OH259250   4.975   5.147   0.040 -0.1649  0.0177  0.0531
12612TIP3    H159251   4.985   5.139   0.134 -0.2508 -0.3582  0.0306
12612TIP3    H259252   4.881   5.157   0.027 -0.1264  0.3706  0.0271
12613TIP3   OH259253   5.012   3.142   0.257  0.1446  0.3084  0.3632
12613TIP3    H159254   5.010   3.234   0.281 -0.1847  0.3858  0.0609
12613TIP3    H259255   4.924   3.110   0.276  0.5843 -0.2373  1.5580
12614TIP3   OH259256   0.414   2.768   4.977  0.3931  1.2331 -0.5659
12614TIP3    H159257   0.394   2.700   4.913 -1.9385  1.2573  0.0211
12614TIP3    H259258   0.355   2.840   4.954 -0.3270  1.3292  1.3970
12615TIP3   OH259259   6.221   5.735   3.644 -0.1193 -0.1039  0.3919
12615TIP3    H159260   6.283   5.666   3.668 -0.7840 -0.7771  0.2405
12615TIP3    H259261   6.247   5.761   3.556 -0.2230 -0.5991  0.2083
12616TIP3   OH259262   5.133   4.263   1.601  0.4487  0.7620 -0.2605
12616TIP3    H159263   5.141   4.213   1.519  1.5711 -0.2997  0.4682
12616TIP3    H259264   5.076   4.210   1.656  0.7355  0.8440  0.1165
12617TIP3   OH259265   1.886   4.652  13.802 -0.7234  0.1038  0.2941
12617TIP3    H159266   1.912   4.741  13.829  1.3681 -1.0180  2.3783
12617TIP3    H259267   1.842   4.664  13.718  1.9471  2.8477 -0.8827
12618TIP3   OH259268   5.962   0.663  12.800 -0.3543  0.3033  0.0983
12618TIP3    H159269   6.008   0.625  12.726  0.3709  0.5491  0.4154
12618TIP3    H259270   6.009   0.744  12.818 -1.3882  0.9627 -0.0632
12619TIP3   OH259271   5.513   0.205   6.355  0.0892 -0.2395 -0.1621
12619TIP3    H159272   5.496   0.141   6.286 -1.2324  0.5842 -0.6317
12619TIP3    H259273   5.427   0.239   6.378  0.7271  1.0985  0.3436
12620TIP3   OH259274   1.788   3.088   5.037 -0.0346  0.0624  0.1424
12620TIP3    H159275   1.783   3.042   5.121  0.2128  1.1740  0.7839
12620TIP3    H259276   1.698   3.093   5.007 -0.2120  0.3675  0.7309
12621TIP3   OH259277   4.481   5.500   3.096  0.0922  0.1632 -0.4811
12621TIP3    H159278   4.421   5.503   3.022 -1.3558 -3.5238  0.3250
12621TIP3    H259279   4.560   5.458   3.062  0.1636  0.2102 -0.3755
12622TIP3   OH259280   2.177   2.009   0.161  0.2092  0.3424  0.3061
12622TIP3    H159281   2.196   1.957   0.083 -2.9060  0.0778 -0.4160
12622TIP3    H259282   2.263   2.032   0.197  1.7329 -2.8685 -0.9434
12623TIP3   OH259283   5.950   0.126   0.854  1.1635  0.2305 -0.4522
12623TIP3    H159284   6.014   0.170   0.798  0.3449  1.4008 -0.4852
12623TIP3    H259285   5.879   0.102   0.795  0.4242  1.2170  0.0124
12624TIP3   OH259286   1.234   2.357  13.661 -0.0490 -0.2484 -0.1778
12624TIP3    H159287   1.322   2.320  13.665  0.5618  1.2293  1.1347
12624TIP3    H259288   1.236   2.416  13.586  0.7679  1.2940  0.9872
12625TIP3   OH259289   3.534   4.028  14.378 -0.3889  0.0785  0.2762
12625TIP3    H159290   3.606   3.995  14.325  1.0930 -0.8595  2.7366
12625TIP3    H259291   3.458   4.023  14.320  1.1234 -0.8131 -1.7583
12626TIP3   OH259292   6.371   4.366  13.386  0.1639  0.2491 -0.1445
12626TIP3    H159293   6.366   4.369  13.481 -1.9535  0.5870 -0.2260
12626TIP3    H259294   6.456   4.325  13.368 -0.1036 -1.3856  1.8963
12627TIP3   OH259295   3.675   1.025   2.200  0.0274  0.3445 -0.1143
12627TIP3    H159296   3.696   0.951   2.257 -2.1465  0.4887  0.9567
12627TIP3    H259297   3.749   1.086   2.211  1.4102 -1.2181 -0.3235
12628TIP3   OH259298   6.632   4.699   6.157 -0.2027 -0.1145  0.5481
12628TIP3    H159299   6.701   4.725   6.096 -1.1887  1.0419 -0.1101
12628TIP3    H259300   6.578   4.638   6.106 -0.2557 -0.2050  0.7136
12629TIP3   OH259301   1.579   6.443  15.911  0.2850 -0.6874 -0.2580
12629TIP3    H159302   1.525   6.519  15.887  1.2972 -0.6502 -2.6582
12629TIP3    H259303   1.521   6.368  15.897 -0.7741 -0.4632  2.2770
12630TIP3   OH259304   0.615   1.556   2.272 -0.0764  0.1051  0.0321
12630TIP3    H159305   0.545   1.587   2.329 -0.2358 -0.7302  0.3041
12630TIP3    H259306   0.630   1.629   2.211  1.1472  1.6340  2.0403
12631TIP3   OH259307   1.293   0.111  16.269  0.0069  0.1947 -0.4570
12631TIP3    H159308   1.240   0.083  16.194  0.9767 -0.0582 -1.0694
12631TIP3    H259309   1.254   0.194  16.296 -1.2454 -0.4261 -0.3224
12632TIP3   OH259310   4.687   0.802  11.125 -0.0174 -0.2296 -0.3780
12632TIP3    H159311   4.595   0.818  11.103  0.2128  0.9022 -0.5306
12632TIP3    H259312   4.726   0.771  11.044  0.3450  1.9362 -1.0930
12633TIP3   OH259313   1.861   0.012   3.080 -0.1010 -0.6589 -0.3452
12633TIP3    H159314   1.892   0.023   2.991 -1.7557 -1.5874 -1.0801
12633TIP3    H259315   1.905  -0.067   3.112  0.5689 -0.2691 -0.2916
12634TIP3   OH259316   3.102   3.215   2.459 -0.3981  0.4003 -0.2903
12634TIP3    H159317   3.033   3.157   2.428 -1.5126  1.3414  0.3562
12634TIP3    H259318   3.165   3.218   2.387 -3.5196  3.6540 -3.3070
12635TIP3   OH259319   1.352   2.664  14.757 -0.0723 -0.7978  0.1796
12635TIP3    H159320   1.313   2.750  14.774  0.1622 -1.1092  2.8685
12635TIP3    H259321   1.408   2.677  14.681  1.5576  2.0160  1.6791
12636TIP3   OH259322   2.470   0.945  16.249  0.1277 -0.2881  0.5231
12636TIP3    H159323   2.437   0.935  16.159  1.1839  0.6239  0.0108
12636TIP3    H259324   2.393   0.965  16.301 -0.0130  4.0744 -0.9840
12637TIP3   OH259325   5.373   2.441   2.076 -0.3010 -0.1440 -0.2166
12637TIP3    H159326   5.411   2.489   2.003 -0.7465  0.9110  0.2218
12637TIP3    H259327   5.332   2.364   2.036 -0.9149  0.6335 -1.1327
12638TIP3   OH259328   2.831   3.678  14.886 -0.2604 -0.1731  0.2227
12638TIP3    H159329   2.754   3.622  14.889 -1.8945  1.7722 -1.6551
12638TIP3    H259330   2.905   3.618  14.879 -1.8699 -2.0997 -1.4538
12639TIP3   OH259331   0.872   3.424  11.200 -0.1743  0.0423  1.1023
12639TIP3    H159332   0.787   3.383  11.182 -0.1485  0.1152  0.7936
12639TIP3    H259333   0.927   3.398  11.126 -0.2815  0.9526  0.6732
12640TIP3   OH259334   4.654   5.079   4.163  0.2313 -0.3499 -0.1592
12640TIP3    H159335   4.634   5.146   4.228  1.0436  1.5307 -1.7433
12640TIP3    H259336   4.726   5.028   4.201  0.2571  0.2842  0.6699
12641TIP3   OH259337   0.621   1.155   4.650 -0.2420 -0.1532  0.7773
12641TIP3    H159338   0.627   1.184   4.559 -0.8643  1.4006  1.1837
12641TIP3    H259339   0.705   1.179   4.689  0.4661 -1.8500  0.3759
12642TIP3   OH259340   5.716   3.194   3.028 -0.6881  0.2239  0.0124
12642TIP3    H159341   5.767   3.232   3.100 -1.0459  2.1261 -0.6627
12642TIP3    H259342   5.730   3.255   2.955 -0.3158 -1.6636 -1.5561
12643TIP3   OH259343   1.129   6.071   2.580 -0.1188  0.1790 -0.4135
12643TIP3    H159344   1.103   6.075   2.488 -0.2526  0.1528 -0.3766
12643TIP3    H259345   1.180   5.991   2.588 -0.6606 -0.1629 -0.3222
12644TIP3   OH259346   1.854   1.589  15.012  0.1533 -0.8463 -0.1004
12644TIP3    H159347   1.908   1.511  14.998  1.3473 -0.0440 -0.0443
12644TIP3    H259348   1.910   1.650  15.060 -0.6555  0.1776 -0.4109
12645TIP3   OH259349   1.782   3.461  16.616 -0.2834  0.7771  0.3207
12645TIP3    H159350   1.719   3.517  16.569 -0.4028  0.2411 -0.1609
12645TIP3    H259351   1.848   3.522  16.648  0.4018  1.0448 -1.5001
12646TIP3   OH259352   0.177   2.053   0.579  0.6021 -0.0106  0.0584
12646TIP3    H159353   0.189   2.092   0.666  2.7803 -1.1578  0.3176
12646TIP3    H259354   0.260   2.010   0.560 -0.7891 -2.2542 -1.3616
12647TIP3   OH259355   3.420   4.999   4.195 -0.9230 -0.1659 -0.2495
12647TIP3    H159356   3.349   4.937   4.216  0.1605 -0.9812  1.1653
12647TIP3    H259357   3.407   5.019   4.102 -2.1277 -1.4519 -0.3927
12648TIP3   OH259358   4.294   0.026   0.361 -0.0045 -0.2420 -0.0886
12648TIP3    H159359   4.198   0.029   0.362 -0.0320 -0.8565 -0.3530
12648TIP3    H259360   4.317   0.043   0.270  0.0347 -2.3100 -0.5049
12649TIP3   OH259361   4.902   1.416  14.746 -0.3757  0.4742 -0.1872
12649TIP3    H159362   4.812   1.427  14.716 -0.4447  0.5351  0.0425
12649TIP3    H259363   4.895   1.399  14.839 -0.1120  1.2321 -0.0167
12650TIP3   OH259364   6.480   3.680  17.272  0.3248  0.0688  0.5359
12650TIP3    H159365   6.456   3.707  17.360  1.5608  0.3109  0.8131
12650TIP3    H259366   6.541   3.746  17.242 -0.8270  0.5440 -0.9066
12651TIP3   OH259367   0.612   4.313  13.348 -0.3448 -0.0911  0.4119
12651TIP3    H159368   0.607   4.268  13.263  0.9818 -0.0472  0.2939
12651TIP3    H259369   0.677   4.263  13.397 -0.6259  0.2788  1.1701
12652TIP3   OH259370   4.573   6.007   5.815  0.6772  0.1944 -0.4779
12652TIP3    H159371   4.508   6.057   5.765  0.7667  1.7469  0.8914
12652TIP3    H259372   4.599   5.936   5.755 -2.2785 -0.5299 -1.0719
12653TIP3   OH259373   3.999   0.195  14.230  0.3880  0.0268 -0.5438
12653TIP3    H159374   3.933   0.264  14.233  0.9787  0.6804 -1.7076
12653TIP3    H259375   4.073   0.235  14.186  1.2657 -0.9430  0.0163
12654TIP3   OH259376   5.981   1.271   1.922  0.0762  0.3783  0.1719
12654TIP3    H159377   5.972   1.299   1.830 -0.0424  0.4214  0.1969
12654TIP3    H259378   6.056   1.320   1.954 -0.1431  0.6864  0.2210
12655TIP3   OH259379   3.483   1.399  12.541  0.1031 -0.5330 -0.0128
12655TIP3    H159380   3.536   1.456  12.597 -0.8566 -1.0299  1.4634
12655TIP3    H259381   3.478   1.445  12.458  2.4704 -0.2688 -0.0768
12656TIP3   OH259382   2.850   2.264   0.468 -0.0507 -0.3599 -0.1048
12656TIP3    H159383   2.929   2.308   0.499  0.7021 -0.3229 -1.9311
12656TIP3    H259384   2.832   2.305   0.383 -1.9806 -0.4595  0.2154
12657TIP3   OH259385   1.747   4.553  16.906  0.5434 -0.1033  0.1432
12657TIP3    H159386   1.821   4.546  16.967 -0.3196 -1.1192  1.1261
12657TIP3    H259387   1.669   4.542  16.962 -0.2937 -0.4949 -1.0655
12658TIP3   OH259388   4.667   3.124   5.117  0.3866  0.0417  0.3520
12658TIP3    H159389   4.652   3.094   5.206 -2.3135  3.4639  1.2667
12658TIP3    H259390   4.700   3.214   5.127 -1.1325  0.9588 -2.0123
12659TIP3   OH259391   6.384   3.940   1.305  0.1235 -0.4229  0.5757
12659TIP3    H159392   6.358   3.920   1.395  0.0053 -0.9975  0.4183
12659TIP3    H259393   6.479   3.934   1.306  0.1521  0.0332  0.7687
12660TIP3   OH259394   3.827   5.623  13.299  0.1694 -0.9636  0.0567
12660TIP3    H159395   3.909   5.640  13.347  0.6437  0.0079 -1.0395
12660TIP3    H259396   3.853   5.569  13.225  0.0191  0.0995 -0.8119
12661TIP3   OH259397   3.058   1.963  13.010 -0.2418 -0.7353 -0.2598
12661TIP3    H159398   2.965   1.957  13.033 -0.2987 -3.7645 -0.8599
12661TIP3    H259399   3.066   1.911  12.930  2.0304 -0.9701  0.0553
12662TIP3   OH259400   5.918   4.505  13.612 -0.2944 -0.4317  0.3830
12662TIP3    H159401   5.951   4.506  13.522 -2.1303  0.6296 -0.3335
12662TIP3    H259402   5.841   4.447  13.609 -1.0091  0.4553  0.9997
12663TIP3   OH259403   2.294   4.929   0.371  0.2838  1.0022  0.5197
12663TIP3    H159404   2.281   5.008   0.423 -0.2197  1.1507  0.1743
12663TIP3    H259405   2.212   4.918   0.322 -0.1503 -0.4312  1.5037
12664TIP3   OH259406   0.218   0.144   0.613 -0.5996  0.0961  0.5870
12664TIP3    H159407   0.224   0.236   0.590 -0.7402  0.0389  0.3184
12664TIP3    H259408   0.279   0.133   0.686  0.9587 -0.0349 -0.6935
12665TIP3   OH259409   3.137   0.280  11.688  0.4359 -0.1000  0.1222
12665TIP3    H159410   3.197   0.210  11.662  0.1396 -0.0528 -0.7056
12665TIP3    H259411   3.072   0.236  11.743  0.1257 -0.5224 -0.5731
12666TIP3   OH259412   1.178   2.924   0.522 -0.5260  0.1700  0.1901
12666TIP3    H159413   1.269   2.954   0.525  0.1543 -1.7512  0.2902
12666TIP3    H259414   1.150   2.921   0.613 -0.5551  0.3961  0.1878
12667TIP3   OH259415   0.800   6.258  15.382 -0.0169 -0.1949  0.0919
12667TIP3    H159416   0.862   6.199  15.339  0.2073  0.2734 -0.2391
12667TIP3    H259417   0.818   6.344  15.344 -0.1760  0.1333  0.7373
12668TIP3   OH259418   2.509   3.995   3.229  0.1517 -0.2057  0.1363
12668TIP3    H159419   2.600   3.968   3.237 -0.0036 -0.6781  0.3352
12668TIP3    H259420   2.510   4.089   3.249  1.0375  0.5245 -2.8633
12669TIP3   OH259421   2.742   4.129  11.171 -0.0373  0.3406 -0.2138
12669TIP3    H159422   2.788   4.136  11.087  1.3295 -0.2496  0.4477
12669TIP3    H259423   2.699   4.214  11.182  0.1525  0.5889 -1.2842
12670TIP3   OH259424   6.553   0.765  15.088  0.4450 -0.1327 -0.0178
12670TIP3    H159425   6.558   0.826  15.162  0.0083  2.2068 -1.7885
12670TIP3    H259426   6.462   0.735  15.088  0.1329  0.7793 -0.2692
12671TIP3   OH259427   6.712   4.807   2.223 -0.4778  0.3281  0.6638
12671TIP3    H159428   6.643   4.858   2.180 -1.0142 -0.4447  0.5860
12671TIP3    H259429   6.779   4.871   2.246 -1.0552  1.0351  0.3992
12672TIP3   OH259430   0.500   5.695   6.200 -0.1995 -0.4369 -0.4807
12672TIP3    H159431   0.583   5.718   6.158  0.4768 -1.0225  0.5062
12672TIP3    H259432   0.521   5.618   6.254 -1.3431 -0.4868 -0.0884
12673TIP3   OH259433   3.457   2.774  12.578  0.0769 -0.0229  0.3274
12673TIP3    H159434   3.540   2.821  12.566  0.2771 -0.5343 -0.3209
12673TIP3    H259435   3.480   2.700  12.635 -0.1572  0.4264  1.0192
12674TIP3   OH259436   1.492   0.048   0.007 -0.3552 -0.5448 -0.4132
12674TIP3    H159437   1.553   0.099   0.059 -1.4041  0.6475 -0.2882
12674TIP3    H259438   1.540  -0.031  -0.017  1.7903  1.0231 -1.6384
12675TIP3   OH259439   3.150   0.115  13.155  0.3848 -0.0493  0.1395
12675TIP3    H159440   3.222   0.178  13.155  0.0566  0.3493  0.9089
12675TIP3    H259441   3.108   0.126  13.070  0.1850  0.9674  0.3566
12676TIP3   OH259442   0.851   3.868  13.243  0.5781  0.0915  0.7791
12676TIP3    H159443   0.865   3.960  13.218 -0.8664  0.8573  2.5024
12676TIP3    H259444   0.884   3.818  13.169  0.0510  2.0490 -0.8862
12677TIP3   OH259445   2.107   1.839   4.230  0.3800  0.0897  0.0834
12677TIP3    H159446   2.062   1.835   4.146 -0.8236 -1.5005  0.7447
12677TIP3    H259447   2.194   1.802   4.212  0.3115  0.2180 -0.5494
12678TIP3   OH259448   1.601   4.797  17.309  0.0323 -0.0600 -0.0926
12678TIP3    H159449   1.638   4.882  17.285 -2.0099  0.5608 -1.3039
12678TIP3    H259450   1.638   4.736  17.246  0.1666  0.2695 -0.3358
12679TIP3   OH259451   5.152   0.131   2.589 -0.3832 -0.1387 -0.5552
12679TIP3    H159452   5.101   0.145   2.509 -1.4242 -0.9817 -0.0597
12679TIP3    H259453   5.128   0.043   2.618  1.7237 -0.7547 -0.5457
12680TIP3   OH259454   0.394   3.557   2.556  0.1400  0.2772  0.2462
12680TIP3    H159455   0.482   3.538   2.590  0.2792  2.7413  1.5009
12680TIP3    H259456   0.335   3.527   2.624  0.3255  3.1670  1.8454
12681TIP3   OH259457   5.130   3.881  11.021 -0.0115  0.2075  0.8441
12681TIP3    H159458   5.179   3.955  10.987 -0.9445  1.1635  1.5119
12681TIP3    H259459   5.049   3.879  10.970  1.0278 -1.9275 -0.8923
12682TIP3   OH259460   3.456   3.600  13.003  0.0428  0.0689  0.0056
12682TIP3    H159461   3.418   3.519  13.038 -3.1683  1.5454  0.3078
12682TIP3    H259462   3.405   3.617  12.923  2.6393  0.3331 -1.6923
12683TIP3   OH259463   0.557   5.979   1.073 -0.2139  0.1117  0.2024
12683TIP3    H159464   0.573   6.063   1.117  1.1279 -0.7953  1.5404
12683TIP3    H259465   0.462   5.977   1.061 -0.4880  1.0468  1.8009
12684TIP3   OH259466   2.457   5.394  17.077  0.1349 -0.0743 -0.0037
12684TIP3    H159467   2.424   5.388  16.987  0.1907 -0.8656  0.0263
12684TIP3    H259468   2.530   5.333  17.080 -0.0781 -0.3049  0.6730
12685TIP3   OH259469   6.710   0.301   0.673 -0.1423  0.2286  0.2637
12685TIP3    H159470   6.661   0.224   0.645 -1.8527  2.0566 -2.1703
12685TIP3    H259471   6.769   0.320   0.600  0.9460  0.7070  1.2337
12686TIP3   OH259472   6.289   0.762  15.223  0.5280  0.4157 -0.5135
12686TIP3    H159473   6.305   0.698  15.293  3.1064  0.2338 -1.1616
12686TIP3    H259474   6.274   0.708  15.145 -0.0894  0.6145 -0.5335
12687TIP3   OH259475   3.281   0.570  15.071  0.0031  0.0993 -0.2518
12687TIP3    H159476   3.356   0.621  15.042  1.2367 -1.0508  0.7921
12687TIP3    H259477   3.267   0.506  15.001  1.7569 -1.4242  0.6917
12688TIP3   OH259478   3.674   6.198   4.161 -0.2154  0.1133  0.0724
12688TIP3    H159479   3.736   6.198   4.088  0.6660 -1.6277  0.7728
12688TIP3    H259480   3.623   6.118   4.148 -0.1580 -0.1334  1.2684
12689TIP3   OH259481   2.947   1.624  11.470  0.0227  0.1059 -0.3286
12689TIP3    H159482   3.039   1.640  11.451 -0.1054  0.0775 -0.9744
12689TIP3    H259483   2.943   1.622  11.566  1.1347 -2.3497 -0.2533
12690TIP3   OH259484   4.515   2.816  14.732  0.1486 -0.1255  0.5298
12690TIP3    H159485   4.532   2.778  14.646 -0.0371  1.9641 -0.4970
12690TIP3    H259486   4.596   2.804  14.781  1.5480  1.7304 -1.1879
12691TIP3   OH259487   6.005   4.771   3.398  0.3594  0.3152  0.0620
12691TIP3    H159488   6.015   4.758   3.492  0.2174  0.2767  0.0734
12691TIP3    H259489   6.048   4.854   3.379  1.1729 -0.1129  0.0116
12692TIP3   OH259490   2.877   3.212   3.242  0.1451  0.2206  0.2462
12692TIP3    H159491   2.840   3.220   3.330 -2.7241  0.0756 -0.8227
12692TIP3    H259492   2.941   3.141   3.249 -1.0917 -0.8039  1.9218
12693TIP3   OH259493   3.458   0.737  15.300  0.3998  0.1691 -0.1300
12693TIP3    H159494   3.436   0.746  15.207 -1.1411 -0.5671  0.1363
12693TIP3    H259495   3.482   0.645  15.310 -0.5018 -0.0205  0.3951
12694TIP3   OH259496   2.950   0.037  13.325 -0.1303 -0.1926  0.0094
12694TIP3    H159497   2.872   0.056  13.274  0.1880 -1.3990 -0.9637
12694TIP3    H259498   3.022   0.075  13.275 -0.1468  2.0047  1.5027
12695TIP3   OH259499   4.244   6.723   5.420  0.2089  0.4081 -0.0845
12695TIP3    H159500   4.180   6.794   5.431 -0.2337 -0.0924  0.5735
12695TIP3    H259501   4.294   6.749   5.342 -0.4720  1.0424 -0.3226
12696TIP3   OH259502   0.020   5.422   2.240 -0.1508 -0.1916  0.1567
12696TIP3    H159503   0.084   5.408   2.310 -1.3349 -1.4435  1.0354
12696TIP3    H259504  -0.031   5.497   2.269 -0.5753 -0.6469  0.6174
12697TIP3   OH259505   2.139   5.025   4.876  0.2026  0.0033  0.0455
12697TIP3    H159506   2.151   5.081   4.800 -0.0044 -0.3239 -0.2295
12697TIP3    H259507   2.045   5.016   4.885  0.1459  1.4548  1.3870
12698TIP3   OH259508   3.933   2.796   5.976  0.1250  0.4073  0.0592
12698TIP3    H159509   4.010   2.840   6.012 -0.7191  3.2893 -1.2957
12698TIP3    H259510   3.862   2.821   6.035 -0.5701  1.9407 -1.3424
12699TIP3   OH259511   5.374   0.050   3.496 -0.7297  0.3451  0.2639
12699TIP3    H159512   5.389   0.001   3.415  2.4607 -0.1135  1.0100
12699TIP3    H259513   5.328   0.129   3.467 -0.5868 -0.2595 -1.8226
12700TIP3   OH259514   0.596   4.836  15.173  0.1731 -0.4796  0.0761
12700TIP3    H159515   0.654   4.787  15.115  0.5778  1.2036 -1.0111
12700TIP3    H259516   0.611   4.798  15.260  3.2748  0.1220 -0.0697
12701TIP3   OH259517   4.113   1.939  12.497  0.4300  0.3036 -0.1997
12701TIP3    H159518   4.127   1.975  12.584 -2.1330  0.7672  0.0912
12701TIP3    H259519   4.067   2.007  12.449  0.3462 -0.5524 -1.3982
12702TIP3   OH259520   1.719   1.167   3.328 -0.3854 -0.0495  1.1765
12702TIP3    H159521   1.805   1.134   3.353 -0.9308 -1.8698  0.7429
12702TIP3    H259522   1.735   1.221   3.250  0.2385 -1.1537  0.5255
12703TIP3   OH259523   4.651   1.348   3.576  0.4435  0.2520  0.0454
12703TIP3    H159524   4.696   1.359   3.492  0.0453  1.5812 -0.0218
12703TIP3    H259525   4.626   1.437   3.601  0.6599 -0.0973  1.6320
12704TIP3   OH259526   3.448   6.567   0.993 -0.2329  0.1962 -0.0324
12704TIP3    H159527   3.387   6.564   1.067 -1.3849 -0.9010 -0.9687
12704TIP3    H259528   3.399   6.612   0.924 -0.2186 -1.1788 -0.9761
12705TIP3   OH259529   1.168   1.512   2.720  0.0908 -0.2524 -0.3334
12705TIP3    H159530   1.114   1.483   2.794 -2.1954  0.6590 -1.5292
12705TIP3    H259531   1.131   1.467   2.644  0.1582  1.3543 -1.3813
12706TIP3   OH259532   3.338   1.874   2.912 -0.2610 -0.1260  0.3559
12706TIP3    H159533   3.344   1.790   2.958  1.4525  0.3084  1.0439
12706TIP3    H259534   3.339   1.940   2.982 -0.3078  0.4907 -0.2100
12707TIP3   OH259535   2.999   3.527   2.189 -0.3901  0.6871  0.4285
12707TIP3    H159536   2.962   3.442   2.164 -1.2610  1.8423 -2.7537
12707TIP3    H259537   3.093   3.512   2.191 -0.5446 -0.4218  0.2901
12708TIP3   OH259538   4.901   2.932   0.964  0.5833 -0.3375 -0.3855
12708TIP3    H159539   4.949   3.000   1.011  0.2997  0.4643 -1.2233
12708TIP3    H259540   4.951   2.920   0.883 -0.2576  0.0497 -0.9775
12709TIP3   OH259541   2.162   4.214  12.438 -0.7868  0.3543 -0.2852
12709TIP3    H159542   2.235   4.177  12.389 -0.3055  1.6721 -0.6040
12709TIP3    H259543   2.109   4.138  12.464  2.2216 -0.9800  2.5709
12710TIP3   OH259544   3.631   4.620   3.190 -0.0334  0.5068  0.3443
12710TIP3    H159545   3.558   4.562   3.168  0.8147 -0.7792  0.8621
12710TIP3    H259546   3.693   4.609   3.118 -0.9751  2.8153 -0.9454
12711TIP3   OH259547   2.643   4.204  11.795  0.4114 -0.7086 -0.2395
12711TIP3    H159548   2.689   4.158  11.725 -0.1952 -0.5282 -0.7697
12711TIP3    H259549   2.694   4.284  11.810  1.8717 -1.8405  1.1738
12712TIP3   OH259550   5.043   6.688   2.711 -0.0383  0.2977  0.0480
12712TIP3    H159551   5.025   6.667   2.803 -2.0262 -0.2930 -0.4171
12712TIP3    H259552   5.014   6.611   2.663 -0.4006  1.1575 -1.1715
12713TIP3   OH259553   4.470   2.899  15.269 -0.0195 -0.2370 -0.3475
12713TIP3    H159554   4.466   2.981  15.218 -0.8145  0.0352  0.1453
12713TIP3    H259555   4.393   2.902  15.325 -0.4872 -1.6919 -0.8670
12714TIP3   OH259556   0.550   4.713   2.088  0.2906  0.1540 -0.3234
12714TIP3    H159557   0.485   4.735   2.155  2.0183 -1.0686  1.9007
12714TIP3    H259558   0.578   4.624   2.110  2.0652  0.3044 -1.7247
12715TIP3   OH259559   0.127   2.741  11.741 -0.2240 -0.3156 -0.0675
12715TIP3    H159560   0.212   2.700  11.722  0.0288  0.5247 -0.7938
12715TIP3    H259561   0.148   2.815  11.798 -0.5661 -0.5282  0.3475
12716TIP3   OH259562   3.790   5.228   1.653  0.5868 -0.3578  0.2381
12716TIP3    H159563   3.835   5.297   1.702 -0.2093  0.5301 -0.2410
12716TIP3    H259564   3.859   5.188   1.600  1.2077 -0.4688  1.1077
12717TIP3   OH259565   5.288   2.076  12.427 -0.4294 -0.3931 -0.3712
12717TIP3    H159566   5.313   2.161  12.391  0.1092 -0.2228  0.3666
12717TIP3    H259567   5.278   2.019  12.351 -0.0306  0.1379 -0.8308
12718TIP3   OH259568   0.171   6.261  11.988  0.3044  0.6561  0.0997
12718TIP3    H159569   0.253   6.246  12.034  1.2138  0.4151 -1.5363
12718TIP3    H259570   0.125   6.177  11.994  0.3241  0.6821  0.7040
12719TIP3   OH259571   4.490   4.964  11.767 -0.5530 -0.2754  0.0595
12719TIP3    H159572   4.444   4.944  11.685 -1.2863  0.5968  0.2488
12719TIP3    H259573   4.557   5.028  11.742  0.5554 -1.4990 -0.2041
12720TIP3   OH259574   3.434   5.572   6.645  0.3721 -0.3382 -0.4352
12720TIP3    H159575   3.358   5.528   6.606 -0.6225  1.0580 -0.1602
12720TIP3    H259576   3.396   5.635   6.705  1.7387  0.8442 -0.7624
12721TIP3   OH259577   3.261   3.313   2.244 -0.0733  0.3133 -0.0247
12721TIP3    H159578   3.338   3.272   2.204  0.1088 -1.3204  1.8502
12721TIP3    H259579   3.297   3.384   2.296 -0.1201  1.1301 -1.0627
12722TIP3   OH259580   0.643   5.243  14.858 -0.2058 -0.1861 -0.0283
12722TIP3    H159581   0.652   5.158  14.900  1.0808  0.5739  1.3204
12722TIP3    H259582   0.724   5.289  14.878 -1.2300  1.6831  0.0370
12723TIP3   OH259583   4.377   0.119   1.632 -0.3817 -0.5482  0.0091
12723TIP3    H159584   4.469   0.143   1.647 -0.5533 -0.5168  1.0486
12723TIP3    H259585   4.355   0.162   1.549  0.3352  0.0514  0.1133
12724TIP3   OH259586   6.299   1.793   4.530  0.0055  0.1027 -1.2468
12724TIP3    H159587   6.286   1.732   4.458  0.4885 -0.3000 -0.9954
12724TIP3    H259588   6.306   1.738   4.608  0.6045  0.4666 -1.0407
12725TIP3   OH259589   2.599   0.426   0.008 -0.9663  0.2692  0.0371
12725TIP3    H159590   2.538   0.361  -0.028 -1.7594  1.0784 -0.1367
12725TIP3    H259591   2.571   0.509  -0.031 -0.0540  0.7389  0.3498
12726TIP3   OH259592   3.225   1.584  12.854 -0.2033 -0.1878  0.1582
12726TIP3    H159593   3.309   1.540  12.868  0.0942  0.4095  0.2709
12726TIP3    H259594   3.174   1.521  12.803  0.0311 -0.8757  0.7402
12727TIP3   OH259595   3.845   3.877   5.491  0.4051 -0.8326 -0.2920
12727TIP3    H159596   3.771   3.931   5.465  0.2376 -0.8026  0.2341
12727TIP3    H259597   3.895   3.933   5.551  0.0420 -1.3854  0.5324
12728TIP3   OH259598   0.451   1.103   2.414 -0.0023  0.0608  0.0688
12728TIP3    H159599   0.517   1.127   2.349 -0.7091 -0.3330 -0.8228
12728TIP3    H259600   0.501   1.068   2.488  1.1345  4.3379  1.5994
12729TIP3   OH259601   1.412   6.603   2.900 -0.0725  0.6138 -0.0598
12729TIP3    H159602   1.446   6.676   2.952 -2.3905  1.0752  0.9397
12729TIP3    H259603   1.481   6.584   2.838  2.3032  0.9061  2.3252
12730TIP3   OH259604   0.674   2.350   0.543  0.2148  0.7035 -0.0637
12730TIP3    H159605   0.641   2.433   0.508 -1.1973  0.0491 -0.3391
12730TIP3    H259606   0.745   2.376   0.602  0.7715  2.0074 -1.2462
12731TIP3   OH259607   0.161   5.427  16.697  0.1354  0.0866  0.3429
12731TIP3    H159608   0.197   5.475  16.622 -0.7218 -0.0604 -0.1753
12731TIP3    H259609   0.158   5.491  16.768  0.4505  0.3735  0.0989
12732TIP3   OH259610   3.715   2.263  14.528  0.2917  0.6346  0.3538
12732TIP3    H159611   3.698   2.351  14.562 -0.9838  0.2848  0.6735
12732TIP3    H259612   3.678   2.263  14.440  0.7528  0.5779  0.1613
12733TIP3   OH259613   4.901   2.137   4.559  0.1602  0.1049 -1.1301
12733TIP3    H159614   4.942   2.088   4.631 -2.0858  1.2865  1.1211
12733TIP3    H259615   4.940   2.224   4.566  0.5652 -0.0027 -1.9546
12734TIP3   OH259616   0.758   2.336  16.698 -0.0325  0.4021  0.6912
12734TIP3    H159617   0.769   2.412  16.640 -0.5838  0.1169  0.2003
12734TIP3    H259618   0.682   2.290  16.662 -0.5053  0.3265  1.7655
12735TIP3   OH259619   6.387   2.290  10.948 -0.2345  0.1317  0.3106
12735TIP3    H159620   6.478   2.291  10.977 -0.3426  0.6496  0.6394
12735TIP3    H259621   6.356   2.379  10.963  0.0909  0.8478 -2.6642
12736TIP3   OH259622   3.924   6.518   4.233 -0.4386  0.2929 -0.2229
12736TIP3    H159623   3.904   6.566   4.313 -1.7333 -0.7755  0.1298
12736TIP3    H259624   4.002   6.466   4.254 -0.3613  0.5373  0.1002
12737TIP3   OH259625   5.541   0.230   0.390  0.4955  0.6205 -0.1171
12737TIP3    H159626   5.616   0.287   0.412  0.7534  0.1708  0.1813
12737TIP3    H259627   5.556   0.207   0.298 -0.2369  1.9758 -0.6027
12738TIP3   OH259628   0.666   5.519  16.545  0.0080 -0.0936 -0.4142
12738TIP3    H159629   0.614   5.569  16.482 -0.3832  0.4261  0.3063
12738TIP3    H259630   0.641   5.554  16.631  0.7772 -0.5559  0.0157
12739TIP3   OH259631   4.456   5.291  17.103 -0.3086 -0.0450 -0.0486
12739TIP3    H159632   4.369   5.281  17.065 -0.2526  0.6627 -0.3910
12739TIP3    H259633   4.477   5.205  17.139 -1.0246 -0.3012 -0.2227
12740TIP3   OH259634   6.759   1.353   4.196  0.2960  0.0246 -0.6965
12740TIP3    H159635   6.722   1.273   4.233  1.1635  0.5380  1.4112
12740TIP3    H259636   6.853   1.343   4.209  0.3968  1.4404 -0.2387
12741TIP3   OH259637   5.220   1.811   0.601 -0.2755  0.1735 -0.0965
12741TIP3    H159638   5.284   1.865   0.555 -0.9274  0.8546 -0.2211
12741TIP3    H259639   5.235   1.829   0.693 -0.8218  0.9727 -0.1533
12742TIP3   OH259640   4.707   0.662   2.210 -0.0619  0.3481 -0.5509
12742TIP3    H159641   4.749   0.739   2.172  0.4374  1.0466  1.3026
12742TIP3    H259642   4.722   0.671   2.304 -2.6450 -0.4253  0.0119
12743TIP3   OH259643   6.559   0.754  11.549  0.0382  0.7945 -0.8798
12743TIP3    H159644   6.634   0.747  11.490  0.1173 -1.0641 -0.6260
12743TIP3    H259645   6.561   0.674  11.601 -3.0048 -0.1139 -1.9403
12744TIP3   OH259646   5.958   0.139  14.158  0.4814  0.5959  0.1708
12744TIP3    H159647   5.917   0.172  14.078  0.1846 -0.2893 -0.0664
12744TIP3    H259648   6.049   0.124  14.134 -0.0787 -1.8996 -0.7803
12745TIP3   OH259649   5.836   6.429   0.093 -0.4446 -0.0141  0.0313
12745TIP3    H159650   5.865   6.353   0.041  0.6034  0.1947  0.2834
12745TIP3    H259651   5.821   6.394   0.180 -2.4340 -0.4116 -0.4254
12746TIP3   OH259652   6.212   1.802   2.454  0.3325 -0.2686  0.3358
12746TIP3    H159653   6.160   1.733   2.412  1.0764  0.9364 -2.8267
12746TIP3    H259654   6.146   1.863   2.487 -0.3392 -0.2489 -0.9527
12747TIP3   OH259655   1.427   1.012  15.381 -0.4523  0.9866 -0.1459
12747TIP3    H159656   1.518   1.034  15.402  0.3786 -0.7600 -1.6172
12747TIP3    H259657   1.416   0.923  15.413 -0.2638 -0.3867 -3.4436
12748TIP3   OH259658   2.166   2.319  12.597 -0.2543 -0.7007  0.1893
12748TIP3    H159659   2.248   2.269  12.599  0.3669  0.3037  1.3486
12748TIP3    H259660   2.187   2.398  12.546 -0.2068  0.0001  1.2596
12749TIP3   OH259661   5.229   4.488  12.568 -0.3697  0.2958  0.0885
12749TIP3    H159662   5.257   4.565  12.519  0.2736  1.3505  2.0348
12749TIP3    H259663   5.190   4.522  12.648 -1.3264 -1.3822  0.3956
12750TIP3   OH259664   5.483   4.926   5.214 -0.2169 -0.3729  0.1198
12750TIP3    H159665   5.390   4.949   5.213 -0.5111 -1.4839  0.3534
12750TIP3    H259666   5.529   5.010   5.225 -1.1819  0.1934 -0.0720
12751TIP3   OH259667   2.208   2.680   3.919  0.7386  0.2768 -0.1116
12751TIP3    H159668   2.175   2.769   3.927  3.7462  1.3753  1.0605
12751TIP3    H259669   2.189   2.639   4.003  1.9363  0.7805  0.4175
12752TIP3   OH259670   1.181   3.150  13.581  0.1290 -0.7272 -0.0537
12752TIP3    H159671   1.162   3.152  13.675  0.2653  0.5187 -0.0358
12752TIP3    H259672   1.108   3.103  13.542 -1.5295  1.3993  0.3410
12753TIP3   OH259673   3.362   2.231   4.916  0.8659  0.2625 -0.1930
12753TIP3    H159674   3.326   2.283   4.988 -1.0878 -1.1887 -0.0265
12753TIP3    H259675   3.318   2.265   4.838 -1.0055 -1.5018  0.0081
12754TIP3   OH259676   3.923   0.217  14.500 -0.3401  0.1937  0.1188
12754TIP3    H159677   3.978   0.229  14.423  2.2348 -2.6521  1.3061
12754TIP3    H259678   3.848   0.166  14.468 -1.1150  1.9415 -1.0357
12755TIP3   OH259679   0.834   4.078  13.855 -0.1317 -0.0005 -0.0953
12755TIP3    H159680   0.796   4.080  13.943  0.6529 -0.4227  0.2645
12755TIP3    H259681   0.788   4.146  13.807 -0.7694  0.0384  0.5630
12756TIP3   OH259682   1.824   6.717   6.396 -0.2372  0.4622 -0.1728
12756TIP3    H159683   1.892   6.774   6.361 -0.8750  1.2921 -0.0986
12756TIP3    H259684   1.767   6.698   6.321 -0.0116 -0.1158 -0.2046
12757TIP3   OH259685   5.631   4.196  13.975  0.6009 -1.0323 -0.1923
12757TIP3    H159686   5.536   4.201  13.965  0.6274 -1.8442 -0.9428
12757TIP3    H259687   5.664   4.277  13.935  0.2702 -1.1050 -0.6205
12758TIP3   OH259688   2.526   4.571  15.961  0.4725 -0.0740  0.2604
12758TIP3    H159689   2.473   4.592  16.038 -1.8082  0.5495 -1.3831
12758TIP3    H259690   2.528   4.475  15.959 -0.2835 -0.0964  0.5478
12759TIP3   OH259691   0.809   3.615   1.101  0.3219  0.3234 -0.2951
12759TIP3    H159692   0.869   3.618   1.176  0.5640  0.1073 -0.4771
12759TIP3    H259693   0.853   3.557   1.038 -0.7278 -1.0213  0.1454
12760TIP3   OH259694   5.574   0.413   3.334 -0.2950 -0.1627 -0.2234
12760TIP3    H159695   5.508   0.475   3.302  0.0092  0.3378  0.1014
12760TIP3    H259696   5.644   0.416   3.269  0.3640  0.9229  0.5173
12761TIP3   OH259697   0.851   5.961   5.141  0.4559  0.5555 -0.3068
12761TIP3    H159698   0.788   5.929   5.205  0.5074 -1.9885 -1.4102
12761TIP3    H259699   0.815   5.934   5.056  1.3154  2.1525 -1.2338
12762TIP3   OH259700   0.831   3.122  16.774 -0.4622 -0.9978 -0.3398
12762TIP3    H159701   0.870   3.065  16.708  0.1630  0.8002 -1.5924
12762TIP3    H259702   0.762   3.169  16.728 -1.0417 -0.8066  0.6874
12763TIP3   OH259703   3.910   0.803   3.355 -0.1335 -0.1317  0.4292
12763TIP3    H159704   3.907   0.735   3.422  1.0869 -0.9572 -0.3257
12763TIP3    H259705   3.987   0.855   3.377 -0.4316  0.3455  0.3574
12764TIP3   OH259706   5.257   5.747  12.659  0.1226 -0.8262 -0.3581
12764TIP3    H159707   5.188   5.689  12.624 -0.2470 -0.6497  0.0763
12764TIP3    H259708   5.298   5.696  12.729 -0.3087 -0.5068  0.1326
12765TIP3   OH259709   6.043   2.197  10.842  0.7578  0.4886  0.1335
12765TIP3    H159710   6.066   2.243  10.923  1.5309  0.1617  0.1124
12765TIP3    H259711   6.057   2.262  10.773  1.8793  0.2324  0.1010
12766TIP3   OH259712   4.807   3.162   2.210  0.7498  0.1425 -0.2899
12766TIP3    H159713   4.876   3.104   2.243 -0.9427 -1.4036  0.7085
12766TIP3    H259714   4.823   3.245   2.254  0.6035 -0.8825  1.7911
12767TIP3   OH259715   4.185   5.351  14.399 -0.0455  0.3996 -0.2747
12767TIP3    H159716   4.162   5.394  14.316  0.5239  0.6709 -0.2978
12767TIP3    H259717   4.174   5.420  14.465  0.9718  0.6287 -0.3249
12768TIP3   OH259718   5.652   2.063  14.117  0.1503 -0.6513  0.0879
12768TIP3    H159719   5.581   2.035  14.060  0.2728 -0.7654 -0.0097
12768TIP3    H259720   5.610   2.120  14.182 -0.1704 -1.4241  0.5602
12769TIP3   OH259721   6.710   6.560   5.808  0.2983  0.5374  0.3206
12769TIP3    H159722   6.687   6.517   5.890  0.6881  0.8029  0.5758
12769TIP3    H259723   6.806   6.567   5.811  0.2381  1.6470  0.4129
12770TIP3   OH259724   4.149   3.210  16.825 -0.4094 -0.3962 -0.1289
12770TIP3    H159725   4.119   3.210  16.734 -0.3292 -0.5080 -0.1568
12770TIP3    H259726   4.150   3.117  16.849  1.5097 -0.5518 -0.6552
12771TIP3   OH259727   4.922   0.830  11.748 -0.1866 -0.6179  0.1394
12771TIP3    H159728   4.953   0.743  11.772 -4.6436 -2.6912 -0.4662
12771TIP3    H259729   4.853   0.849  11.812 -2.1850  0.4441 -2.1587
12772TIP3   OH259730   4.405   1.957   3.682 -0.0159 -0.1419 -0.2318
12772TIP3    H159731   4.365   1.905   3.612 -0.4936 -0.2125  0.0860
12772TIP3    H259732   4.334   1.969   3.746 -0.4380  2.3279 -1.0578
12773TIP3   OH259733   0.519   2.614   4.387  0.1980  0.5126 -0.0841
12773TIP3    H159734   0.477   2.697   4.364 -0.6692 -0.0936 -0.7631
12773TIP3    H259735   0.450   2.549   4.375  1.5890 -0.6798 -2.3540
12774TIP3   OH259736   5.927   4.661   2.526 -0.0114  0.0441  0.7842
12774TIP3    H159737   5.840   4.624   2.541  0.4167 -0.2895  2.7470
12774TIP3    H259738   5.954   4.693   2.612  2.1547 -0.6103  0.4091
12775TIP3   OH259739   4.048   1.371  16.936 -0.3374  0.0735 -0.2542
12775TIP3    H159740   4.136   1.335  16.928 -0.8505 -1.1234 -0.8521
12775TIP3    H259741   4.060   1.466  16.931  0.9871 -0.0298  0.5140
12776TIP3   OH259742   1.510   5.351  16.822  0.4094 -0.2302 -0.5795
12776TIP3    H159743   1.563   5.296  16.764 -0.2229  1.0169 -2.4277
12776TIP3    H259744   1.529   5.440  16.794 -0.1474  0.4078  0.9810
12777TIP3   OH259745   2.411   2.322  15.998  0.0172  0.1766  0.3541
12777TIP3    H159746   2.421   2.268  16.077 -1.2405  0.5110  0.7676
12777TIP3    H259747   2.317   2.341  15.994  0.0962  0.3756 -1.0978
12778TIP3   OH259748   3.538   3.253  12.786 -0.3068  0.7196 -0.1199
12778TIP3    H159749   3.613   3.237  12.844  0.4883 -0.0790 -1.3327
12778TIP3    H259750   3.567   3.222  12.701 -1.7652  1.1077 -0.7775
12779TIP3   OH259751   2.694   0.030  15.244 -0.6990 -0.2466 -0.5773
12779TIP3    H159752   2.599   0.021  15.234 -0.7603  0.8308 -1.1718
12779TIP3    H259753   2.708   0.042  15.338 -1.3710  1.5467 -0.6698
12780TIP3   OH259754   1.228   3.401   5.446 -0.5162 -0.1042  1.1661
12780TIP3    H159755   1.306   3.434   5.402  0.0362 -0.5651  1.7968
12780TIP3    H259756   1.210   3.465   5.515 -1.0489  0.3130  0.6542
12781TIP3   OH259757   3.948   4.469  11.714  0.7502 -0.6519 -0.4061
12781TIP3    H159758   3.927   4.561  11.700  0.7921 -0.5481  0.1944
12781TIP3    H259759   3.868   4.430  11.748  1.7010 -0.0192  2.9670
12782TIP3   OH259760   2.534   2.031  17.139 -0.0276  0.0613 -0.2852
12782TIP3    H159761   2.554   2.122  17.163  0.8289 -0.1291 -0.2541
12782TIP3    H259762   2.617   1.985  17.148  0.0184 -0.3224 -2.2627
12783TIP3   OH259763   2.617   5.515   0.408 -0.0444  0.8351 -0.1766
12783TIP3    H159764   2.541   5.486   0.458  0.8485 -2.1258 -0.3815
12783TIP3    H259765   2.687   5.523   0.472  0.3291  0.1010 -0.4855
12784TIP3   OH259766   4.010   5.866  11.618 -0.6117 -0.0285  0.1194
12784TIP3    H159767   3.952   5.836  11.548  0.5569 -2.6571  0.1377
12784TIP3    H259768   4.096   5.871  11.576 -0.3787  1.2250  0.7048
12785TIP3   OH259769   1.387   1.988   0.983 -0.2073  0.4626  0.6260
12785TIP3    H159770   1.335   2.068   0.974 -0.2674  0.2982 -0.6276
12785TIP3    H259771   1.476   2.015   0.962 -0.3578  0.0590 -0.6279
12786TIP3   OH259772   5.656   4.090  12.094  0.7258 -0.3340  0.0769
12786TIP3    H159773   5.698   4.175  12.106 -2.7550  1.7954 -1.2247
12786TIP3    H259774   5.599   4.081  12.170  0.6090 -1.1874 -0.1100
12787TIP3   OH259775   5.409   0.501   4.578  0.5032 -0.4552  0.3919
12787TIP3    H159776   5.382   0.410   4.588  0.5169 -0.5322 -0.2428
12787TIP3    H259777   5.403   0.518   4.485 -1.5724  0.8576  0.7109
12788TIP3   OH259778   5.793   5.685  12.462  0.5583 -0.1218  0.1483
12788TIP3    H159779   5.793   5.603  12.411  0.3956 -0.5964  0.8951
12788TIP3    H259780   5.754   5.749  12.403 -2.2116 -1.2743  0.5710
12789TIP3   OH259781   4.434   2.019   0.337 -0.2249  0.1656 -0.4426
12789TIP3    H159782   4.405   2.107   0.360 -0.5987 -0.0769  0.0272
12789TIP3    H259783   4.498   1.997   0.405 -0.2164  0.0271 -0.4961
12790TIP3   OH259784   0.879   3.624   3.236  0.2857 -0.3860  0.5491
12790TIP3    H159785   0.852   3.538   3.203  1.7823 -1.4649  2.0251
12790TIP3    H259786   0.884   3.678   3.157 -0.4433 -1.6959 -0.4516
12791TIP3   OH259787   0.030   6.170  13.677  0.4973  0.0203 -0.4540
12791TIP3    H159788   0.056   6.199  13.765 -1.5260 -1.6534  0.8020
12791TIP3    H259789  -0.050   6.220  13.659  0.9825  0.4592 -1.4264
12792TIP3   OH259790   2.767   2.631  14.819 -0.0532  0.5629  0.5541
12792TIP3    H159791   2.710   2.667  14.888  1.8319  1.1869  1.8716
12792TIP3    H259792   2.744   2.681  14.741 -1.4692  0.6356  0.9899
12793TIP3   OH259793   4.876   6.355  14.879  0.2686  0.2691  0.5666
12793TIP3    H159794   4.930   6.278  14.898 -1.5910 -1.0705  0.7755
12793TIP3    H259795   4.903   6.382  14.791  0.9087 -0.6986  0.4476
12794TIP3   OH259796   0.283   5.868   6.294 -0.0939  0.1626 -0.0691
12794TIP3    H159797   0.318   5.948   6.256 -0.6968 -0.3429 -1.7634
12794TIP3    H259798   0.340   5.799   6.260 -1.2702 -0.4112 -0.9501
12795TIP3   OH259799   5.289   3.126   4.579  0.4404  0.0689  0.2721
12795TIP3    H159800   5.268   3.218   4.596  0.7834  0.2609 -0.2977
12795TIP3    H259801   5.219   3.095   4.522 -0.3530 -0.3859  1.4707
12796TIP3   OH259802   1.903   3.890   4.389 -0.1089  0.4331 -0.4088
12796TIP3    H159803   1.808   3.891   4.390 -0.1429 -0.6222 -1.3422
12796TIP3    H259804   1.928   3.982   4.385 -1.1540  0.6943 -2.8959
12797TIP3   OH259805   3.016   1.640   1.553 -0.3075  0.2543  0.5418
12797TIP3    H159806   3.091   1.694   1.531 -0.2158 -0.3472 -0.7826
12797TIP3    H259807   3.028   1.616   1.645  1.0521  0.2714  0.3793
12798TIP3   OH259808   3.623   2.025  12.155  0.6381 -0.2864 -0.1853
12798TIP3    H159809   3.578   2.107  12.176  0.2697 -0.1841 -1.3485
12798TIP3    H259810   3.670   2.003  12.236 -0.3125  0.3743  0.5820
12799TIP3   OH259811   6.569   5.849  13.571  0.2574 -0.0223  0.2672
12799TIP3    H159812   6.501   5.824  13.508  0.1671 -0.5195  0.5600
12799TIP3    H259813   6.620   5.916  13.525  0.1209 -0.2957 -0.2951
12800TIP3   OH259814   1.670   5.508   4.108 -0.9319 -0.1564  0.0351
12800TIP3    H159815   1.656   5.524   4.202 -1.6344 -0.5807  0.0091
12800TIP3    H259816   1.605   5.563   4.065  0.1855  0.9862 -0.2763
12801TIP3   OH259817   2.894   4.630  13.830  1.1383 -0.3091  0.4919
12801TIP3    H159818   2.961   4.562  13.825  0.6444 -0.7263 -0.8125
12801TIP3    H259819   2.925   4.699  13.773 -0.1193 -1.0679 -1.2027
12802TIP3   OH259820   3.052   0.402   6.331 -0.2985  0.8074 -0.1659
12802TIP3    H159821   3.116   0.352   6.280 -0.5310 -0.5526  0.8178
12802TIP3    H259822   3.105   0.455   6.390 -0.0245 -0.2939  0.6269
12803TIP3   OH259823   6.203   1.482   5.175  0.0244  0.1895 -0.2676
12803TIP3    H159824   6.110   1.494   5.196  0.0607  1.3162 -0.6653
12803TIP3    H259825   6.238   1.431   5.248 -0.3709  1.9309  1.2242
12804TIP3   OH259826   2.104   1.368   3.341 -0.8786 -0.0592  0.0020
12804TIP3    H159827   2.113   1.436   3.408  0.4742  0.3490 -0.5519
12804TIP3    H259828   2.194   1.338   3.326 -1.2491 -0.6671 -1.0928
12805TIP3   OH259829   1.927   1.699   0.087 -0.3111  0.4693 -0.1245
12805TIP3    H159830   2.022   1.697   0.104 -0.4611  0.4261  0.7614
12805TIP3    H259831   1.892   1.628   0.141 -0.6496 -0.7493 -1.8509
12806TIP3   OH259832   2.219   5.135   2.466  0.0494  0.2729  0.2779
12806TIP3    H159833   2.133   5.109   2.434 -0.0428  1.8451 -0.8683
12806TIP3    H259834   2.271   5.055   2.463 -0.2646  0.0895 -2.8895
12807TIP3   OH259835   1.496   6.753   5.121 -0.2246  0.0735  0.7443
12807TIP3    H159836   1.532   6.832   5.160 -0.1840  0.6572 -0.4422
12807TIP3    H259837   1.423   6.783   5.067 -0.4094 -0.7349  0.5227
12808TIP3   OH259838   1.542   0.044  15.652  0.2332 -0.0919 -0.1421
12808TIP3    H159839   1.535  -0.049  15.674  0.9450 -0.0326  0.3528
12808TIP3    H259840   1.557   0.046  15.557  0.2781 -0.4769 -0.1411
12809TIP3   OH259841   5.800   2.141   5.636 -0.4778 -0.1674  0.5015
12809TIP3    H159842   5.871   2.115   5.696 -0.6000  1.8159  1.6137
12809TIP3    H259843   5.735   2.072   5.644  0.9796 -1.6549  0.0331
12810TIP3   OH259844   0.885   6.541   1.366 -0.0183  0.0762  0.0947
12810TIP3    H159845   0.793   6.517   1.357 -0.3731  0.5851  2.0069
12810TIP3    H259846   0.884   6.636   1.376  0.7022  0.0518  0.4374
12811TIP3   OH259847   4.700   3.884   4.156 -0.3950  0.2528  0.0627
12811TIP3    H159848   4.766   3.938   4.199  1.7644 -1.0736 -1.3793
12811TIP3    H259849   4.658   3.837   4.227  1.2772  0.0119  0.9515
12812TIP3   OH259850   6.216   5.986  13.077  0.2832 -0.6389 -0.4326
12812TIP3    H159851   6.143   6.036  13.042 -0.1060 -0.8692  0.0314
12812TIP3    H259852   6.287   6.050  13.084 -0.0303 -0.2880 -0.3968
12813TIP3   OH259853   4.950   2.332   2.505 -0.0360 -0.5931 -0.0272
12813TIP3    H159854   4.885   2.293   2.445  0.6053 -1.9466  0.1182
12813TIP3    H259855   4.984   2.258   2.555  1.3289  0.1482  0.1975
12814TIP3   OH259856   3.669   1.010   1.556 -0.0981  0.0013 -0.4599
12814TIP3    H159857   3.592   1.068   1.558 -1.4148 -1.6770 -0.6358
12814TIP3    H259858   3.674   0.975   1.645 -0.0091 -0.4935 -0.6604
12815TIP3   OH259859   3.491   5.917   6.824  0.1438 -0.3674  0.2577
12815TIP3    H159860   3.407   5.959   6.805  0.6068 -0.0620 -1.2268
12815TIP3    H259861   3.474   5.823   6.814  0.0036 -0.3022 -0.1221
12816TIP3   OH259862   3.808   0.528   2.678 -0.2753 -0.3974  0.1918
12816TIP3    H159863   3.768   0.592   2.737 -1.3287 -0.0745 -0.8264
12816TIP3    H259864   3.885   0.574   2.643 -0.4111 -0.0876  0.2908
12817TIP3   OH259865   5.351   0.079   0.837  0.0334 -0.3591  0.2212
12817TIP3    H159866   5.411   0.078   0.761 -0.7295 -1.4567 -0.3982
12817TIP3    H259867   5.391   0.141   0.898  1.1717 -0.1598 -0.6824
12818TIP3   OH259868   0.392   5.463  15.746  0.3647 -0.3130  0.2729
12818TIP3    H159869   0.460   5.483  15.811  0.5302 -0.6769  0.2209
12818TIP3    H259870   0.441   5.441  15.666  0.2667 -1.9720  0.6177
12819TIP3   OH259871   0.860   6.420   4.560 -0.1941 -0.3305 -0.0901
12819TIP3    H159872   0.840   6.457   4.474 -1.3121  1.2582  0.8036
12819TIP3    H259873   0.797   6.461   4.619  0.0777 -1.9274  1.3940
12820TIP3   OH259874   5.827   0.894  16.958 -0.5511  0.1120 -0.0335
12820TIP3    H159875   5.814   0.933  17.045  0.3353 -0.2465  0.2689
12820TIP3    H259876   5.845   0.968  16.901  0.8716  0.1824  0.4874
12821TIP3   OH259877   6.529   1.925   0.824 -0.0043  0.5074  0.0842
12821TIP3    H159878   6.522   1.840   0.781 -1.4508  0.3519  0.5748
12821TIP3    H259879   6.601   1.969   0.778 -0.0776 -0.4775 -1.0306
12822TIP3   OH259880   1.894   0.028   0.112 -0.3624 -0.1319  0.0405
12822TIP3    H159881   1.945   0.046   0.192 -0.5594  2.4728 -0.3177
12822TIP3    H259882   1.959   0.027   0.042 -0.4480  0.0534 -0.0426
12823TIP3   OH259883   4.255   1.946   1.773  0.3247  0.2568  0.2989
12823TIP3    H159884   4.173   1.922   1.729  0.0378 -3.1771  2.3102
12823TIP3    H259885   4.322   1.896   1.727  0.5794 -0.4074  1.3639
12824TIP3   OH259886   4.745   4.646  14.068 -0.0422  0.2872  0.3075
12824TIP3    H159887   4.691   4.620  14.143 -1.4917  0.8291 -0.5139
12824TIP3    H259888   4.804   4.572  14.055 -0.0418  0.0003  1.7051
12825TIP3   OH259889   3.344   4.693  14.514  0.3668  0.6331 -0.0823
12825TIP3    H159890   3.255   4.705  14.481 -0.1255  1.8101  1.5442
12825TIP3    H259891   3.342   4.729  14.603  1.7118 -1.9618  1.1076
12826TIP3   OH259892   0.014   5.419  16.095  0.0426  0.6025 -0.4862
12826TIP3    H159893   0.056   5.502  16.073  2.1409 -0.2104  0.1253
12826TIP3    H259894  -0.047   5.403  16.023 -0.9160  2.9442 -0.2849
12827TIP3   OH259895   0.122   2.832   3.862 -0.2754  0.5806 -0.0094
12827TIP3    H159896   0.175   2.908   3.889  1.3579 -0.3856 -0.3620
12827TIP3    H259897   0.068   2.866   3.790  0.4760  1.4203 -0.2088
12828TIP3   OH259898   5.178   2.877  13.319 -0.4413  0.2982 -0.0325
12828TIP3    H159899   5.188   2.836  13.233  0.2039  0.4006 -0.0085
12828TIP3    H259900   5.084   2.889  13.328 -0.4873  0.8085 -0.9789
12829TIP3   OH259901   0.212   5.192   5.009  0.0812 -0.0954  0.6007
12829TIP3    H159902   0.194   5.282   5.036  1.0697  0.6462 -1.0748
12829TIP3    H259903   0.168   5.183   4.924  0.5197 -0.9891  0.4563
12830TIP3   OH259904   0.425   4.631  13.611 -0.0866 -0.0375 -0.5873
12830TIP3    H159905   0.330   4.632  13.621  0.0779  1.0337  1.1765
12830TIP3    H259906   0.449   4.724  13.604  0.8244 -0.3103 -1.2748
12831TIP3   OH259907   5.354   2.211   2.257  0.3156  0.2937 -0.2913
12831TIP3    H159908   5.411   2.195   2.332 -0.2235 -2.0186 -0.2847
12831TIP3    H259909   5.348   2.306   2.250  3.7639  0.6557 -0.0084
12832TIP3   OH259910   3.068   1.733  13.418 -0.0016 -0.3025  0.1189
12832TIP3    H159911   3.088   1.743  13.511  0.2767  1.5162 -0.1012
12832TIP3    H259912   2.995   1.672  13.416 -1.3147  1.1193  1.6949
12833TIP3   OH259913   2.394   6.011   2.532  0.1872  0.2159 -0.1998
12833TIP3    H159914   2.356   6.030   2.617 -0.7076 -1.0027 -0.3044
12833TIP3    H259915   2.321   5.978   2.479  1.1805 -1.4258 -0.6462
12834TIP3   OH259916   3.193   2.762  16.650  0.3251  0.2983 -0.1469
12834TIP3    H159917   3.287   2.772  16.637  0.3902  0.5374  0.4560
12834TIP3    H259918   3.159   2.737  16.564  0.5560  2.7519 -1.0312
12835TIP3   OH259919   6.750   5.483   2.993 -0.0427  0.2426  0.1440
12835TIP3    H159920   6.714   5.488   2.904 -0.9362  0.5876  0.5211
12835TIP3    H259921   6.845   5.490   2.980 -0.0078 -1.5963 -0.9401
12836TIP3   OH259922   5.206   5.705   1.548  0.0746 -0.6418 -0.5618
12836TIP3    H159923   5.135   5.661   1.595 -0.8194 -1.2207 -2.3824
12836TIP3    H259924   5.179   5.797   1.545 -0.7165 -0.8945 -1.4219
12837TIP3   OH259925   0.140   2.204  16.202 -0.1955  0.4552  0.0885
12837TIP3    H159926   0.133   2.112  16.177 -0.1403  0.5988 -0.4658
12837TIP3    H259927   0.234   2.218  16.216 -0.2115  0.4111  0.2452
12838TIP3   OH259928   6.185   1.316   3.805  0.7187  0.5043 -0.3757
12838TIP3    H159929   6.161   1.384   3.868  0.4731 -0.8205  1.0259
12838TIP3    H259930   6.112   1.315   3.742  0.5541  1.2816 -0.2099
12839TIP3   OH259931   2.510   4.427   1.161  0.5582  0.0676 -0.3707
12839TIP3    H159932   2.426   4.457   1.125 -1.1792 -2.4631  1.2359
12839TIP3    H259933   2.492   4.338   1.192  4.1604 -0.9894 -0.8917
12840TIP3   OH259934   1.940   0.690  16.266  0.1336 -0.2196 -0.7358
12840TIP3    H159935   1.906   0.606  16.299  0.0993  0.0723 -0.0034
12840TIP3    H259936   1.872   0.753  16.288  0.6320  0.1780 -0.2977
12841TIP3   OH259937   0.930   0.387  17.123 -0.6604  0.7046 -0.4334
12841TIP3    H159938   0.940   0.313  17.064 -2.2370 -0.8184  1.0773
12841TIP3    H259939   0.979   0.361  17.202 -1.3447  1.1894  0.1624
12842TIP3   OH259940   2.537   6.322  17.037 -0.2424 -0.1344 -0.1253
12842TIP3    H159941   2.573   6.410  17.030  0.7397 -0.5165 -0.0433
12842TIP3    H259942   2.488   6.309  16.956 -1.9517  1.1348  0.6317
12843TIP3   OH259943   6.525   3.296   2.379 -0.2845 -0.2482 -0.7648
12843TIP3    H159944   6.437   3.331   2.368  0.0900  0.4642 -1.5744
12843TIP3    H259945   6.513   3.202   2.388 -1.2831  0.0107  1.1323
12844TIP3   OH259946   3.023   0.893  11.535  0.1886  0.1365 -0.2596
12844TIP3    H159947   2.983   0.871  11.451  0.1462 -1.0135  0.0439
12844TIP3    H259948   3.106   0.845  11.535  0.3153  0.3553  0.2364
12845TIP3   OH259949   2.589   6.514   2.634 -0.2210  0.1773  0.0923
12845TIP3    H159950   2.509   6.497   2.684  0.5278 -0.3286  1.1595
12845TIP3    H259951   2.645   6.563   2.695  0.3705  0.3220 -0.5593
12846TIP3   OH259952   2.753   1.791   0.090  0.2817  0.3482 -0.3130
12846TIP3    H159953   2.729   1.883   0.095 -0.8187  0.1740 -1.8499
12846TIP3    H259954   2.712   1.759   0.010  2.3081 -0.9985 -0.9012
12847TIP3   OH259955   4.441   2.749   3.026 -0.2798  0.5066 -0.0773
12847TIP3    H159956   4.388   2.741   3.106 -1.9481  0.6304 -1.1221
12847TIP3    H259957   4.377   2.764   2.957  1.1845  1.1340 -1.3464
12848TIP3   OH259958   5.664   0.275   4.155  0.3236  0.7669  0.4746
12848TIP3    H159959   5.685   0.238   4.070 -2.3087 -0.2984  0.1769
12848TIP3    H259960   5.583   0.324   4.141 -0.2195  0.5105  2.3404
12849TIP3   OH259961   3.026   1.283   3.772 -0.0084 -0.2188  0.1916
12849TIP3    H159962   3.020   1.376   3.751 -1.7693  0.1574  2.0515
12849TIP3    H259963   2.970   1.240   3.707 -0.0962  0.1313  0.0333
12850TIP3   OH259964   6.612   3.434  12.316  0.1444 -0.5040 -0.2717
12850TIP3    H159965   6.519   3.426  12.335  0.2537 -0.1183  0.4412
12850TIP3    H259966   6.615   3.477  12.230 -0.3352 -0.7116 -0.3925
12851TIP3   OH259967   1.006   2.003  15.952 -0.8478 -0.1148 -0.1202
12851TIP3    H159968   0.915   2.017  15.980 -0.4551 -1.8743  2.3379
12851TIP3    H259969   1.000   1.938  15.882 -1.5894  1.6046 -1.7498
12852TIP3   OH259970   5.364   1.175   0.374  0.1960  0.2753  0.2307
12852TIP3    H159971   5.386   1.241   0.440  0.9094 -1.2908  1.6331
12852TIP3    H259972   5.362   1.092   0.423 -2.0693 -0.5937 -1.1860
12853TIP3   OH259973   2.438   5.613  13.519 -0.1199  0.8281 -0.2049
12853TIP3    H159974   2.374   5.664  13.469 -1.4034  0.2804  0.8189
12853TIP3    H259975   2.404   5.524  13.519  1.0291  0.3629 -0.2288
12854TIP3   OH259976   5.012   3.043   0.548 -0.5060  0.0408  0.3569
12854TIP3    H159977   5.101   3.026   0.579  0.0638  0.1324 -1.1090
12854TIP3    H259978   5.024   3.106   0.476 -1.9067  1.1974  1.0834
12855TIP3   OH259979   3.304   0.049   0.872 -0.5585 -0.2472 -0.0767
12855TIP3    H159980   3.372   0.080   0.932 -0.9164  0.0181  0.1915
12855TIP3    H259981   3.223   0.053   0.923 -0.6445 -1.4669 -0.0854
12856TIP3   OH259982   4.604   3.340   0.545 -0.1220 -0.2970  0.8608
12856TIP3    H159983   4.569   3.428   0.527 -1.6241 -1.0427 -0.0031
12856TIP3    H259984   4.631   3.344   0.637 -2.6273  0.3068  1.6447
12857TIP3   OH259985   6.228   1.810  11.336  0.0077 -0.2254 -0.6215
12857TIP3    H159986   6.252   1.731  11.384  1.1003  1.0933  1.0979
12857TIP3    H259987   6.275   1.802  11.253  0.2571 -1.2683 -0.3999
12858TIP3   OH259988   4.951   0.229   4.552 -0.1304 -0.1812 -0.0605
12858TIP3    H159989   4.982   0.145   4.518 -0.7561  0.3449 -2.0678
12858TIP3    H259990   4.860   0.212   4.578  0.4709 -0.6881  1.8898
12859TIP3   OH259991   3.393   4.608   3.632  0.0760 -0.6050 -0.2997
12859TIP3    H159992   3.341   4.639   3.706 -1.2975  1.0678 -1.8718
12859TIP3    H259993   3.358   4.521   3.613 -3.6878  1.1119 -2.4229
12860TIP3   OH259994   1.621   0.180   5.476  0.3771  0.2800 -0.5003
12860TIP3    H159995   1.596   0.132   5.555 -2.6857 -0.2825 -1.6706
12860TIP3    H259996   1.610   0.272   5.499 -1.7591  0.0835 -0.5516
12861TIP3   OH259997   1.207   6.418   2.881  0.2631 -0.2327  0.0395
12861TIP3    H159998   1.274   6.480   2.910 -0.6319  0.0525  1.5712
12861TIP3    H259999   1.197   6.436   2.787  3.0230 -0.9854 -0.5184
12862TIP3   OH260000   4.901   6.139  13.854  0.4205  0.4052 -0.1393
12862TIP3    H160001   4.812   6.102  13.854  1.3598 -2.0579  0.2227
12862TIP3    H260002   4.896   6.213  13.794 -1.1273 -1.7612 -2.9522
12863TIP3   OH260003   1.989   1.097  13.343  0.2616 -0.0286 -0.0378
12863TIP3    H160004   1.995   1.005  13.315  0.2816  0.1333 -0.5814
12863TIP3    H260005   1.899   1.107  13.373  0.4677 -0.4197  0.7275
12864TIP3   OH260006   2.844   4.413   3.415 -0.8291  0.7355  0.2819
12864TIP3    H160007   2.874   4.322   3.424  1.7718  1.4583 -0.3313
12864TIP3    H260008   2.763   4.406   3.364 -1.7382 -1.3360  1.8483
12865TIP3   OH260009   2.244   3.726  10.803  0.2727  0.1235  0.1104
12865TIP3    H160010   2.307   3.798  10.804 -1.0408  1.4168 -2.1740
12865TIP3    H260011   2.239   3.700  10.711 -0.3392 -1.9722  0.6939
12866TIP3   OH260012   0.876   6.758   0.100 -0.1923 -0.1408  0.1355
12866TIP3    H160013   0.908   6.713   0.179 -2.3806 -2.0258  0.0289
12866TIP3    H260014   0.830   6.835   0.133  1.0228  0.4640  0.4960
12867TIP3   OH260015   1.197   0.927  16.501 -0.1931 -0.4408 -0.2322
12867TIP3    H160016   1.142   0.985  16.554 -0.2644 -0.0411 -0.7321
12867TIP3    H260017   1.135   0.870  16.456 -0.1450 -0.6039 -0.0942
12868TIP3   OH260018   0.283   1.157  12.005 -0.0096 -0.0675  0.3533
12868TIP3    H160019   0.235   1.197  11.933  2.0325  1.3998 -0.2984
12868TIP3    H260020   0.289   1.064  11.983  1.3646  0.4867 -1.9231
12869TIP3   OH260021   0.043   4.047  16.078  0.0032 -0.2590  0.1056
12869TIP3    H160022   0.070   4.078  16.164 -0.3235 -0.3939  0.2579
12869TIP3    H260023   0.118   4.064  16.021  0.7357 -1.4165  0.6925
12870TIP3   OH260024   0.136   6.691  14.410  0.1672 -0.5638 -0.1627
12870TIP3    H160025   0.231   6.684  14.423  0.0917  1.2012  1.8325
12870TIP3    H260026   0.126   6.765  14.350  0.0500 -0.9711 -0.6502
12871TIP3   OH260027   5.599   0.764   4.503  0.1397  0.0013  0.1102
12871TIP3    H160028   5.550   0.705   4.560  0.9878 -1.9410 -1.0572
12871TIP3    H260029   5.685   0.770   4.543 -0.0139  0.6677  0.3512
12872TIP3   OH260030   2.627   4.090   0.357 -0.0452 -0.9333  0.3032
12872TIP3    H160031   2.620   4.158   0.424 -0.4388 -1.3833  0.7242
12872TIP3    H260032   2.709   4.109   0.312  0.1834 -0.5786  0.8638
12873TIP3   OH260033   2.065   0.006   5.981 -0.0764  0.1592  0.0638
12873TIP3    H160034   2.022  -0.070   6.021  0.9659 -0.6594 -0.2921
12873TIP3    H260035   2.006   0.033   5.910  0.0557 -1.0558 -0.5433
12874TIP3   OH260036   6.775   3.947  11.756  0.4277  1.0219  0.2284
12874TIP3    H160037   6.720   4.016  11.719  0.7015  0.9457 -0.3398
12874TIP3    H260038   6.732   3.866  11.728 -0.0725  0.9571  1.1675
12875TIP3   OH260039   0.622   3.115  12.109 -0.2088  0.2722  0.3701
12875TIP3    H160040   0.637   3.023  12.084  1.3370  0.6654 -0.2626
12875TIP3    H260041   0.706   3.158  12.092 -0.4724  1.5200  2.0403
12876TIP3   OH260042   6.495   4.190   5.612 -0.4895  0.3502 -1.0564
12876TIP3    H160043   6.412   4.150   5.584 -0.2089 -1.7807  0.8188
12876TIP3    H260044   6.527   4.235   5.534 -1.3569 -2.3347 -3.1520
12877TIP3   OH260045   6.122   0.058   1.643  0.9971 -0.2996 -0.3825
12877TIP3    H160046   6.119  -0.015   1.705  1.2979 -0.2423 -0.3009
12877TIP3    H260047   6.120   0.017   1.557 -0.0870 -0.3579 -0.3425
12878TIP3   OH260048   6.372   6.241  12.793  0.3598  0.2238 -0.1812
12878TIP3    H160049   6.351   6.150  12.772  0.9044 -0.0764  0.5118
12878TIP3    H260050   6.322   6.293  12.731 -2.4192 -0.4286  1.3615
12879TIP3   OH260051   2.574   2.994  14.870 -0.3698  0.1042 -0.8149
12879TIP3    H160052   2.518   2.980  14.794  0.2332 -0.4857 -1.1592
12879TIP3    H260053   2.595   2.906  14.900 -2.1828  0.2836  1.2398
12880TIP3   OH260054   3.776   4.205  14.449 -0.0256  0.5865  0.8376
12880TIP3    H160055   3.699   4.177  14.400  2.3257 -2.3185 -1.6428
12880TIP3    H260056   3.804   4.127  14.497  2.6506  0.7542 -0.2721
12881TIP3   OH260057   4.557   0.888   4.878  0.8379 -0.2956 -0.6088
12881TIP3    H160058   4.547   0.854   4.967  0.5328 -0.9190 -0.8763
12881TIP3    H260059   4.651   0.908   4.871  1.1084 -1.4575 -0.5618
12882TIP3   OH260060   2.750   2.728  12.673 -0.1751  0.0150 -0.2299
12882TIP3    H160061   2.770   2.821  12.661 -0.4175  0.2186  0.7649
12882TIP3    H260062   2.817   2.682  12.623 -0.3035  0.7274 -1.0834
12883TIP3   OH260063   2.313   3.911   5.612  0.3413  0.3191  0.0664
12883TIP3    H160064   2.325   3.929   5.519  2.6020 -0.5946  0.0920
12883TIP3    H260065   2.334   3.993   5.656 -1.6385  1.0143 -0.2312
12884TIP3   OH260066   5.302   2.686  15.121 -0.2682 -0.4945 -0.4010
12884TIP3    H160067   5.272   2.608  15.167  1.7841 -0.9218  0.3467
12884TIP3    H260068   5.317   2.656  15.031 -2.5628 -0.1028 -0.9758
12885TIP3   OH260069   4.369   1.653   0.132  0.0354  0.4295  0.0585
12885TIP3    H160070   4.403   1.578   0.181  0.5524  0.8419  0.3306
12885TIP3    H260071   4.294   1.683   0.183 -0.8705 -0.5765 -0.6220
12886TIP3   OH260072   2.308   0.612  15.684  0.0319 -0.3479  0.2877
12886TIP3    H160073   2.376   0.565  15.733  0.1366  0.1525  0.6244
12886TIP3    H260074   2.307   0.570  15.598  1.2326  0.0702  0.0530
12887TIP3   OH260075   6.328   5.846   0.979  1.1858  0.0010  0.2051
12887TIP3    H160076   6.256   5.785   0.970  0.4090  0.5106  2.3689
12887TIP3    H260077   6.296   5.928   0.941  0.9026  0.0174  0.4804
12888TIP3   OH260078   1.371   4.886  13.473  0.4978 -0.4116 -0.5472
12888TIP3    H160079   1.405   4.975  13.480  0.6482 -0.3941 -1.4431
12888TIP3    H260080   1.426   4.835  13.533  0.6595  0.0234 -0.3185
12889TIP3   OH260081   2.007   5.055  16.346  0.3218  0.2505  0.0223
12889TIP3    H160082   2.016   5.033  16.439  0.2202  0.4473  0.0771
12889TIP3    H260083   1.918   5.028  16.324 -0.0010  1.1163  0.2296
12890TIP3   OH260084   4.943   4.399   1.855 -0.2204  0.1250  0.1062
12890TIP3    H160085   5.039   4.406   1.851 -0.2559  0.2722 -0.8520
12890TIP3    H260086   4.914   4.486   1.881 -0.1014  0.1631  0.1147
12891TIP3   OH260087   4.213   4.994  14.231  0.0213 -0.0124 -0.0519
12891TIP3    H160088   4.264   5.048  14.171  0.2752 -1.2824 -1.0130
12891TIP3    H260089   4.177   4.924  14.177 -1.1849 -0.2202  0.9671
12892TIP3   OH260090   2.117   4.624  12.743 -0.3382 -0.2605  0.7578
12892TIP3    H160091   2.061   4.555  12.707 -0.5498  0.4498 -0.3156
12892TIP3    H260092   2.078   4.706  12.710  0.0140  0.3692  1.8500
12893TIP3   OH260093   2.929   1.524   3.618 -0.3165 -0.1531 -0.1047
12893TIP3    H160094   2.918   1.540   3.524  2.1449 -0.0002 -0.4290
12893TIP3    H260095   2.910   1.608   3.659  3.3759  1.3359 -1.0008
12894TIP3   OH260096   1.256   6.221   3.395  0.1349 -0.1253 -0.3028
12894TIP3    H160097   1.168   6.204   3.362  0.1195  2.5878 -1.9281
12894TIP3    H260098   1.311   6.157   3.350 -1.0811 -3.3223  2.2975
12895TIP3   OH260099   6.431   4.601  15.716 -0.6080  0.3248 -0.2797
12895TIP3    H160100   6.433   4.628  15.808  0.2514  1.3095 -0.5570
12895TIP3    H260101   6.416   4.682  15.668  2.3399  0.4809 -1.1762
12896TIP3   OH260102   5.412   3.078   6.338 -0.0281 -0.2399  0.2774
12896TIP3    H160103   5.398   3.006   6.276 -0.4681 -0.9913  1.2166
12896TIP3    H260104   5.503   3.069   6.365  0.3376  0.4465 -0.6764
12897TIP3   OH260105   0.914   3.094  14.685 -0.9190 -0.1566  0.1863
12897TIP3    H160106   0.838   3.093  14.627  0.2081 -0.6211 -1.3508
12897TIP3    H260107   0.877   3.099  14.773 -2.6953  0.3594 -0.5463
12898TIP3   OH260108   5.401   3.088  15.497  0.0998  0.4647  0.1602
12898TIP3    H160109   5.487   3.131  15.507 -0.3925  1.1645  1.5639
12898TIP3    H260110   5.338   3.156  15.520 -0.9240  0.3131 -1.9848
12899TIP3   OH260111   3.460   4.261   1.513  0.3125 -0.0214 -0.0024
12899TIP3    H160112   3.467   4.238   1.421  0.0933 -0.0616 -0.0093
12899TIP3    H260113   3.522   4.202   1.557 -1.1684 -1.5518  0.1317
12900TIP3   OH260114   2.981   4.144  11.562  0.0121  0.0763  0.3630
12900TIP3    H160115   3.034   4.067  11.584  2.9728  1.5122 -1.0823
12900TIP3    H260116   2.973   4.140  11.466 -0.1690  1.3165  0.3209
12901TIP3   OH260117   4.953   1.168   3.502 -0.0860 -0.2191 -0.2939
12901TIP3    H160118   4.915   1.101   3.446 -0.0776 -0.4175 -0.0649
12901TIP3    H260119   4.941   1.135   3.591 -0.2859  0.1882 -0.1643
12902TIP3   OH260120   0.324   4.643  14.600  0.0344  0.3313  0.3689
12902TIP3    H160121   0.366   4.726  14.621  0.0818  0.4559 -0.2214
12902TIP3    H260122   0.327   4.594  14.682 -0.7565  1.2284  0.9564
12903TIP3   OH260123   1.862   1.839  13.505  0.4327 -0.0345  0.8153
12903TIP3    H160124   1.943   1.793  13.528  0.5770 -1.5039 -2.1468
12903TIP3    H260125   1.793   1.778  13.528  0.5109 -0.9312 -1.1178
12904TIP3   OH260126   6.181   4.989  15.360 -0.9716 -0.8308 -0.1615
12904TIP3    H160127   6.156   5.082  15.364 -3.7259 -1.4811 -0.1185
12904TIP3    H260128   6.173   4.966  15.267  0.1717 -0.9303 -0.2443
12905TIP3   OH260129   6.399   4.268   5.887 -0.5093  0.0520  0.5289
12905TIP3    H160130   6.444   4.261   5.803 -0.6857  0.7028  0.3787
12905TIP3    H260131   6.307   4.278   5.865 -0.6700 -0.7195  0.8237
12906TIP3   OH260132   6.285   3.933  11.920 -0.2990  0.2306 -0.0490
12906TIP3    H160133   6.218   3.988  11.961  0.0289  0.6537 -0.0772
12906TIP3    H260134   6.352   3.922  11.988 -0.0321  0.4477 -0.2774
12907TIP3   OH260135   4.894   4.820  11.697 -0.4522 -0.3119 -0.1103
12907TIP3    H160136   4.909   4.849  11.787  1.6015 -0.5842 -0.3073
12907TIP3    H260137   4.915   4.727  11.698 -1.0038 -0.4492 -0.7608
12908TIP3   OH260138   2.629   4.070  14.020  0.3611  0.0499 -0.4676
12908TIP3    H160139   2.659   4.140  14.077  0.0032  0.4718 -0.7878
12908TIP3    H260140   2.589   4.115  13.946  0.6959 -0.4904 -0.9855
12909TIP3   OH260141   0.439   4.911  14.696  0.0190 -0.3965 -0.8884
12909TIP3    H160142   0.411   5.002  14.701  0.5733 -0.2610  0.2589
12909TIP3    H260143   0.531   4.912  14.724  0.1029 -1.2755 -1.0775
12910TIP3   OH260144   1.309   6.050  16.636  0.2063 -0.2744  0.4836
12910TIP3    H160145   1.369   6.125  16.636 -0.4638  0.3015 -1.2240
12910TIP3    H260146   1.353   5.984  16.690  2.1787  0.2752 -0.3773
12911TIP3   OH260147   0.038   2.330   1.380  0.0866 -0.0251  0.3053
12911TIP3    H160148   0.113   2.280   1.413  1.1017 -0.2991 -2.2119
12911TIP3    H260149  -0.038   2.280   1.410  1.0483 -2.5158 -1.0704
12912TIP3   OH260150   4.637   5.696   4.390  0.0253  0.4556  0.0614
12912TIP3    H160151   4.676   5.609   4.384  0.6556  0.7418 -0.0816
12912TIP3    H260152   4.676   5.745   4.318 -1.2603  0.5085 -0.6236
12913TIP3   OH260153   4.021   1.104  13.272  0.0497 -0.4362 -0.5952
12913TIP3    H160154   3.996   1.074  13.184 -3.1648 -0.0138  0.0703
12913TIP3    H260155   3.996   1.196  13.275  2.5714  0.3290 -0.0040
12914TIP3   OH260156   4.458   1.868   5.005  0.2482 -0.6933  0.3509
12914TIP3    H160157   4.490   1.796   5.060 -0.6962 -2.4241 -1.2497
12914TIP3    H260158   4.362   1.863   5.013  0.0308 -1.5014 -1.9493
12915TIP3   OH260159   2.239   2.899   2.640  0.5868  0.0838 -0.1271
12915TIP3    H160160   2.144   2.907   2.653  0.7028 -0.8420  1.5601
12915TIP3    H260161   2.273   2.986   2.660  0.2374 -0.0164  0.9825
12916TIP3   OH260162   2.196   3.192   2.104  0.5056 -0.5827 -0.1389
12916TIP3    H160163   2.284   3.224   2.085  0.6795 -1.7760 -1.5111
12916TIP3    H260164   2.139   3.266   2.085  1.2444  0.4597  1.5241
12917TIP3   OH260165   4.094   1.368  12.891  0.5243 -0.0572 -0.3439
12917TIP3    H160166   4.144   1.421  12.829  1.4397 -0.6294 -0.1105
12917TIP3    H260167   4.122   1.278  12.875 -0.8035 -0.4668 -0.5373
12918TIP3   OH260168   3.524   5.728   5.437  0.2236 -0.2233  0.6132
12918TIP3    H160169   3.559   5.734   5.349 -1.2432 -0.1858 -0.0030
12918TIP3    H260170   3.513   5.819   5.465 -0.7197 -0.2001  0.2182
12919TIP3   OH260171   6.547   0.028   0.577 -0.0319  0.1181 -0.2512
12919TIP3    H160172   6.599  -0.039   0.622 -0.8946 -0.3191  0.0992
12919TIP3    H260173   6.473  -0.019   0.540 -1.2444  1.0344  0.9276
12920TIP3   OH260174   4.232   2.348   1.147 -0.1162  0.2176  0.0610
12920TIP3    H160175   4.241   2.378   1.057  1.3791 -2.5691 -0.8379
12920TIP3    H260176   4.317   2.366   1.187 -0.7116  1.2704  0.8843
12921TIP3   OH260177   2.235   1.840  13.861 -0.1160  0.4548  0.1174
12921TIP3    H160178   2.314   1.804  13.819 -0.3962 -1.3400  0.9960
12921TIP3    H260179   2.170   1.844  13.791  0.6421  1.6465 -0.5460
12922TIP3   OH260180   4.046   0.652   0.000 -0.0103  0.4279  0.0676
12922TIP3    H160181   3.984   0.720   0.024  1.0133  1.6821 -0.7129
12922TIP3    H260182   4.013   0.616  -0.082 -0.7297 -0.2728  0.6496
12923TIP3   OH260183   4.555   1.049   2.885 -0.4138  0.4200 -0.1459
12923TIP3    H160184   4.561   1.140   2.914 -1.7091  0.8821 -1.1884
12923TIP3    H260185   4.512   1.054   2.799 -0.4847 -1.1693 -0.2372
12924TIP3   OH260186   3.274   0.245  13.645 -0.9458 -0.3241  0.1079
12924TIP3    H160187   3.246   0.165  13.601 -0.4032  0.0899 -1.0312
12924TIP3    H260188   3.215   0.313  13.612  1.4397  0.6316 -2.5852
12925TIP3   OH260189   5.908   3.386  12.476 -0.1794 -0.7118 -0.3493
12925TIP3    H160190   5.957   3.422  12.402 -1.4175 -0.5041 -1.0973
12925TIP3    H260191   5.850   3.457  12.502 -0.4542 -1.1310  0.1840
12926TIP3   OH260192   4.659   0.291  16.848 -0.2478  0.3295 -0.6269
12926TIP3    H160193   4.668   0.299  16.943  1.9838  1.5701 -0.8587
12926TIP3    H260194   4.570   0.261  16.834  0.0419 -2.1159  1.9563
12927TIP3   OH260195   5.347   1.044  13.879  0.4031 -0.1798  0.3491
12927TIP3    H160196   5.317   0.954  13.891  0.3139 -0.1241  0.5435
12927TIP3    H260197   5.407   1.059  13.953 -1.8829  0.9262  2.1068
12928TIP3   OH260198   6.223   6.110  15.815 -0.3700  0.3173 -0.4129
12928TIP3    H160199   6.291   6.176  15.804  0.8130 -0.8602 -0.3274
12928TIP3    H260200   6.142   6.155  15.790  0.5463  1.4690 -1.4112
12929TIP3   OH260201   3.369   4.625  13.698 -0.2585  0.1288  0.0142
12929TIP3    H160202   3.413   4.543  13.719  0.0773  0.6388  1.4196
12929TIP3    H260203   3.438   4.680  13.661  0.2139  0.7561  1.7574
12930TIP3   OH260204   4.562   2.035  14.352  0.3222 -0.5040 -0.3240
12930TIP3    H160205   4.512   2.108  14.316 -0.3314 -1.0044 -0.4607
12930TIP3    H260206   4.650   2.070  14.365 -0.0108  0.3385 -0.2713
12931TIP3   OH260207   3.406   0.353   2.697  0.4770  0.0776  0.3017
12931TIP3    H160208   3.478   0.393   2.648 -0.0595  0.9851  0.2366
12931TIP3    H260209   3.432   0.261   2.707  1.3405  0.2483 -0.2771
12932TIP3   OH260210   0.816   5.769  14.103  0.1461 -0.3319 -0.1717
12932TIP3    H160211   0.759   5.707  14.058 -0.1089  1.1069 -1.9369
12932TIP3    H260212   0.756   5.829  14.148  0.3937 -1.4641  1.7784
12933TIP3   OH260213   0.002   1.013  11.554  0.0297 -0.1867 -0.7734
12933TIP3    H160214   0.040   0.968  11.628  0.8607 -1.9246 -2.1805
12933TIP3    H260215   0.029   1.104  11.564 -1.5923  0.0957  2.0872
12934TIP3   OH260216   3.241   3.375  16.389  0.4579 -0.6176 -0.2187
12934TIP3    H160217   3.269   3.418  16.308  1.5945  0.5032  0.7300
12934TIP3    H260218   3.164   3.324  16.364 -0.0315  0.7822 -1.7228
12935TIP3   OH260219   2.983   4.779  12.319 -0.3958 -0.0744  0.0843
12935TIP3    H160220   2.981   4.743  12.407 -1.1563  0.8505  0.4637
12935TIP3    H260221   2.927   4.857  12.323 -0.5277 -0.0668 -1.2368
12936TIP3   OH260222   2.927   3.132  13.471 -0.0209  0.4964 -0.0206
12936TIP3    H160223   2.970   3.216  13.489 -0.9291  1.3734 -1.7269
12936TIP3    H260224   2.931   3.123  13.376 -0.9022 -0.8785  0.0488
12937TIP3   OH260225   0.014   4.796   5.687 -0.5046  0.1677  0.4715
12937TIP3    H160226   0.033   4.744   5.765 -0.3302 -1.7606 -0.7956
12937TIP3    H260227   0.051   4.745   5.615  1.3126  2.9539 -0.7157
12938TIP3   OH260228   1.757   1.262   0.121 -0.3107 -0.4198 -0.4826
12938TIP3    H160229   1.829   1.318   0.148  1.1400 -2.3599 -0.1019
12938TIP3    H260230   1.694   1.268   0.193  0.5913 -0.5560  0.3433
12939TIP3   OH260231   0.655   1.090  13.928  0.1856  0.2922 -0.0389
12939TIP3    H160232   0.686   1.008  13.891 -0.2373  0.4129 -0.6778
12939TIP3    H260233   0.622   1.067  14.015 -0.4764 -0.3265 -0.4394
12940TIP3   OH260234   0.724   4.116  14.103  0.1583 -0.0549  0.4311
12940TIP3    H160235   0.680   4.040  14.141  0.7074 -0.9410 -0.6304
12940TIP3    H260236   0.776   4.153  14.175 -1.2662  0.2294  1.3484
12941TIP3   OH260237   3.739   6.295  15.707 -0.0880 -0.1472  0.0682
12941TIP3    H160238   3.661   6.348  15.724 -0.8206 -0.8960 -0.8542
12941TIP3    H260239   3.793   6.307  15.786 -0.5416  1.3810  0.1935
12942TIP3   OH260240   3.723   2.841  12.533 -0.3331  0.0472 -0.4709
12942TIP3    H160241   3.791   2.775  12.540 -1.1791 -0.8969 -0.9360
12942TIP3    H260242   3.712   2.856  12.439 -0.1485  0.8606 -0.3756
12943TIP3   OH260243   1.920   0.167  15.505  0.0925  0.0574 -0.2336
12943TIP3    H160244   1.981   0.222  15.455 -1.4837  1.5037 -0.6373
12943TIP3    H260245   1.834   0.187  15.468 -0.5351 -3.1914 -0.8610
12944TIP3   OH260246   0.856   4.385  15.654 -0.5304  0.0836 -0.1242
12944TIP3    H160247   0.762   4.378  15.673 -0.4301  1.4854  1.0345
12944TIP3    H260248   0.859   4.400  15.559 -1.6084  1.6388  0.0421
12945TIP3   OH260249   6.080   3.980  14.802  0.2901  0.3936  0.3822
12945TIP3    H160250   6.162   3.936  14.827  0.7798  0.5891 -0.7875
12945TIP3    H260251   6.106   4.069  14.781 -0.4612  0.8407  1.3108
12946TIP3   OH260252   6.562   0.558  11.214  0.1799  0.2582 -0.4683
12946TIP3    H160253   6.593   0.469  11.204  0.1088  0.1403  0.3378
12946TIP3    H260254   6.509   0.557  11.294  0.2912  1.0519 -0.3752
12947TIP3   OH260255   2.229   6.772   6.254  0.3939 -0.1551 -0.1125
12947TIP3    H160256   2.194   6.690   6.219  1.7166 -1.2302  0.9676
12947TIP3    H260257   2.156   6.834   6.249 -0.8920 -1.6290 -0.1831
12948TIP3   OH260258   5.822   2.686  15.787 -0.0276  0.7535 -0.3037
12948TIP3    H160259   5.834   2.607  15.735  0.8499  0.1933  0.7229
12948TIP3    H260260   5.761   2.661  15.857  1.6691  0.4132  1.1245
12949TIP3   OH260261   2.494   4.713   2.135 -0.0279 -0.7446 -0.5515
12949TIP3    H160262   2.507   4.621   2.112 -2.1366 -0.8145 -1.6399
12949TIP3    H260263   2.404   4.732   2.109 -0.0274  1.3161  0.7645
12950TIP3   OH260264   4.471   5.239  16.141 -0.4134 -0.0919  0.6213
12950TIP3    H160265   4.409   5.242  16.069 -1.2877  0.6129  1.3854
12950TIP3    H260266   4.534   5.171  16.116 -1.1497 -0.4039 -0.4261
12951TIP3   OH260267   3.632   3.569   2.586  0.4806  0.1469 -0.1779
12951TIP3    H160268   3.645   3.530   2.673  0.3617  1.7747  0.5945
12951TIP3    H260269   3.638   3.663   2.600 -1.3646  0.5405 -1.6194
12952TIP3   OH260270   3.020   1.257   4.045  0.2811 -0.0108  0.1122
12952TIP3    H160271   2.934   1.224   4.072 -0.2396  0.2477 -1.1720
12952TIP3    H260272   3.011   1.275   3.952  0.4482  3.9902  0.6882
12953TIP3   OH260273   3.860   5.861   4.351  0.4682  0.0502  0.6389
12953TIP3    H160274   3.891   5.945   4.319 -0.1663  0.6953  1.6473
12953TIP3    H260275   3.784   5.840   4.296  1.5716 -0.6788 -0.6739
12954TIP3   OH260276   2.522   6.370   5.040 -0.0140 -0.2179  0.2212
12954TIP3    H160277   2.465   6.335   4.971 -1.2666  0.8942  0.6720
12954TIP3    H260278   2.610   6.348   5.010 -0.4602  0.8831 -2.1261
12955TIP3   OH260279   3.625   5.522  16.310 -0.1384 -0.0379  0.3668
12955TIP3    H160280   3.677   5.558  16.238  0.8504  0.5886  1.3498
12955TIP3    H260281   3.681   5.453  16.347 -1.4906 -1.7848 -0.7074
12956TIP3   OH260282   6.226   4.148  13.550  0.1178  0.0044  0.1022
12956TIP3    H160283   6.285   4.073  13.550 -0.6165 -0.6851 -2.5204
12956TIP3    H260284   6.139   4.110  13.565 -0.2981  0.2307 -1.5509
12957TIP3   OH260285   3.850   3.574   1.838  0.2775  0.4204  0.2365
12957TIP3    H160286   3.828   3.500   1.782  3.2471  0.2479 -0.8671
12957TIP3    H260287   3.765   3.603   1.874 -1.2532 -1.9170 -1.2161
12958TIP3   OH260288   2.512   5.502   1.881 -0.4981  0.2404 -0.3922
12958TIP3    H160289   2.553   5.419   1.905  0.5297  0.9300  0.3094
12958TIP3    H260290   2.481   5.488   1.791 -0.7933 -1.0520 -0.1178
12959TIP3   OH260291   5.692   0.300  12.080 -0.3792  0.1484  0.1358
12959TIP3    H160292   5.686   0.211  12.043 -0.9629  0.2798 -0.0999
12959TIP3    H260293   5.708   0.356  12.004  2.0990  0.0585  0.4864
12960TIP3   OH260294   6.120   5.877  12.146 -0.6924 -0.3571 -0.2329
12960TIP3    H160295   6.049   5.861  12.084 -1.5974  0.4007  0.5737
12960TIP3    H260296   6.078   5.921  12.220  1.0847  2.9472 -1.0001
12961TIP3   OH260297   1.641   0.497   4.758  0.2096  0.0699 -0.3682
12961TIP3    H160298   1.674   0.554   4.689 -0.5877  1.5256  0.4004
12961TIP3    H260299   1.681   0.412   4.741  0.2433  0.4583 -2.4409
12962TIP3   OH260300   2.781   0.929  12.781 -0.2118 -0.2147 -0.0077
12962TIP3    H160301   2.779   0.852  12.837 -0.3718  0.7489  1.3432
12962TIP3    H260302   2.714   0.987  12.817  0.7034  1.0450 -0.2680
12963TIP3   OH260303   1.886   3.834  15.023  0.5169  0.3100 -0.2766
12963TIP3    H160304   1.890   3.745  15.057 -2.2486 -0.5245 -1.8708
12963TIP3    H260305   1.931   3.887  15.090  1.2909 -2.0761  1.2292
12964TIP3   OH260306   5.781   4.504   0.393  0.6229 -0.0372 -0.6309
12964TIP3    H160307   5.855   4.564   0.398 -0.0769  0.7776  0.5966
12964TIP3    H260308   5.704   4.562   0.385  0.0784 -0.8423 -1.4307
12965TIP3   OH260309   1.302   3.044  15.048 -0.0062 -0.9985 -0.5870
12965TIP3    H160310   1.342   3.085  14.971  0.0640 -0.5282 -0.3034
12965TIP3    H260311   1.376   3.016  15.101 -0.0539 -0.9695 -0.5050
12966TIP3   OH260312   5.068   4.791   3.954 -0.0392  0.5320  0.4014
12966TIP3    H160313   5.011   4.722   3.920  0.7256 -1.1153  2.2669
12966TIP3    H260314   5.112   4.826   3.876  0.5583 -2.0373 -0.5213
12967TIP3   OH260315   2.945   5.508   3.081  0.5033  0.8968  0.0834
12967TIP3    H160316   3.034   5.487   3.055  0.2179  1.8210 -1.8660
12967TIP3    H260317   2.954   5.566   3.156  1.4117 -1.3693  1.8225
12968TIP3   OH260318   5.738   5.568  11.519  0.0834 -0.5767 -0.4023
12968TIP3    H160319   5.798   5.603  11.453 -0.5055 -0.0104 -0.6556
12968TIP3    H260320   5.776   5.484  11.545  0.3438 -0.7949 -1.4459
12969TIP3   OH260321   3.750   0.538  15.427 -0.1183 -0.1729 -0.1750
12969TIP3    H160322   3.688   0.598  15.469 -1.6287 -2.9773  2.0666
12969TIP3    H260323   3.836   0.569  15.454 -0.6569  2.0924 -0.8324
12970TIP3   OH260324   2.886   5.926   6.143 -0.1950  0.3689 -0.1988
12970TIP3    H160325   2.802   5.963   6.115 -0.9788 -1.1295  0.1042
12970TIP3    H260326   2.870   5.832   6.149  1.8348 -0.0723 -1.2442
12971TIP3   OH260327   0.308   0.700   2.115 -0.1302  0.0006  0.3039
12971TIP3    H160328   0.309   0.634   2.045 -1.7563 -0.3520  0.5800
12971TIP3    H260329   0.298   0.649   2.196 -1.0609  0.5424  0.5490
12972TIP3   OH260330   0.802   0.793  16.826 -0.0518 -0.2453  0.5508
12972TIP3    H160331   0.796   0.872  16.772  0.3637 -0.6896 -0.1638
12972TIP3    H260332   0.827   0.824  16.913  2.5311  0.2252 -0.2866
12973TIP3   OH260333   3.024   2.269   1.095 -1.0163 -0.0922 -0.1518
12973TIP3    H160334   2.946   2.315   1.065 -0.8724  0.6388  0.5819
12973TIP3    H260335   3.087   2.338   1.115 -0.3683 -0.6542 -0.2147
12974TIP3   OH260336   1.853   4.878   3.727  0.0307 -0.1964  0.1574
12974TIP3    H160337   1.788   4.817   3.761 -1.2026 -0.1121 -1.8597
12974TIP3    H260338   1.802   4.951   3.692  1.3031  0.5935 -0.1068
12975TIP3   OH260339   6.690   3.639  12.966 -0.2343 -0.6326  0.2009
12975TIP3    H160340   6.771   3.612  12.923  1.0202  0.2708  1.9102
12975TIP3    H260341   6.702   3.733  12.982 -0.5465 -0.9676  2.6621
12976TIP3   OH260342   1.400   5.232   3.574 -0.3974 -0.0570 -0.2176
12976TIP3    H160343   1.405   5.293   3.647  0.5581 -0.4906  0.0922
12976TIP3    H260344   1.459   5.268   3.508 -0.5357 -0.1638 -0.4029
12977TIP3   OH260345   1.550   2.527   1.323 -0.2307  0.2658  0.4081
12977TIP3    H160346   1.591   2.473   1.255 -0.6360  3.6082 -2.8263
12977TIP3    H260347   1.623   2.560   1.375  1.0058  2.7500 -2.6135
12978TIP3   OH260348   5.811   3.968   1.014 -0.5856  0.2530 -0.1326
12978TIP3    H160349   5.726   3.964   1.057 -1.0273  1.9893 -0.7544
12978TIP3    H260350   5.836   3.877   1.000 -1.6393 -0.2933  1.3930
12979TIP3   OH260351   2.896   4.234   2.049  0.4392 -0.3883  0.5646
12979TIP3    H160352   2.946   4.155   2.026  2.4827  0.5133  1.6321
12979TIP3    H260353   2.948   4.306   2.014 -0.1066  0.5991  1.7183
12980TIP3   OH260354   0.124   0.543   4.799  0.0872 -0.0890  0.1735
12980TIP3    H160355   0.196   0.496   4.756 -0.0884 -1.0551  0.9114
12980TIP3    H260356   0.166   0.591   4.870 -0.1089 -1.5402  1.3153
12981TIP3   OH260357   1.461   0.486   5.937 -0.2382 -0.0085  0.9178
12981TIP3    H160358   1.461   0.403   5.890  1.4289 -0.0559  0.9447
12981TIP3    H260359   1.465   0.462   6.029 -1.2334  0.1059  1.0009
12982TIP3   OH260360   3.469   1.934   0.089 -0.7340 -0.6095  0.1500
12982TIP3    H160361   3.524   1.914   0.013  0.8159 -0.3066  1.1564
12982TIP3    H260362   3.498   1.872   0.156 -4.1037 -2.9379 -0.3122
12983TIP3   OH260363   3.754   6.667  15.000 -0.1024  0.1677  0.4997
12983TIP3    H160364   3.716   6.690  15.084 -0.9305  0.2021  0.1212
12983TIP3    H260365   3.847   6.689  15.009 -0.2236  0.3719  1.3228
12984TIP3   OH260366   3.686   5.206  13.739  0.8531 -0.3268  0.7231
12984TIP3    H160367   3.634   5.287  13.736 -0.3748 -1.1107 -0.8399
12984TIP3    H260368   3.710   5.190  13.648 -0.0300 -2.3804  0.7943
12985TIP3   OH260369   0.826   2.255   5.255 -0.1121 -0.4783  0.5159
12985TIP3    H160370   0.886   2.203   5.201  0.2737 -0.1059  0.5775
12985TIP3    H260371   0.861   2.248   5.344 -0.4434 -0.6615  0.6330
12986TIP3   OH260372   2.539   4.222  12.545 -0.0389  0.3213  0.0582
12986TIP3    H160373   2.564   4.140  12.588  1.5522 -0.2653 -1.8339
12986TIP3    H260374   2.506   4.195  12.459 -0.3541  1.6113 -0.2456
12987TIP3   OH260375   2.878   6.331  12.441 -0.3453 -0.4372 -0.5036
12987TIP3    H160376   2.888   6.323  12.346 -0.7996 -1.2419 -0.5001
12987TIP3    H260377   2.958   6.292  12.477 -0.1849 -0.1564 -0.5534
12988TIP3   OH260378   6.170   4.290   3.526 -0.0464 -0.5390  0.2335
12988TIP3    H160379   6.194   4.302   3.618  0.2094  0.4708  0.0500
12988TIP3    H260380   6.079   4.321   3.521  0.6239  1.5267 -0.2481
12989TIP3   OH260381   2.427   2.459  15.102 -0.7630  0.1864  0.1397
12989TIP3    H160382   2.441   2.411  15.184 -1.0946  0.7751  0.5452
12989TIP3    H260383   2.439   2.393  15.034  1.5817  0.1250  0.5508
12990TIP3   OH260384   4.013   4.108   5.128 -0.4077 -0.0407  0.2226
12990TIP3    H160385   4.071   4.035   5.150  0.2610  0.4805  0.2259
12990TIP3    H260386   3.925   4.073   5.141 -0.0897 -0.7025  0.6849
12991TIP3   OH260387   0.387   5.302   5.539  0.3724  0.6621 -0.4400
12991TIP3    H160388   0.475   5.264   5.539  0.3193  0.5414 -0.3797
12991TIP3    H260389   0.365   5.313   5.632 -0.1485 -0.3865 -0.4236
12992TIP3   OH260390   5.493   0.478  11.658  0.3702  0.0044 -0.5148
12992TIP3    H160391   5.588   0.490  11.652  0.2867  2.2432  1.2591
12992TIP3    H260392   5.460   0.507  11.572  1.1007  2.8313  0.0513
12993TIP3   OH260393   0.498   4.566  15.454 -0.9575 -0.6613  0.4808
12993TIP3    H160394   0.559   4.521  15.512 -0.3836 -0.9431 -0.3174
12993TIP3    H260395   0.528   4.657  15.453  0.6167 -1.1272 -1.3019
12994TIP3   OH260396   0.050   3.120  14.537 -0.6838 -0.1441  0.3147
12994TIP3    H160397  -0.026   3.164  14.499 -0.8213 -1.6319 -1.2835
12994TIP3    H260398   0.108   3.104  14.463 -0.0119 -1.3346  1.0629
12995TIP3   OH260399   2.972   0.882  11.232  0.3635  0.1429 -0.4927
12995TIP3    H160400   2.936   0.885  11.143 -0.2745 -0.0829 -0.2517
12995TIP3    H260401   3.066   0.888  11.220  0.3289 -0.5302 -1.2323
12996TIP3   OH260402   5.035   0.352   2.975 -0.1846 -0.4382 -0.7788
12996TIP3    H160403   5.001   0.277   2.926 -1.5707 -0.5860  0.3398
12996TIP3    H260404   5.012   0.333   3.067  0.4252  0.8294 -0.3435
12997TIP3   OH260405   2.190   5.950  14.516 -0.0709  0.2347 -0.3580
12997TIP3    H160406   2.238   5.915  14.591 -1.6005 -0.0383  0.5200
12997TIP3    H260407   2.184   5.877  14.455  0.0734  0.0931 -0.2032
12998TIP3   OH260408   1.055   0.210   0.284  0.3297  0.2230 -0.2402
12998TIP3    H160409   1.136   0.203   0.334  0.6277 -0.4484 -0.7915
12998TIP3    H260410   0.992   0.157   0.332 -0.0138  1.3758  0.6128
12999TIP3   OH260411   0.752   5.273   2.349 -0.0679  0.0668 -0.1183
12999TIP3    H160412   0.841   5.279   2.315  0.4843 -0.7501  1.1061
12999TIP3    H260413   0.763   5.272   2.444 -1.4556  0.8858  0.0760
13000TIP3   OH260414   4.710   5.422   4.071  0.4066 -0.4968  0.6326
13000TIP3    H160415   4.727   5.343   4.018 -1.3898 -0.1657 -0.5230
13000TIP3    H260416   4.620   5.411   4.101 -0.0936  1.4068 -0.0829
13001TIP3   OH260417   3.784   5.052   5.984 -0.3566  0.5647 -0.3620
13001TIP3    H160418   3.879   5.055   5.983 -0.2584 -0.8966 -2.1003
13001TIP3    H260419   3.757   5.123   6.041  1.7286  2.2466 -1.3564
13002TIP3   OH260420   0.277   0.110  14.154  0.0847  0.4338 -0.2677
13002TIP3    H160421   0.241   0.177  14.212  1.2689  0.4650  0.4490
13002TIP3    H260422   0.350   0.072  14.203 -1.3617 -2.3329 -0.0783
13003TIP3   OH260423   5.866   5.819  11.715 -0.2026  0.7021 -0.1141
13003TIP3    H160424   5.800   5.886  11.695  0.2245  0.7386 -1.5054
13003TIP3    H260425   5.926   5.821  11.641  1.3296  0.5894  1.0781
13004TIP3   OH260426   3.218   3.300   6.392 -0.2367 -0.1570 -0.1366
13004TIP3    H160427   3.312   3.288   6.375 -0.4484 -0.6041 -1.1022
13004TIP3    H260428   3.184   3.211   6.395 -0.9770  0.0193 -2.0122
13005TIP3   OH260429   5.903   2.366  12.654 -0.1505 -0.4368  0.0158
13005TIP3    H160430   5.917   2.339  12.744 -1.7085  0.6854  0.6361
13005TIP3    H260431   5.831   2.310  12.623 -0.3847 -0.0535 -0.1457
13006TIP3   OH260432   4.924   5.990   4.531  0.2483  0.3914  0.0862
13006TIP3    H160433   5.005   5.939   4.539 -0.0106 -0.0087  0.1325
13006TIP3    H260434   4.863   5.948   4.591  0.5167  1.7279  1.3565
13007TIP3   OH260435   5.026   3.049  14.318  0.5495  0.1807 -0.0564
13007TIP3    H160436   5.066   2.975  14.365  0.7770  1.2400  1.4995
13007TIP3    H260437   5.020   3.019  14.227  1.6691 -1.3196  0.3172
13008TIP3   OH260438   1.440   4.017   2.111 -0.4363  0.3124 -0.4615
13008TIP3    H160439   1.460   3.924   2.097  0.2835  0.4139 -0.1659
13008TIP3    H260440   1.388   4.018   2.192 -1.0602  0.1061 -0.8539
13009TIP3   OH260441   5.434   2.988   2.459 -0.3153  0.1525 -0.5083
13009TIP3    H160442   5.386   3.013   2.380  0.2585 -1.6995 -1.5113
13009TIP3    H260443   5.389   2.909   2.490  0.5159 -0.1454 -0.0100
13010TIP3   OH260444   3.650   3.460   0.519 -0.0812  0.8043  0.1595
13010TIP3    H160445   3.719   3.400   0.492 -1.5194 -0.4406 -0.9201
13010TIP3    H260446   3.632   3.513   0.441 -1.6039 -0.1745 -0.2018
13011TIP3   OH260447   1.824   2.185   2.182  0.2263 -0.2246  0.0750
13011TIP3    H160448   1.857   2.102   2.146  1.2998 -0.0329  0.5641
13011TIP3    H260449   1.766   2.159   2.253  0.5875 -0.5588  0.2502
13012TIP3   OH260450   4.743   5.857  11.153  0.1912  0.1570  0.2263
13012TIP3    H160451   4.774   5.788  11.212  0.2918 -0.1744 -0.2021
13012TIP3    H260452   4.652   5.835  11.135 -0.1806  0.8977  1.1540
13013TIP3   OH260453   5.131   1.405   1.287  0.5268 -0.0163  1.1302
13013TIP3    H160454   5.134   1.371   1.198  1.4836  3.0252 -0.1460
13013TIP3    H260455   5.214   1.378   1.327 -0.4364 -2.4541  1.6226
13014TIP3   OH260456   2.324   4.877  15.966 -0.2283 -0.6944 -0.5029
13014TIP3    H160457   2.303   4.814  15.897 -1.2914  0.8205 -1.6435
13014TIP3    H260458   2.383   4.939  15.924  1.1049 -1.0969  0.7106
13015TIP3   OH260459   4.325   1.184  14.040  0.0117  0.2867 -0.0604
13015TIP3    H160460   4.316   1.276  14.014  0.2971 -0.2075 -2.0899
13015TIP3    H260461   4.354   1.188  14.131  1.6049  2.2694 -0.5619
13016TIP3   OH260462   1.248   5.882   0.282 -0.4310 -0.8241  0.4952
13016TIP3    H160463   1.166   5.839   0.257 -0.1273 -0.6300 -0.8954
13016TIP3    H260464   1.305   5.810   0.308 -1.1171 -0.9388  1.7834
13017TIP3   OH260465   2.681   2.645   1.666 -0.0622  0.1554 -0.4086
13017TIP3    H160466   2.750   2.685   1.612  1.1501 -0.7897  0.3979
13017TIP3    H260467   2.695   2.683   1.753 -0.2174 -0.4406 -0.1229
13018TIP3   OH260468   5.511   5.828  16.542  0.1906  0.4641  0.3795
13018TIP3    H160469   5.425   5.834  16.500 -0.0510 -0.4061  0.7272
13018TIP3    H260470   5.495   5.852  16.633  0.1839 -0.3398  0.5964
13019TIP3   OH260471   1.314   3.362  14.135  0.2391  0.1329  0.8867
13019TIP3    H160472   1.362   3.434  14.094 -0.0845  0.1544  0.5398
13019TIP3    H260473   1.222   3.383  14.121  0.1393 -0.6329  0.2643
13020TIP3   OH260474   0.657   2.010   1.649 -0.4707 -0.4859  0.4758
13020TIP3    H160475   0.717   1.997   1.722  1.1930 -0.1641 -0.7921
13020TIP3    H260476   0.710   2.048   1.580 -2.2017  0.0482 -0.6239
13021TIP3   OH260477   2.395   2.256  16.737 -0.0758 -0.6076  0.2497
13021TIP3    H160478   2.331   2.211  16.791  1.1059 -1.1962  1.2250
13021TIP3    H260479   2.480   2.228  16.772  0.7208 -0.0280 -1.1241
13022TIP3   OH260480   4.091   2.410  16.061 -0.3417 -0.2796  0.3011
13022TIP3    H160481   4.117   2.502  16.066  0.5133 -0.2832 -2.4511
13022TIP3    H260482   4.001   2.413  16.028 -0.0789 -0.4138 -0.4441
13023TIP3   OH260483   4.856   1.525   5.297  0.7702 -0.2769 -0.3479
13023TIP3    H160484   4.938   1.514   5.248 -0.3923 -0.2423 -2.4005
13023TIP3    H260485   4.862   1.460   5.367  1.7831 -1.5858 -1.5660
13024TIP3   OH260486   3.319   6.134  12.683  0.1214  0.3149  0.7255
13024TIP3    H160487   3.412   6.148  12.697 -0.0998  0.8070  1.8309
13024TIP3    H260488   3.313   6.050  12.638  1.2232  1.3561 -1.5544
13025TIP3   OH260489   0.843   2.820   4.202  0.1634 -0.5842 -0.6893
13025TIP3    H160490   0.784   2.859   4.267  0.5490  1.6383 -1.5991
13025TIP3    H260491   0.927   2.813   4.247 -0.2602 -1.7834 -0.0565
13026TIP3   OH260492   1.145   3.332  13.277  0.0770 -0.2422 -0.3923
13026TIP3    H160493   1.174   3.399  13.338 -2.2472 -0.1901  0.7492
13026TIP3    H260494   1.111   3.262  13.333  1.8803 -2.1922 -1.5613
13027TIP3   OH260495   0.444   2.804   5.270  0.3756 -0.3006 -0.1062
13027TIP3    H160496   0.482   2.742   5.332 -0.1413 -0.2314  0.2971
13027TIP3    H260497   0.436   2.756   5.188  0.4934 -0.5925  0.0548
13028TIP3   OH260498   5.987   2.703   0.667  0.3490 -0.0888 -0.3799
13028TIP3    H160499   6.064   2.694   0.610  0.6008  1.5584 -0.3603
13028TIP3    H260500   5.921   2.742   0.610  0.1802  0.3442  0.1051
13029TIP3   OH260501   1.532   1.677   3.024 -0.4698  0.2832  0.1439
13029TIP3    H160502   1.612   1.639   3.061 -0.3291  0.2611 -0.1809
13029TIP3    H260503   1.559   1.763   2.992 -0.4889  0.1307 -0.2939
13030TIP3   OH260504   6.519   1.713  17.217  0.5810 -0.0492 -0.4207
13030TIP3    H160505   6.511   1.779  17.286 -1.5606  0.4607 -1.0836
13030TIP3    H260506   6.516   1.629  17.264 -2.8768  0.2261  0.0970
13031TIP3   OH260507   1.334   5.951  13.842 -0.1277  0.1545  0.1023
13031TIP3    H160508   1.385   5.948  13.761  0.6345  1.8521  0.4706
13031TIP3    H260509   1.367   5.878  13.894  1.3729  0.7105 -0.0126
13032TIP3   OH260510   1.960   5.705   4.348  0.0231  0.5416  0.0599
13032TIP3    H160511   2.002   5.791   4.340 -1.8019  1.6188  1.2830
13032TIP3    H260512   1.972   5.681   4.440 -0.8096  0.2355  0.1002
13033TIP3   OH260513   0.230   0.238  14.528  0.0377 -0.1433  0.1499
13033TIP3    H160514   0.197   0.217  14.615 -1.2474 -0.1783 -0.3289
13033TIP3    H260515   0.324   0.249  14.541 -0.2350  0.7175  1.7035
13034TIP3   OH260516   3.518   2.034  16.998 -0.2625  0.3229 -0.6283
13034TIP3    H160517   3.490   2.048  16.907 -1.6171 -0.8732 -0.4256
13034TIP3    H260518   3.507   1.940  17.012 -0.5844  0.5672  0.9261
13035TIP3   OH260519   4.665   4.491   6.632  0.7199  0.7559 -1.1406
13035TIP3    H160520   4.729   4.447   6.688 -0.6134  0.1558 -0.0224
13035TIP3    H260521   4.714   4.514   6.553  1.6200 -2.2605 -1.5877
13036TIP3   OH260522   2.038   2.978  12.967 -0.2464  0.3327  0.0354
13036TIP3    H160523   1.974   2.913  12.939  0.4124 -0.0112 -0.7218
13036TIP3    H260524   2.054   2.959  13.059 -2.6566  1.6396  0.8076
13037TIP3   OH260525   5.441   0.666   3.580  0.3525 -0.4845  0.0587
13037TIP3    H160526   5.415   0.723   3.651 -0.3883 -1.1075  0.2979
13037TIP3    H260527   5.405   0.706   3.501 -2.9955 -2.1966  0.5305
13038TIP3   OH260528   4.381   0.092  11.685  0.1111 -0.0232  0.0961
13038TIP3    H160529   4.452   0.046  11.730  1.4280  1.0068 -0.8599
13038TIP3    H260530   4.354   0.033  11.615  0.7011  0.0045 -0.1536
13039TIP3   OH260531   0.731   6.217   1.025 -0.7012  0.4755 -0.3145
13039TIP3    H160532   0.800   6.176   0.973 -1.1780  1.6406 -1.9473
13039TIP3    H260533   0.778   6.283   1.077 -0.5970  1.6780 -1.8607
13040TIP3   OH260534   1.564   4.685  16.122  0.2528  0.0829  0.4206
13040TIP3    H160535   1.630   4.681  16.191 -0.7131  1.9842  1.5535
13040TIP3    H260536   1.611   4.718  16.046  1.1192 -1.0382  0.4437
13041TIP3   OH260537   4.319   5.898   1.239 -0.0991  0.4305 -0.6446
13041TIP3    H160538   4.291   5.832   1.303  0.8968  0.6099  0.0060
13041TIP3    H260539   4.385   5.852   1.186  1.1134  1.0559  0.2537
13042TIP3   OH260540   4.237   2.827  16.300 -0.6408 -0.0939  0.3605
13042TIP3    H160541   4.246   2.756  16.364  1.2934 -1.0557 -0.8793
13042TIP3    H260542   4.209   2.783  16.220  4.9757 -0.4966 -1.8169
13043TIP3   OH260543   3.507   5.261   5.927  0.0615  0.0349 -0.2654
13043TIP3    H160544   3.554   5.328   5.877  0.3670 -0.2358 -0.3468
13043TIP3    H260545   3.562   5.246   6.005 -0.5653  0.6763  0.3132
13044TIP3   OH260546   0.758   4.582   3.596  0.4442 -0.8271 -0.7288
13044TIP3    H160547   0.784   4.513   3.535  0.7946 -2.3598  1.0594
13044TIP3    H260548   0.670   4.557   3.623 -0.0526  0.3247 -1.2498
13045TIP3   OH260549   0.878   5.938   5.636  0.1183  0.1845  0.4644
13045TIP3    H160550   0.941   6.007   5.615 -0.0117 -0.3504 -2.0164
13045TIP3    H260551   0.924   5.857   5.613 -0.7791 -0.3530  0.5249
13046TIP3   OH260552   1.621   3.628   4.847 -0.1806  0.0846  0.3696
13046TIP3    H160553   1.636   3.608   4.755  2.4801 -0.6650  0.8628
13046TIP3    H260554   1.569   3.554   4.879  1.7376 -1.4666  0.1316
13047TIP3   OH260555   2.506   1.035  11.854 -0.1236  0.2568  0.1751
13047TIP3    H160556   2.501   1.109  11.914  0.2925 -0.8341  1.6144
13047TIP3    H260557   2.494   1.073  11.767 -1.0419  1.8494  0.9573
13048TIP3   OH260558   5.002   3.005   5.354  0.3012  0.2275  0.4187
13048TIP3    H160559   4.942   2.966   5.417 -0.6415  0.4345 -0.3330
13048TIP3    H260560   4.982   2.961   5.271 -0.0035  1.5095 -0.2039
13049TIP3   OH260561   0.472   1.576  12.640 -0.2273  0.0358 -1.2622
13049TIP3    H160562   0.507   1.662  12.614 -0.1650  0.3163 -0.2818
13049TIP3    H260563   0.378   1.583  12.622 -0.1127  0.0404 -1.8854
13050TIP3   OH260564   5.021   5.821   4.021  0.4356  0.2432  0.3907
13050TIP3    H160565   4.970   5.882   4.074  1.2359  0.7113  0.6486
13050TIP3    H260566   5.000   5.735   4.058 -0.1093  0.4309  0.5307
13051TIP3   OH260567   0.723   2.489  16.107 -0.0892 -0.1440  0.3321
13051TIP3    H160568   0.805   2.538  16.110  0.0220 -0.3422  0.5817
13051TIP3    H260569   0.737   2.414  16.165 -0.7365  0.2624  1.0358
13052TIP3   OH260570   6.328   5.682   4.652  0.3734 -0.0521 -0.3571
13052TIP3    H160571   6.335   5.667   4.747 -0.7571  1.2312 -0.0391
13052TIP3    H260572   6.235   5.700   4.637  0.4355 -0.8188 -1.8141
13053TIP3   OH260573   5.112   5.381   5.709 -0.2295  0.2717 -0.4480
13053TIP3    H160574   5.113   5.445   5.638  2.4570  0.1442 -0.6050
13053TIP3    H260575   5.174   5.416   5.774 -3.5162  1.1025  2.6092
13054TIP3   OH260576   3.002   1.769  17.304 -0.2788  0.2181  0.2792
13054TIP3    H160577   3.011   1.863  17.288 -2.1773  0.2535 -0.9331
13054TIP3    H260578   2.920   1.761  17.352 -0.3482 -0.8467  0.0067
13055TIP3   OH260579   0.091   4.801  13.943  0.2410  0.1798  0.3610
13055TIP3    H160580   0.134   4.731  13.992  0.5317  0.3634  0.3716
13055TIP3    H260581   0.161   4.842  13.894 -0.1426 -0.4054 -0.7128
13056TIP3   OH260582   6.667   0.952  11.320  0.8950 -0.1464  0.5039
13056TIP3    H160583   6.710   0.882  11.271  0.8259 -1.1543  1.8360
13056TIP3    H260584   6.716   0.959  11.402  0.6289  1.0817  0.5865
13057TIP3   OH260585   5.683   4.687  13.855 -0.5287 -0.2197 -0.4520
13057TIP3    H160586   5.752   4.739  13.896 -0.1505  0.8836 -2.3565
13057TIP3    H260587   5.607   4.698  13.912 -0.3151  2.0353 -0.5125
13058TIP3   OH260588   5.252   1.877   6.503  0.0237  0.3238  0.5131
13058TIP3    H160589   5.178   1.917   6.548  0.8419  1.0356  1.2649
13058TIP3    H260590   5.243   1.907   6.412  0.3014  1.7913  0.9435
13059TIP3   OH260591   5.027   2.899  13.573 -0.1737 -0.2539  0.2933
13059TIP3    H160592   4.946   2.930  13.614 -0.6077 -1.7426  0.5937
13059TIP3    H260593   5.095   2.957  13.609 -1.1478  1.3806 -0.4033
13060TIP3   OH260594   4.985   5.985  16.297  0.0198 -0.1393  0.0385
13060TIP3    H160595   4.933   6.065  16.296 -0.7271 -0.6226 -0.0748
13060TIP3    H260596   4.957   5.940  16.376  0.8411 -0.0388  0.4007
13061TIP3   OH260597   3.211   0.862  15.267 -0.0855 -0.3507 -0.7381
13061TIP3    H160598   3.177   0.773  15.254 -0.9121 -0.4457  1.6558
13061TIP3    H260599   3.304   0.849  15.285 -0.5189 -0.9849  1.3793
13062TIP3   OH260600   5.634   1.424  16.145 -0.0155 -0.2397 -0.5544
13062TIP3    H160601   5.649   1.344  16.094 -2.7184 -1.6887  0.7568
13062TIP3    H260602   5.575   1.476  16.091 -0.3654 -0.3405 -0.2716
13063TIP3   OH260603   4.410   5.314   0.624 -0.3964  0.4469 -0.9059
13063TIP3    H160604   4.387   5.267   0.543 -0.9845  2.6577 -2.1022
13063TIP3    H260605   4.332   5.306   0.679 -0.2085 -0.5763 -0.7625
13064TIP3   OH260606   2.130   1.137   5.307 -0.8879  0.4402  0.3610
13064TIP3    H160607   2.055   1.171   5.357 -0.5018  2.1190 -0.1175
13064TIP3    H260608   2.186   1.095   5.372 -0.5929  2.2270  1.3323
13065TIP3   OH260609   2.516   6.448  16.527 -0.1237  0.6382  0.5053
13065TIP3    H160610   2.599   6.452  16.575 -0.5618  1.1945  1.2336
13065TIP3    H260611   2.511   6.357  16.496  0.7418  0.5948  0.4715
13066TIP3   OH260612   3.410   1.324  15.006 -0.0187  0.1685 -0.2436
13066TIP3    H160613   3.487   1.278  15.038  0.1335 -0.2959 -1.2431
13066TIP3    H260614   3.368   1.263  14.947 -1.5832  0.1369  0.8393
13067TIP3   OH260615   1.551   4.433  14.626 -0.2463 -0.3116 -0.2755
13067TIP3    H160616   1.628   4.408  14.677  0.4619 -0.0811 -1.1893
13067TIP3    H260617   1.516   4.350  14.593 -0.8724 -0.4821  0.7982
13068TIP3   OH260618   4.035   0.995   4.335 -0.0636  0.2968  0.3159
13068TIP3    H160619   3.982   0.924   4.297  0.1655  1.0578 -1.5186
13068TIP3    H260620   4.102   0.950   4.386 -1.4764 -0.7191  1.4010
13069TIP3   OH260621   3.414   2.630  14.080 -0.5402 -0.1138 -0.0810
13069TIP3    H160622   3.327   2.607  14.048 -0.4474 -1.0247  0.2921
13069TIP3    H260623   3.400   2.658  14.170 -0.3161 -1.4526  0.3948
13070TIP3   OH260624   5.192   3.023   1.303  0.0935 -0.1251 -0.5301
13070TIP3    H160625   5.234   2.940   1.323  0.9317 -0.0411 -1.8565
13070TIP3    H260626   5.256   3.089   1.328 -0.9197  0.2081  1.3897
13071TIP3   OH260627   4.883   6.464  14.009 -0.3431 -0.4650 -0.2168
13071TIP3    H160628   4.919   6.530  13.949  0.6152  0.3676  1.2206
13071TIP3    H260629   4.812   6.509  14.055 -0.1432 -0.6514  0.2806
13072TIP3   OH260630   4.507   3.214  14.081  0.4509 -0.4055  0.1970
13072TIP3    H160631   4.494   3.177  13.994 -1.2554  0.0980  0.1983
13072TIP3    H260632   4.548   3.299  14.065 -3.3128  1.4760 -0.5284
13073TIP3   OH260633   0.468   1.302   3.686  0.1096  0.0970  0.5951
13073TIP3    H160634   0.419   1.383   3.678  0.3135  0.1948  0.3188
13073TIP3    H260635   0.407   1.234   3.658  0.3938  0.3026 -0.5408
13074TIP3   OH260636   3.539   1.422   5.448 -0.1685 -0.6464 -0.4323
13074TIP3    H160637   3.475   1.375   5.502  0.7411 -1.0154  0.3640
13074TIP3    H260638   3.551   1.368   5.371  0.2649 -1.3424  0.1066
13075TIP3   OH260639   1.543   1.809   5.494  0.0406  0.2897  0.0246
13075TIP3    H160640   1.459   1.824   5.537 -0.9800  0.0018 -1.7842
13075TIP3    H260641   1.608   1.841   5.557 -1.5292  3.1434  0.3521
13076TIP3   OH260642   6.358   2.429  15.088 -0.4514  0.0703 -0.5169
13076TIP3    H160643   6.364   2.472  15.003  1.1876  0.3412 -0.3022
13076TIP3    H260644   6.293   2.480  15.136  0.8248  1.8343 -0.5742
13077TIP3   OH260645   4.814   3.218   1.938  0.4788  0.1471  1.2005
13077TIP3    H160646   4.733   3.198   1.890  0.7737  1.2733  0.1834
13077TIP3    H260647   4.799   3.183   2.026 -0.8908 -0.1596  0.8677
13078TIP3   OH260648   1.971   1.460   4.959  0.1988 -0.1986  0.2360
13078TIP3    H160649   2.034   1.531   4.950 -0.2077  0.2477  0.8717
13078TIP3    H260650   1.905   1.477   4.893 -0.2087  0.3480  0.7781
13079TIP3   OH260651   0.963   1.773  11.698  0.3497  0.1213 -0.0110
13079TIP3    H160652   1.021   1.771  11.623  0.0899 -0.9818 -0.2070
13079TIP3    H260653   0.875   1.770  11.661  0.2174 -0.3373  0.3284
13080TIP3   OH260654   0.052   6.258   3.767  0.1857 -0.0409  0.6650
13080TIP3    H160655   0.130   6.237   3.817  1.4850  1.1141 -0.7627
13080TIP3    H260656  -0.020   6.221   3.817  1.7856 -3.1110  0.9423
13081TIP3   OH260657   1.289   6.690  13.031  0.0112 -0.1338  0.4340
13081TIP3    H160658   1.282   6.619  12.968  0.8291 -0.2038  0.4124
13081TIP3    H260659   1.277   6.648  13.116  0.6100 -0.3238  0.4288
13082TIP3   OH260660   3.966   6.014   4.582  0.2544 -0.3279 -0.8558
13082TIP3    H160661   3.973   6.099   4.539 -0.4655 -0.5231 -1.3744
13082TIP3    H260662   3.908   5.963   4.526 -0.5251 -0.6607  0.2145
13083TIP3   OH260663   6.128   5.283  13.657  0.1418 -0.4623  0.1463
13083TIP3    H160664   6.145   5.246  13.743 -0.7689  1.4593  1.2272
13083TIP3    H260665   6.212   5.321  13.630  0.9107 -2.6434 -0.6925
13084TIP3   OH260666   5.652   4.262  16.960  0.3244  0.3593 -0.3823
13084TIP3    H160667   5.679   4.184  16.912  0.3720  0.7353 -0.9716
13084TIP3    H260668   5.726   4.281  17.018  1.1181  1.0630 -1.5960
13085TIP3   OH260669   3.944   5.232  14.621  0.2277  0.4421 -0.3863
13085TIP3    H160670   3.919   5.223  14.713  0.4568 -0.0668 -0.3687
13085TIP3    H260671   3.946   5.326  14.606 -1.5624  0.5110 -0.3604
13086TIP3   OH260672   2.631   6.599  15.581 -0.1936  0.4461  0.2531
13086TIP3    H160673   2.588   6.629  15.661 -0.1545 -0.4180  0.6070
13086TIP3    H260674   2.559   6.571  15.524 -0.2553  1.5774 -0.2393
13087TIP3   OH260675   4.519   3.185   1.529 -0.0743 -0.1201  0.1801
13087TIP3    H160676   4.596   3.210   1.478 -0.4460  0.9747  0.1308
13087TIP3    H260677   4.547   3.190   1.620 -0.0975  0.3431  0.1641
13088TIP3   OH260678   4.552   1.285  12.730 -0.3662 -0.2614  0.0482
13088TIP3    H160679   4.645   1.285  12.752 -0.2368 -0.2681 -0.4930
13088TIP3    H260680   4.512   1.343  12.795 -0.0055 -0.3630  0.3629
13089TIP3   OH260681   6.333   1.608  11.502  0.4331 -0.1381 -0.0158
13089TIP3    H160682   6.287   1.548  11.560  1.6227  0.0766  1.2103
13089TIP3    H260683   6.365   1.553  11.430  1.1152 -0.9221  0.8569
13090TIP3   OH260684   1.770   5.573  14.514 -0.3590 -0.1084  0.0149
13090TIP3    H160685   1.701   5.638  14.508 -0.3257  0.1673  1.9844
13090TIP3    H260686   1.850   5.624  14.528  0.3791 -0.3933 -2.7317
13091TIP3   OH260687   4.830   0.104   3.829  0.4007 -0.2004  0.0197
13091TIP3    H160688   4.795   0.111   3.741  1.9176 -0.1962 -0.6224
13091TIP3    H260689   4.806   0.186   3.871  1.5115  0.7652 -1.1338
13092TIP3   OH260690   0.696   2.162  11.791  0.2159 -0.3633  0.3659
13092TIP3    H160691   0.745   2.116  11.722 -0.7183 -0.0869 -0.5163
13092TIP3    H260692   0.605   2.156  11.762 -0.1381  0.1707  1.3566
13093TIP3   OH260693   1.200   4.138   4.634  1.0118  0.0421 -0.4012
13093TIP3    H160694   1.149   4.058   4.626  0.2651  0.3957  0.5313
13093TIP3    H260695   1.169   4.194   4.563  0.0178  0.2747  0.1868
13094TIP3   OH260696   5.536   3.612  12.193  0.3023  0.1326  0.1894
13094TIP3    H160697   5.494   3.690  12.155  1.6181 -0.1804 -2.1396
13094TIP3    H260698   5.470   3.544  12.185  0.3804  0.1882 -1.2565
13095TIP3   OH260699   3.822   0.153  12.075 -0.1030 -0.0933  0.2767
13095TIP3    H160700   3.741   0.199  12.054  0.5703  1.0375  0.0595
13095TIP3    H260701   3.826   0.081  12.013  0.9254  2.0883 -2.3753
13096TIP3   OH260702   3.596   1.576   4.001  0.1515  0.4015  0.3528
13096TIP3    H160703   3.544   1.509   3.955  0.8132 -0.3372  0.6503
13096TIP3    H260704   3.635   1.628   3.932 -1.6138  1.4848  0.1237
13097TIP3   OH260705   2.995   0.591  12.467 -0.1714  0.0665 -0.6620
13097TIP3    H160706   2.974   0.600  12.374 -1.8592  1.4958 -0.1855
13097TIP3    H260707   2.932   0.526  12.500 -0.1212  0.1737 -0.3525
13098TIP3   OH260708   0.328   1.462   3.466  0.2193 -0.2723  0.6869
13098TIP3    H160709   0.261   1.481   3.531 -0.6700 -0.7655 -0.0700
13098TIP3    H260710   0.346   1.369   3.475 -0.5714 -0.5444 -0.3677
13099TIP3   OH260711   2.660   5.242  13.181 -0.1011 -0.3543 -0.7930
13099TIP3    H160712   2.681   5.233  13.088  0.0221 -0.9512 -0.7116
13099TIP3    H260713   2.613   5.325  13.187  0.5064  0.0362 -1.2827
13100TIP3   OH260714   6.596   2.735   3.311  0.0585 -0.0650 -0.2586
13100TIP3    H160715   6.537   2.801   3.348  0.3613 -0.1325  0.3577
13100TIP3    H260716   6.545   2.654   3.313 -0.3173  0.1457 -1.0260
13101TIP3   OH260717   1.738   6.254   6.058 -0.0512 -0.3265 -0.2678
13101TIP3    H160718   1.712   6.177   6.108 -1.0440  0.7502  0.9547
13101TIP3    H260719   1.688   6.249   5.977 -0.9112 -0.4455  0.2578
13102TIP3   OH260720   5.762   5.533   6.500 -0.0225 -0.3604 -0.1213
13102TIP3    H160721   5.783   5.624   6.522 -0.8054 -0.0429 -0.6576
13102TIP3    H260722   5.667   5.531   6.495 -0.0558 -1.4072  0.6771
13103TIP3   OH260723   2.520   0.432   6.218 -0.8308 -0.2836  0.0553
13103TIP3    H160724   2.588   0.495   6.246  0.0382 -1.2476  0.1691
13103TIP3    H260725   2.556   0.393   6.139 -1.9591  0.2815 -0.7564
13104TIP3   OH260726   6.763   3.607  16.501 -0.4534  0.2807  0.5544
13104TIP3    H160727   6.828   3.678  16.510  0.4184 -0.5609  1.0510
13104TIP3    H260728   6.691   3.635  16.557  0.0265  0.6216  1.0198
13105TIP3   OH260729   5.517   4.236   4.928  0.9230 -0.8312  0.2472
13105TIP3    H160730   5.465   4.265   5.003  0.0904  0.1246 -0.6591
13105TIP3    H260731   5.510   4.141   4.929  1.0009 -0.8402  1.4170
13106TIP3   OH260732   1.543   5.969  11.653  0.0169 -0.3786  0.5924
13106TIP3    H160733   1.462   5.983  11.701  0.3472 -1.3427  1.4810
13106TIP3    H260734   1.582   5.892  11.695  1.6649  0.4041  0.5505
13107TIP3   OH260735   6.088   5.388  15.127 -0.5655  0.3814 -0.1653
13107TIP3    H160736   6.129   5.435  15.054 -2.0673  1.4202 -0.3810
13107TIP3    H260737   6.143   5.409  15.203  1.9714 -1.9928 -1.1664
13108TIP3   OH260738   1.771   4.987  15.085 -0.2798 -0.1615 -0.1289
13108TIP3    H160739   1.736   4.898  15.080  1.4858 -0.8381 -1.5639
13108TIP3    H260740   1.723   5.036  15.018 -0.1420 -0.4629 -0.4483
13109TIP3   OH260741   3.267   6.424  11.644  0.1313  0.0086 -0.4420
13109TIP3    H160742   3.292   6.349  11.590 -1.0310  0.4492 -1.6382
13109TIP3    H260743   3.337   6.487  11.632  0.9522 -0.7314  0.3119
13110TIP3   OH260744   2.089   3.367  16.285  0.0465 -0.3690  0.1939
13110TIP3    H160745   2.063   3.333  16.199 -1.3208  1.0721 -0.0226
13110TIP3    H260746   2.068   3.298  16.347 -0.5534 -0.7718 -0.4519
13111TIP3   OH260747   6.404   0.422   2.143 -0.3591 -0.3678  1.2677
13111TIP3    H160748   6.403   0.379   2.058  1.7577  0.1326  0.9300
13111TIP3    H260749   6.312   0.442   2.161 -1.0547 -2.1983  0.0136
13112TIP3   OH260750   5.421   6.184  11.931  0.2221 -0.6323 -0.0788
13112TIP3    H160751   5.428   6.266  11.979 -1.0472 -0.3062 -0.4090
13112TIP3    H260752   5.466   6.201  11.848  0.0534 -0.3035 -0.1028
13113TIP3   OH260753   1.250   6.434  16.935  0.5698  0.2534 -0.3576
13113TIP3    H160754   1.222   6.429  17.026 -1.8118 -1.0798 -1.0811
13113TIP3    H260755   1.169   6.450  16.885  1.4173 -1.4362 -2.4275
13114TIP3   OH260756   3.603   1.295   2.005  0.4041  0.3059  0.0481
13114TIP3    H160757   3.580   1.244   2.082  0.1712 -1.4252 -1.1233
13114TIP3    H260758   3.520   1.309   1.959  0.6820  0.4000 -0.4356
13115TIP3   OH260759   1.986   3.388  14.166 -0.4622  0.4018  0.4755
13115TIP3    H160760   1.989   3.314  14.105  1.0182  0.1701  0.7885
13115TIP3    H260761   1.992   3.465  14.110  0.3152  0.2064  0.2719
13116TIP3   OH260762   4.453   5.286   1.016 -0.6731 -0.6391  0.0781
13116TIP3    H160763   4.523   5.318   0.959  0.4700 -1.3175  1.0684
13116TIP3    H260764   4.432   5.199   0.983 -2.4580  0.2926 -1.4280
13117TIP3   OH260765   5.991   1.490  13.949  0.2461 -0.0439 -0.0109
13117TIP3    H160766   6.069   1.455  13.905  0.5561 -2.1015  2.0014
13117TIP3    H260767   5.932   1.416  13.956 -1.9112  1.4339 -1.2994
13118TIP3   OH260768   3.597   5.412   2.693  0.9589  0.4936 -0.7941
13118TIP3    H160769   3.651   5.444   2.621  1.8400  2.4592  0.6671
13118TIP3    H260770   3.658   5.400   2.766 -0.1121 -0.1779  0.0360
13119TIP3   OH260771   2.479   4.127  14.443 -0.8147  0.0158 -0.1627
13119TIP3    H160772   2.550   4.066  14.464 -1.6221 -0.3408  1.7300
13119TIP3    H260773   2.425   4.130  14.522 -2.4261  0.9692 -1.2265
13120TIP3   OH260774   2.425   2.158   1.914  0.2864  0.7074  0.1526
13120TIP3    H160775   2.369   2.131   1.987 -0.0629  0.1901 -0.3042
13120TIP3    H260776   2.395   2.106   1.840  1.2530  0.5657 -0.1445
13121TIP3   OH260777   3.592   4.353  11.328  0.2881 -0.1320  0.5466
13121TIP3    H160778   3.631   4.300  11.258  0.3844 -0.2392  0.6808
13121TIP3    H260779   3.518   4.300  11.359 -1.5973  1.1506 -1.4241
13122TIP3   OH260780   4.551   5.020  16.729  1.0456 -0.0443 -0.0420
13122TIP3    H160781   4.497   5.095  16.753  0.3896  0.4174 -2.7030
13122TIP3    H260782   4.633   5.033  16.777 -0.1109  0.7663  1.8059
13123TIP3   OH260783   4.977   3.764  13.287  0.2235 -0.3190  0.8230
13123TIP3    H160784   4.910   3.695  13.284  0.1457 -0.2429  0.7962
13123TIP3    H260785   4.928   3.845  13.273  0.5259 -0.3942 -0.9014
13124TIP3   OH260786   1.622   0.210   5.163  0.3708 -0.1850 -0.3917
13124TIP3    H160787   1.602   0.238   5.252 -1.4495 -1.4343 -0.3467
13124TIP3    H260788   1.608   0.288   5.109 -1.4109 -0.1321  0.0905
13125TIP3   OH260789   0.111   6.589   5.452 -0.2207  0.1581  0.8364
13125TIP3    H160790   0.040   6.648   5.428 -0.8906 -1.6215 -2.1292
13125TIP3    H260791   0.071   6.524   5.510 -0.7903 -0.1691  0.1030
13126TIP3   OH260792   4.848   6.184   0.824  0.4027  0.3722  0.2018
13126TIP3    H160793   4.857   6.178   0.919 -0.2454  0.3328  0.2709
13126TIP3    H260794   4.805   6.269   0.809  0.2272  0.2470 -0.0280
13127TIP3   OH260795   0.554   2.450   3.839  0.0751 -1.1150 -0.4354
13127TIP3    H160796   0.479   2.510   3.836  1.7662  1.1497 -0.2772
13127TIP3    H260797   0.547   2.408   3.924 -0.4648 -0.1479  0.0227
13128TIP3   OH260798   6.085   6.764  17.161 -0.4742  0.5159 -0.5039
13128TIP3    H160799   6.172   6.802  17.153  0.7975 -1.9313  0.6138
13128TIP3    H260800   6.067   6.765  17.255 -1.2978  0.2503 -0.6511
13129TIP3   OH260801   0.320   6.229   0.651  0.1250  0.0520  0.4156
13129TIP3    H160802   0.357   6.144   0.626  0.0121  0.0988  0.0816
13129TIP3    H260803   0.310   6.224   0.746 -0.3057 -0.4841  0.3451
13130TIP3   OH260804   0.181   1.262   5.166  0.3148 -0.1113  0.1109
13130TIP3    H160805   0.274   1.255   5.143  0.4084  1.8729 -0.2762
13130TIP3    H260806   0.165   1.188   5.224  2.0982 -0.5995  0.0274
13131TIP3   OH260807   1.818   4.260  13.930 -0.0911 -0.0274  0.3221
13131TIP3    H160808   1.894   4.204  13.913 -1.5821 -2.2838  0.5458
13131TIP3    H260809   1.828   4.286  14.022  0.8325  0.4256  0.1019
13132TIP3   OH260810   2.532   3.520   5.056 -0.2530 -0.6103 -0.2801
13132TIP3    H160811   2.510   3.457   5.124  0.0861  0.6002  1.0061
13132TIP3    H260812   2.450   3.538   5.011 -0.7088 -0.5752  0.5618
13133TIP3   OH260813   0.199   5.921   3.706  0.7353  0.1334  0.2212
13133TIP3    H160814   0.181   5.984   3.636 -0.9342 -0.3602  0.1754
13133TIP3    H260815   0.289   5.892   3.688  0.3247 -0.0516 -1.7953
13134TIP3   OH260816   1.177   0.569   2.013  0.1893  0.2224  0.0671
13134TIP3    H160817   1.192   0.627   1.939  2.9515  0.4877  0.7323
13134TIP3    H260818   1.125   0.622   2.074 -1.5142  0.2342 -1.2961
13135TIP3   OH260819   2.676   3.583  14.055 -0.0765 -0.0616 -0.5353
13135TIP3    H160820   2.597   3.627  14.026  0.2832  1.0256  0.0782
13135TIP3    H260821   2.687   3.610  14.146  0.0475 -1.6039 -0.0582
13136TIP3   OH260822   3.231   3.235   3.029 -0.0295 -0.1896  0.1902
13136TIP3    H160823   3.151   3.282   3.054 -0.9622 -1.8638  0.5121
13136TIP3    H260824   3.229   3.234   2.933  1.0982  2.1547  0.0688
13137TIP3   OH260825   2.419   4.487   2.567  0.0886 -0.0053 -0.1018
13137TIP3    H160826   2.494   4.429   2.582  1.4146  2.0403  1.7418
13137TIP3    H260827   2.447   4.543   2.494 -0.5630 -0.6243 -0.8462
13138TIP3   OH260828   0.538   2.111  15.137 -0.0926 -0.2189 -0.1950
13138TIP3    H160829   0.593   2.113  15.216 -1.0733  0.0495  0.5076
13138TIP3    H260830   0.562   2.190  15.089 -0.3457  0.2569  0.4501
13139TIP3   OH260831   3.739   5.190   3.362  0.4114 -0.0385  0.1817
13139TIP3    H160832   3.755   5.101   3.392 -2.7686 -0.0713  2.1778
13139TIP3    H260833   3.803   5.243   3.409 -0.4732 -0.8359  2.4054
13140TIP3   OH260834   4.253   1.597  12.027  0.2203 -0.1399  0.1605
13140TIP3    H160835   4.348   1.606  12.018  0.0682  1.2535 -0.3566
13140TIP3    H260836   4.220   1.591  11.938 -0.2379  0.1734  0.3003
13141TIP3   OH260837   5.846   1.736  12.168  0.6202  0.3665 -0.2507
13141TIP3    H160838   5.895   1.673  12.221 -1.8900 -0.4413  1.2799
13141TIP3    H260839   5.825   1.689  12.087  1.4285  0.3694 -0.4711
13142TIP3   OH260840   1.087   0.823  17.101 -0.2544  0.6530 -0.3291
13142TIP3    H160841   1.094   0.752  17.165  0.4841  0.3074 -0.7974
13142TIP3    H260842   0.995   0.849  17.106 -0.6287 -0.5966 -0.4424
13143TIP3   OH260843   2.782   2.112  11.559 -0.3482  0.1385  0.0921
13143TIP3    H160844   2.715   2.102  11.627  0.1239  0.0056  0.5433
13143TIP3    H260845   2.858   2.064  11.593  0.9565  2.6109  0.9025
13144TIP3   OH260846   4.920   2.057  13.874 -0.0297  0.6655 -0.0920
13144TIP3    H160847   5.011   2.031  13.886 -0.3899 -0.3335  0.6874
13144TIP3    H260848   4.916   2.147  13.907  0.4181  0.2633  1.1239
13145TIP3   OH260849   2.153   1.970   4.981 -0.2825 -0.4696 -0.2282
13145TIP3    H160850   2.117   2.050   5.021 -0.2971 -0.3577 -0.4629
13145TIP3    H260851   2.197   2.001   4.902  0.4682 -0.5897  0.1400
13146TIP3   OH260852   5.998   5.110   4.089  0.0420 -0.0711 -0.0214
13146TIP3    H160853   6.027   5.181   4.033 -0.9170  1.3756  1.2220
13146TIP3    H260854   5.918   5.143   4.130  0.1087 -1.4822  1.3477
13147TIP3   OH260855   5.391   2.271  11.403  0.0521 -0.0760 -0.4033
13147TIP3    H160856   5.351   2.313  11.328 -1.2756 -0.8487 -0.1559
13147TIP3    H260857   5.319   2.227  11.448  0.6965  0.7854  1.6214
13148TIP3   OH260858   4.205   5.742   4.513 -0.3450 -0.0550  0.5080
13148TIP3    H160859   4.150   5.682   4.462  0.5348 -2.5100  2.2028
13148TIP3    H260860   4.154   5.758   4.593  0.0950  0.1554  0.7494
13149TIP3   OH260861   5.066   3.399   1.446 -0.4503 -0.3741 -0.0827
13149TIP3    H160862   5.136   3.341   1.474 -1.9021 -1.5907  1.1753
13149TIP3    H260863   5.008   3.406   1.522 -2.3809 -0.4680 -1.4557
13150TIP3   OH260864   5.981   3.078   2.037 -0.5249 -0.0300  0.1063
13150TIP3    H160865   5.945   2.993   2.064 -1.3451 -0.0672 -0.9982
13150TIP3    H260866   5.984   3.130   2.117  0.8522 -1.3687  1.0006
13151TIP3   OH260867   3.181   4.312  16.428 -0.6562  0.0987 -0.0504
13151TIP3    H160868   3.240   4.370  16.380  1.1471 -1.7424 -0.2034
13151TIP3    H260869   3.135   4.263  16.360 -0.6105 -0.1270  0.0805
13152TIP3   OH260870   1.242   2.145   4.828 -0.1419  0.0514 -0.0309
13152TIP3    H160871   1.221   2.237   4.842 -2.7921 -0.3064 -1.0439
13152TIP3    H260872   1.240   2.134   4.733  3.5779 -0.4185 -0.1944
13153TIP3   OH260873   3.824   5.614   0.387  0.2621  0.3874  0.5749
13153TIP3    H160874   3.803   5.685   0.327 -1.7042 -0.0740  0.6552
13153TIP3    H260875   3.840   5.657   0.471 -0.2467  0.7832  0.4719
13154TIP3   OH260876   3.626   1.054  16.245  0.0126 -0.1120 -0.2072
13154TIP3    H160877   3.542   1.063  16.288  0.2817 -0.1193  0.3277
13154TIP3    H260878   3.637   1.136  16.196 -2.5281 -1.9627 -4.3769
13155TIP3   OH260879   6.698   2.276  15.395  0.0923  0.3889 -0.2377
13155TIP3    H160880   6.605   2.275  15.374  0.0920  0.0505 -0.2230
13155TIP3    H260881   6.718   2.368  15.413 -0.8914  0.1456  2.6139
13156TIP3   OH260882   6.753   3.132   0.628 -0.1148  0.0690 -0.0661
13156TIP3    H160883   6.831   3.156   0.577  1.0328 -0.9582  1.1155
13156TIP3    H260884   6.691   3.099   0.564  0.3806  0.9906 -1.0478
13157TIP3   OH260885   2.648   2.800  17.303 -0.0922 -0.8185 -0.3038
13157TIP3    H160886   2.571   2.836  17.259 -0.6592 -1.1076  0.4247
13157TIP3    H260887   2.663   2.715  17.261  1.4249  0.3252 -2.2286
13158TIP3   OH260888   6.594   3.722  17.003 -0.0639 -0.6242 -0.0456
13158TIP3    H160889   6.672   3.667  16.996  0.3364 -0.2091  0.9714
13158TIP3    H260890   6.529   3.679  16.948  0.8901 -0.9562 -0.9448
13159TIP3   OH260891   0.114   2.587  14.839  0.4340  0.4060  0.0311
13159TIP3    H160892   0.160   2.619  14.762  3.3248  0.2205  1.5435
13159TIP3    H260893   0.098   2.664  14.892 -0.4120  0.3759 -0.1683
13160TIP3   OH260894   0.634   2.539   2.136  0.2753 -0.3796  0.1496
13160TIP3    H160895   0.569   2.472   2.157 -1.4821  0.5639 -1.8886
13160TIP3    H260896   0.597   2.621   2.170 -0.2032  0.3417 -1.9451
13161TIP3   OH260897   1.141   6.589   5.477  0.2589 -0.3225  0.2826
13161TIP3    H160898   1.226   6.627   5.452  0.0239 -0.2560 -0.4462
13161TIP3    H260899   1.109   6.548   5.397 -1.0359  0.8568  0.1693
13162TIP3   OH260900   2.125   4.325  14.178 -0.0459 -0.5391  0.2962
13162TIP3    H160901   2.173   4.404  14.203 -1.1314 -0.2215  1.4647
13162TIP3    H260902   2.192   4.257  14.176  0.8755  0.3380 -0.5224
13163TIP3   OH260903   3.340   6.325   3.067  0.3214 -0.6505  0.1868
13163TIP3    H160904   3.355   6.231   3.077 -1.1120 -0.9772 -0.4217
13163TIP3    H260905   3.284   6.332   2.990 -0.5346  0.6234  0.8840
13164TIP3   OH260906   3.727   4.505   2.979 -0.1536  0.1377  0.0431
13164TIP3    H160907   3.677   4.447   2.922 -0.6918  2.5590 -2.1503
13164TIP3    H260908   3.801   4.452   3.008  0.2798 -1.2612 -3.1366
13165TIP3   OH260909   4.746   0.747  13.930  0.1530 -0.1180 -0.2599
13165TIP3    H160910   4.814   0.679  13.927 -0.9632 -1.3211  0.5636
13165TIP3    H260911   4.729   0.767  13.838 -0.8675 -2.4443 -0.6749
13166TIP3   OH260912   5.539   4.288  13.331 -0.4777  0.1162  0.2114
13166TIP3    H160913   5.582   4.315  13.250  0.1395  0.9395  0.8004
13166TIP3    H260914   5.460   4.242  13.301  0.9814 -1.8273 -0.8909
13167TIP3   OH260915   2.608   1.216  14.047 -0.1211 -0.0738  0.2384
13167TIP3    H160916   2.561   1.254  14.121  3.5972  1.8635  1.8980
13167TIP3    H260917   2.623   1.290  13.988 -0.3166 -0.9409 -0.9312
13168TIP3   OH260918   1.930   2.284  12.449  0.2222 -0.3678  0.2590
13168TIP3    H160919   1.864   2.231  12.494 -0.6656  1.7937  1.6869
13168TIP3    H260920   2.002   2.292  12.511  0.7577 -0.6559 -0.3111
13169TIP3   OH260921   2.589   5.385  14.000 -0.1885 -0.4557  0.1070
13169TIP3    H160922   2.568   5.405  14.091 -0.4624 -0.0466 -0.0445
13169TIP3    H260923   2.520   5.428  13.949  1.9352  2.5729 -0.5193
13170TIP3   OH260924   2.616   1.880  15.949  0.5739  0.1845  0.3979
13170TIP3    H160925   2.626   1.888  16.044  0.1283  1.6759  0.3448
13170TIP3    H260926   2.543   1.939  15.928 -1.5184 -2.4981 -0.4826
13171TIP3   OH260927   2.447   4.790   1.214  0.2363 -0.3373 -0.0107
13171TIP3    H160928   2.387   4.716   1.225  1.1967 -0.8556  2.6376
13171TIP3    H260929   2.495   4.770   1.134  0.3803 -2.5544  0.5492
13172TIP3   OH260930   6.021   2.129   5.402 -0.4807 -0.2839  0.1429
13172TIP3    H160931   6.002   2.096   5.314 -0.0001 -3.4258  1.1104
13172TIP3    H260932   5.946   2.103   5.455  0.2754 -0.4992  1.1425
13173TIP3   OH260933   4.514   2.522   0.111  0.2158 -0.7932 -0.0963
13173TIP3    H160934   4.475   2.451   0.161 -0.2697 -0.7388 -0.3912
13173TIP3    H260935   4.601   2.534   0.149 -0.4517 -0.1722  1.3095
13174TIP3   OH260936   5.662   2.696  14.550 -0.0905 -0.2070 -0.1336
13174TIP3    H160937   5.612   2.661  14.623  0.1223  0.8056  0.5233
13174TIP3    H260938   5.691   2.619  14.501 -1.3228 -0.8460  0.1102
13175TIP3   OH260939   6.319   0.570   4.549 -0.2101  0.8656 -0.7783
13175TIP3    H160940   6.249   0.513   4.581 -0.3810  1.8206  0.6515
13175TIP3    H260941   6.290   0.658   4.571  1.2689  1.3121 -0.5063
13176TIP3   OH260942   5.635   3.839  13.143 -0.0641  0.2604  0.0996
13176TIP3    H160943   5.689   3.760  13.133  0.9957  0.9478  0.2712
13176TIP3    H260944   5.698   3.910  13.153 -1.0120  1.0536  0.5867
13177TIP3   OH260945   4.625   4.296   4.678  0.2031 -0.1438  0.4645
13177TIP3    H160946   4.559   4.228   4.686  0.1384  0.1419  2.9573
13177TIP3    H260947   4.579   4.370   4.639  0.0084 -1.0905 -1.2079
13178TIP3   OH260948   0.463   2.862   4.258 -0.1537  0.2198 -0.3181
13178TIP3    H160949   0.547   2.889   4.294 -1.0379  0.4221  1.7062
13178TIP3    H260950   0.457   2.909   4.174  1.9716 -0.2555 -0.7817
13179TIP3   OH260951   5.682   0.906   3.622 -0.2798  0.2690  0.0767
13179TIP3    H160952   5.683   0.811   3.630 -0.6252  0.3601  1.3250
13179TIP3    H260953   5.703   0.922   3.530 -0.0989 -1.0036 -0.1223
13180TIP3   OH260954   2.848   0.414   1.140 -0.2849 -0.1717 -0.0538
13180TIP3    H160955   2.822   0.425   1.049 -0.5962 -0.9577 -0.0654
13180TIP3    H260956   2.917   0.479   1.154 -1.8827  1.6481 -0.1726
13181TIP3   OH260957   5.107   5.367  15.506  0.1580  0.4944 -0.4426
13181TIP3    H160958   5.019   5.339  15.532 -0.3440  1.7928 -0.7131
13181TIP3    H260959   5.154   5.285  15.491 -1.0086 -0.2194 -0.3180
13182TIP3   OH260960   6.506   1.490  11.260  0.1903 -0.1954  0.0345
13182TIP3    H160961   6.529   1.496  11.167  0.0300  0.7421  0.0507
13182TIP3    H260962   6.502   1.396  11.277 -1.4101 -0.4061 -1.3191
13183TIP3   OH260963   3.989   6.293  13.247  0.2053 -0.1902 -0.1021
13183TIP3    H160964   3.960   6.374  13.206 -0.2832 -0.1012  0.4078
13183TIP3    H260965   4.078   6.280  13.214  0.3074  0.5804 -0.1470
13184TIP3   OH260966   1.226   2.307   6.276  0.1486 -0.2431  0.5143
13184TIP3    H160967   1.249   2.395   6.245 -0.7278 -0.8315 -1.9887
13184TIP3    H260968   1.306   2.255   6.264  0.3694 -0.0375  1.0577
13185TIP3   OH260969   1.029   3.207   5.400 -0.0997  0.2339  0.0080
13185TIP3    H160970   1.073   3.289   5.420  1.6253 -0.8151  0.7634
13185TIP3    H260971   1.073   3.142   5.455 -3.9367 -0.6662  2.4506
13186TIP3   OH260972   1.135   5.582  12.032 -0.0121  0.3029 -0.1493
13186TIP3    H160973   1.204   5.607  12.094 -2.9245  1.3284  2.9583
13186TIP3    H260974   1.109   5.664  11.991 -2.5179  0.8926  2.3357
13187TIP3   OH260975   6.622   0.277   4.002 -0.2552  0.1758 -0.4956
13187TIP3    H160976   6.615   0.195   4.051  1.3474  0.7931  0.8432
13187TIP3    H260977   6.532   0.295   3.975 -1.1087 -0.6010  1.5856
13188TIP3   OH260978   4.366   5.440  15.161  0.0086  0.1729  0.6798
13188TIP3    H160979   4.336   5.431  15.252 -2.0872  0.2006  0.0542
13188TIP3    H260980   4.371   5.350  15.129 -1.7544  0.2233  0.1323
13189TIP3   OH260981   3.677   5.414  15.476 -0.2907  0.1095 -0.3742
13189TIP3    H160982   3.589   5.402  15.511 -0.1829  2.0804  0.7347
13189TIP3    H260983   3.726   5.338  15.506 -1.2301 -0.2367  0.3113
13190TIP3   OH260984   5.663   1.551   0.285  0.3623 -0.6766  0.4985
13190TIP3    H160985   5.654   1.589   0.198 -2.0850  0.9373  1.3514
13190TIP3    H260986   5.750   1.579   0.314  0.2367  0.8441 -0.4907
13191TIP3   OH260987   6.163   4.612   3.085 -0.3226 -1.5455  0.3167
13191TIP3    H160988   6.069   4.626   3.090 -0.4103 -2.1114  0.2483
13191TIP3    H260989   6.196   4.639   3.170 -0.3531  0.0913 -0.1506
13192TIP3   OH260990   2.576   0.035   1.798 -0.5317 -0.2985  0.1010
13192TIP3    H160991   2.528  -0.036   1.842 -0.7400  0.6514  1.4726
13192TIP3    H260992   2.629  -0.009   1.732 -0.1651 -1.8152  1.3472
13193TIP3   OH260993   3.082   5.416   0.868  0.0075 -0.1795  0.8378
13193TIP3    H160994   3.025   5.403   0.944 -0.0720 -1.0968  0.6334
13193TIP3    H260995   3.143   5.485   0.895 -1.4035  1.0804  0.9366
13194TIP3   OH260996   0.095   3.535   5.422  0.4228  0.0862 -0.5529
13194TIP3    H160997   0.050   3.597   5.364  1.6195  0.3494 -1.2261
13194TIP3    H260998   0.145   3.479   5.363  0.8195 -0.3435  0.1724
13195TIP3   OH260999   5.887   0.374  11.366  0.2640 -0.0562 -0.0131
13195TIP3    H161000   5.861   0.328  11.287  0.4571 -0.0738 -0.0672
13195TIP3    H261001   5.924   0.457  11.335  2.0251 -0.8033 -0.0772
13196TIP3   OH261002   0.348   2.547   5.193 -0.1304  0.7236  0.5581
13196TIP3    H161003   0.376   2.559   5.284 -0.4557  0.7595  0.6531
13196TIP3    H261004   0.388   2.464   5.167 -1.7607 -0.3720  1.4058
13197TIP3   OH261005   5.881   1.332   1.647 -0.6738  0.7761 -0.0455
13197TIP3    H161006   5.898   1.250   1.600 -0.7934  1.5172 -1.4379
13197TIP3    H261007   5.840   1.389   1.581  1.0840  2.5877  0.3424
13198TIP3   OH261008   2.354   3.050  17.271 -0.6659  0.4585  0.0139
13198TIP3    H161009   2.428   3.111  17.271 -1.8092  1.9065 -0.8574
13198TIP3    H261010   2.388   2.970  17.229  0.4673  0.9968 -0.1234
13199TIP3   OH261011   5.196   2.698   3.581 -0.2994  0.1413  0.4481
13199TIP3    H161012   5.257   2.738   3.643  0.8773  0.8245 -1.0954
13199TIP3    H261013   5.178   2.612   3.618 -0.4326  0.8963  2.2433
13200TIP3   OH261014   5.697   5.784  12.835 -0.3504 -0.2803  0.1311
13200TIP3    H161015   5.764   5.847  12.861  0.6217 -1.4969  0.7094
13200TIP3    H261016   5.745   5.701  12.826 -1.5459 -0.9080 -0.7837
13201TIP3   OH261017   5.181   3.239  15.553  0.6938  0.3737 -0.3088
13201TIP3    H161018   5.126   3.170  15.592 -0.2953  0.6621 -1.1434
13201TIP3    H261019   5.147   3.249  15.464  0.9391  1.8132 -0.2657
13202TIP3   OH261020   2.235   4.769  10.999 -0.2746 -0.0347  0.0914
13202TIP3    H161021   2.294   4.836  11.032 -0.7719  0.8342 -0.7283
13202TIP3    H261022   2.276   4.686  11.024  0.1692  0.5656  1.4416
13203TIP3   OH261023   0.143   0.326  12.895 -0.0754  0.1471  0.3607
13203TIP3    H161024   0.186   0.281  12.968  0.6833 -1.4736 -1.0108
13203TIP3    H261025   0.050   0.309  12.907 -0.1797  1.6698  2.0585
13204TIP3   OH261026   5.159   4.234   4.864  0.3002  0.0805  0.1543
13204TIP3    H161027   5.193   4.307   4.915  1.8643 -0.4761 -0.0354
13204TIP3    H261028   5.080   4.205   4.911  0.3092  1.1534  0.8466
13205TIP3   OH261029   4.208   5.482   0.338 -0.0306 -0.1376 -0.5314
13205TIP3    H161030   4.278   5.431   0.379  0.2175 -0.0059 -0.7901
13205TIP3    H261031   4.175   5.538   0.407 -1.6037 -1.9709  0.3230
13206TIP3   OH261032   6.692   0.832  12.656  0.3321 -0.3541 -0.1858
13206TIP3    H161033   6.627   0.804  12.720  0.1597 -0.5765 -0.4540
13206TIP3    H261034   6.756   0.761  12.655  1.1109  0.3013  0.7892
13207TIP3   OH261035   1.486   6.721  16.353  0.0638  0.0470 -0.0519
13207TIP3    H161036   1.550   6.780  16.391  2.1463 -2.0378 -0.1220
13207TIP3    H261037   1.439   6.774  16.289  0.0088  2.2561  1.7158
13208TIP3   OH261038   0.706   3.438   2.120  0.0877 -0.3570  0.1292
13208TIP3    H161039   0.677   3.467   2.207 -2.0198 -1.6133 -0.0797
13208TIP3    H261040   0.709   3.518   2.068 -1.0928  0.1121  0.7328
13209TIP3   OH261041   0.569   3.095  13.241  0.1403  0.1953 -0.0877
13209TIP3    H161042   0.509   3.031  13.281  1.2139 -0.3207  0.7475
13209TIP3    H261043   0.625   3.042  13.183 -0.6934  0.7843 -1.4800
13210TIP3   OH261044   0.384   2.178   5.325  0.2543 -0.2689 -0.2422
13210TIP3    H161045   0.452   2.214   5.383  1.2533 -1.3021 -0.7343
13210TIP3    H261046   0.431   2.153   5.246 -0.6279 -1.3929 -0.4383
13211TIP3   OH261047   1.875   3.828   0.979 -0.3329 -0.5652  0.1179
13211TIP3    H161048   1.780   3.819   0.980 -0.2501 -1.5821  0.1425
13211TIP3    H261049   1.898   3.846   1.070 -0.6067  1.2019 -0.1259
13212TIP3   OH261050   6.368   2.910   2.943  0.1290 -0.4123 -0.3535
13212TIP3    H161051   6.457   2.893   2.913  0.2419  0.0668 -0.2987
13212TIP3    H261052   6.351   2.842   3.008  0.0563 -1.1683 -1.1425
13213TIP3   OH261053   4.894   2.831  12.755  0.2684  0.2963 -0.1349
13213TIP3    H161054   4.881   2.921  12.784  1.1389  1.1272 -2.1324
13213TIP3    H261055   4.985   2.827  12.728 -0.4313 -0.3029 -2.7436
13214TIP3   OH261056   1.746   3.625   5.272 -0.1713  0.0609 -0.8183
13214TIP3    H161057   1.746   3.671   5.356 -0.5230  0.0984 -0.8359
13214TIP3    H261058   1.783   3.539   5.292 -3.0672 -1.1063  0.0539
13215TIP3   OH261059   1.509   4.443  13.131  0.0224 -0.1841  0.2150
13215TIP3    H161060   1.508   4.378  13.060 -0.8400 -0.8821  0.8442
13215TIP3    H261061   1.418   4.451  13.157  0.3251  0.0862  1.2310
13216TIP3   OH261062   3.493   3.070   0.419  0.4077 -0.1757  0.7882
13216TIP3    H161063   3.562   3.079   0.484 -0.4834 -0.0725  1.7554
13216TIP3    H261064   3.475   3.160   0.391  0.7724 -0.2177  0.4106
13217TIP3   OH261065   0.737   0.042   3.597  0.3495  0.4696  0.3553
13217TIP3    H161066   0.720   0.113   3.535 -0.3787 -0.9327 -1.0991
13217TIP3    H261067   0.652   0.021   3.634  0.3702 -0.3832 -0.0588
13218TIP3   OH261068   0.399   5.444  13.206 -0.2754 -0.3844  0.4141
13218TIP3    H161069   0.365   5.359  13.234 -1.4742 -0.4322 -1.0432
13218TIP3    H261070   0.383   5.446  13.112  2.9400  0.0307 -0.2346
13219TIP3   OH261071   0.984   0.925  12.197 -0.8709 -0.3100  0.0612
13219TIP3    H161072   1.046   0.912  12.126  1.8461  0.2710  2.1503
13219TIP3    H261073   0.967   0.838  12.232 -1.0323 -0.4395 -0.3345
13220TIP3   OH261074   3.138   2.101  14.708  0.5474  0.7709  0.0796
13220TIP3    H161075   3.144   2.030  14.772 -1.4041 -0.3070 -0.8470
13220TIP3    H261076   3.089   2.064  14.635 -0.6201  3.0866 -0.4050
13221TIP3   OH261077   6.494   2.867   3.933  0.4538  0.1287 -0.1884
13221TIP3    H161078   6.433   2.823   3.874  1.1440  1.0103 -1.6230
13221TIP3    H261079   6.558   2.909   3.875 -0.8907  4.1571  0.8878
13222TIP3   OH261080   2.702   5.569  16.882 -0.5122  0.5665  0.0329
13222TIP3    H161081   2.692   5.479  16.852 -1.3201  0.7736 -0.3517
13222TIP3    H261082   2.613   5.600  16.895 -0.2887  1.6300 -0.8180
13223TIP3   OH261083   3.394   0.709  13.401  0.0882 -0.3521 -0.0552
13223TIP3    H161084   3.445   0.629  13.389 -0.6752 -0.9214  0.3656
13223TIP3    H261085   3.445   0.761  13.463  1.0857 -0.0526 -1.1079
13224TIP3   OH261086   5.575   4.038  17.307  0.0084 -0.3788  0.3272
13224TIP3    H161087   5.668   4.029  17.287 -0.0430  1.9842 -1.4051
13224TIP3    H261088   5.532   3.980  17.245  0.2518  1.0834 -1.3174
13225TIP3   OH261089   6.640   1.057   4.911  0.2178  0.1288  0.3829
13225TIP3    H161090   6.699   1.117   4.865 -0.4204 -1.0396 -2.1806
13225TIP3    H261091   6.698   1.004   4.966  1.2929  0.4858 -0.3735
13226TIP3   OH261092   4.919   3.832   0.029 -0.1579 -0.7489 -0.2849
13226TIP3    H161093   4.882   3.841  -0.059 -0.4755  3.6375  0.0561
13226TIP3    H261094   4.859   3.879   0.086  1.9687 -0.1126  1.6149
13227TIP3   OH261095   4.862   1.594   0.905  0.0762  0.3706 -0.1368
13227TIP3    H161096   4.783   1.563   0.948 -0.2857  1.6899  0.1971
13227TIP3    H261097   4.831   1.637   0.825  0.6555 -1.0951 -1.1990
13228TIP3   OH261098   5.334   4.257  16.314 -0.4632 -0.0281 -0.1901
13228TIP3    H161099   5.287   4.293  16.390  1.5520  0.8490  0.7261
13228TIP3    H261100   5.416   4.307  16.311  0.7744 -2.0007 -1.2230
13229TIP3   OH261101   0.714   4.325   2.450  0.0337 -0.6985 -0.4105
13229TIP3    H161102   0.743   4.256   2.391 -2.3860 -1.6999 -0.5338
13229TIP3    H261103   0.661   4.280   2.515  1.0421  0.6470  1.4517
13230TIP3   OH261104   3.635   6.100   2.978  0.0629  0.2952  0.3898
13230TIP3    H161105   3.641   6.145   2.894  0.3217 -1.2736 -0.4514
13230TIP3    H261106   3.725   6.096   3.010  0.2650 -1.0112 -0.2994
13231TIP3   OH261107   5.348   2.394  15.564 -0.3886  0.0835  0.2003
13231TIP3    H161108   5.274   2.388  15.624 -0.6416  0.0390 -0.1155
13231TIP3    H261109   5.425   2.389  15.620 -0.5924 -1.9307  0.3882
13232TIP3   OH261110   6.227   0.273   2.743 -0.6453 -0.0347 -0.0860
13232TIP3    H161111   6.158   0.213   2.772 -1.2150 -0.1225 -1.5135
13232TIP3    H261112   6.292   0.217   2.700  0.3455  0.0497  1.2399
13233TIP3   OH261113   5.667   6.605  11.525  0.2522 -0.1309  0.1779
13233TIP3    H161114   5.691   6.513  11.512 -1.7758 -0.4832 -1.6135
13233TIP3    H261115   5.574   6.603  11.545 -0.2700  1.6214 -1.7803
13234TIP3   OH261116   5.530   1.560  15.814  0.2666  0.4238  0.2393
13234TIP3    H161117   5.507   1.606  15.894 -0.3143 -0.4909  0.6116
13234TIP3    H261118   5.622   1.534  15.826 -0.2983 -1.2202  1.3878
13235TIP3   OH261119   4.365   6.234   0.420  0.4033 -0.3099 -0.0620
13235TIP3    H161120   4.437   6.288   0.451  1.1369 -0.9071 -0.7023
13235TIP3    H261121   4.398   6.191   0.342 -0.5571 -0.8034 -0.2207
13236TIP3   OH261122   3.205   2.324   0.649 -0.7191  0.0974  0.4953
13236TIP3    H161123   3.275   2.284   0.598 -1.3552 -1.3659  0.7241
13236TIP3    H261124   3.181   2.257   0.713 -3.8075 -0.3479 -0.9513
13237TIP3   OH261125   6.673   1.777  14.657 -0.0672  0.0029 -0.4143
13237TIP3    H161126   6.703   1.782  14.566 -0.5112 -0.5269 -0.5989
13237TIP3    H261127   6.684   1.865  14.692  3.6023 -0.5113  0.1424
13238TIP3   OH261128   5.077   0.493   1.891 -0.1010 -0.9149  0.1514
13238TIP3    H161129   5.005   0.523   1.947 -0.7129 -0.4364 -0.8820
13238TIP3    H261130   5.041   0.491   1.803  1.1528 -0.6547 -0.3956
13239TIP3   OH261131   3.173   1.827   1.403  0.0445 -0.1101  0.0783
13239TIP3    H161132   3.180   1.915   1.439 -0.5599 -0.1336  0.2727
13239TIP3    H261133   3.142   1.840   1.313 -0.8425 -0.1474  0.3659
13240TIP3   OH261134   1.999   1.579  13.488 -0.2328 -0.3324  0.0649
13240TIP3    H161135   1.917   1.570  13.441 -0.6676 -1.9743  1.0759
13240TIP3    H261136   2.046   1.497  13.472 -0.5620 -1.1314  2.7257
13241TIP3   OH261137   0.924   6.185   3.953  0.4856  0.5369 -0.8929
13241TIP3    H161138   0.921   6.204   3.859 -1.9606 -0.0503 -0.9773
13241TIP3    H261139   0.940   6.270   3.994 -0.9840  1.2567 -1.7369
13242TIP3   OH261140   4.152   2.562  12.353  0.3109  0.0164 -0.5721
13242TIP3    H161141   4.074   2.598  12.311  0.7029  0.2682 -1.0781
13242TIP3    H261142   4.218   2.631  12.347  0.7126 -0.3602 -0.5386
13243TIP3   OH261143   3.792   6.054  14.995  0.6672 -0.7542 -0.2655
13243TIP3    H161144   3.880   6.041  15.030  0.6992  0.0558 -0.0227
13243TIP3    H261145   3.750   6.114  15.056 -0.0912 -1.1873 -0.3314
13244TIP3   OH261146   1.437   5.729   2.097  0.5162 -0.0093  0.1016
13244TIP3    H161147   1.517   5.777   2.117 -0.3272  1.8140 -0.6917
13244TIP3    H261148   1.373   5.762   2.160  0.5254 -2.0168  1.2522
13245TIP3   OH261149   4.156   3.279   1.326 -0.1816  0.1700  0.5523
13245TIP3    H161150   4.171   3.362   1.371  0.4220  0.4579 -0.1499
13245TIP3    H261151   4.244   3.250   1.300 -0.3043 -1.0745  1.4505
13246TIP3   OH261152   1.926   6.387  10.889  0.4850 -0.0351 -0.0557
13246TIP3    H161153   1.984   6.463  10.884  0.2658  0.5987  3.8005
13246TIP3    H261154   1.959   6.337  10.964 -0.2928 -3.0152 -1.5555
13247TIP3   OH261155   5.394   2.315   3.628 -0.0137 -1.3265  0.0383
13247TIP3    H161156   5.407   2.366   3.548 -2.4547 -0.1200  0.3383
13247TIP3    H261157   5.429   2.370   3.698 -0.4463 -1.1253  0.0983
13248TIP3   OH261158   5.028   0.504   5.257 -0.8802  0.6594  0.0281
13248TIP3    H161159   5.066   0.437   5.200 -0.3611  1.7969 -1.0027
13248TIP3    H261160   4.946   0.467   5.287 -1.6302  0.3797 -2.2088
13249TIP3   OH261161   2.672   5.013   3.031  0.1678  0.2534  0.0512
13249TIP3    H161162   2.647   5.079   2.966  1.4656 -0.7405 -1.5348
13249TIP3    H261163   2.750   5.049   3.072  0.5355 -0.0285 -0.3983
13250TIP3   OH261164   3.490   0.624  16.208  0.0164 -0.0115  0.7831
13250TIP3    H161165   3.489   0.716  16.182  1.2953 -0.2420 -0.1841
13250TIP3    H261166   3.531   0.623  16.294  2.1974  0.1433 -0.1901
13251TIP3   OH261167   2.318   1.900  14.938 -0.3698  0.6493 -0.2202
13251TIP3    H161168   2.344   1.866  15.023  1.5187  0.5393 -0.7829
13251TIP3    H261169   2.323   1.824  14.880 -2.5324  0.5142 -0.3032
13252TIP3   OH261170   4.346   4.961  17.015  0.5699 -0.2125 -0.5173
13252TIP3    H161171   4.363   5.026  16.947  0.0290  1.6299  1.0073
13252TIP3    H261172   4.254   4.938  17.003  0.0783  1.1761  0.4126
13253TIP3   OH261173   1.348   0.407  16.388  0.2537 -0.1353  0.2846
13253TIP3    H161174   1.320   0.457  16.312 -0.6863  0.0749  0.7643
13253TIP3    H261175   1.313   0.454  16.463  2.1740  0.3387  0.9452
13254TIP3   OH261176   2.849   3.584   4.113 -0.4092  0.2592 -0.2610
13254TIP3    H161177   2.845   3.679   4.106 -0.7967  0.2008 -0.9832
13254TIP3    H261178   2.784   3.562   4.180  1.2061  0.6352  1.5116
13255TIP3   OH261179   4.543   0.940   2.525  0.0164  0.1803 -0.4845
13255TIP3    H161180   4.504   1.024   2.500  0.2653  0.7593  0.9817
13255TIP3    H261181   4.507   0.878   2.462 -1.7272  1.0408 -0.4120
13256TIP3   OH261182   4.150   5.363  14.989 -0.1738 -0.1672 -0.6369
13256TIP3    H161183   4.173   5.415  14.912 -1.6267  1.4430 -0.0495
13256TIP3    H261184   4.204   5.400  15.060  1.2086 -1.6869 -0.8458
13257TIP3   OH261185   2.211   3.374  13.041  0.2870 -0.4364 -0.0711
13257TIP3    H161186   2.180   3.395  12.953  3.5448  1.1623 -0.9878
13257TIP3    H261187   2.213   3.278  13.044 -2.1862 -0.5578 -0.7777
13258TIP3   OH261188   1.865   6.223  11.834 -0.0915  0.1565  0.1627
13258TIP3    H161189   1.875   6.315  11.860 -0.4644  0.4227 -0.5814
13258TIP3    H261190   1.868   6.226  11.738 -1.6585 -0.4170  0.0820
13259TIP3   OH261191   2.720   1.175   1.254  0.2675  0.3155  0.0898
13259TIP3    H161192   2.694   1.208   1.340  0.3666  0.1626  0.1791
13259TIP3    H261193   2.673   1.092   1.245  2.2317 -0.9825  1.1078
13260TIP3   OH261194   5.679   6.200   3.016 -0.4656  0.4819 -0.6946
13260TIP3    H161195   5.656   6.107   3.009  0.2475  0.2382  0.0087
13260TIP3    H261196   5.697   6.213   3.109 -0.6125  1.3462 -0.7747
13261TIP3   OH261197   4.324   2.691   1.768 -0.3563  0.0041  0.3434
13261TIP3    H161198   4.240   2.736   1.778 -1.1497 -1.2391 -0.4356
13261TIP3    H261199   4.313   2.637   1.689  0.0733 -2.5293  1.9074
13262TIP3   OH261200   2.574   2.153   6.168 -0.7675  0.3963  0.3226
13262TIP3    H161201   2.584   2.066   6.129  1.7668  0.2758  1.0236
13262TIP3    H261202   2.480   2.170   6.166 -1.1272 -1.4151 -1.8075
13263TIP3   OH261203   5.808   1.576   3.622 -0.9634  0.4938  0.0396
13263TIP3    H161204   5.799   1.602   3.531  0.2952  1.9248  0.2789
13263TIP3    H261205   5.892   1.613   3.649 -0.7217 -0.9556  1.4367
13264TIP3   OH261206   6.419   4.642  12.161 -0.2403 -0.0633 -0.2460
13264TIP3    H161207   6.357   4.623  12.090 -1.0143  0.7364  0.1917
13264TIP3    H261208   6.366   4.686  12.227  0.9389  1.2270 -0.1333
13265TIP3   OH261209   1.845   0.351   3.297 -0.4523  0.3333  0.4762
13265TIP3    H161210   1.750   0.342   3.309 -0.3732  0.0763  0.9187
13265TIP3    H261211   1.859   0.333   3.204 -0.8268  0.2955  0.4233
13266TIP3   OH261212   4.306   4.717   1.593 -0.0504 -0.3581  0.0048
13266TIP3    H161213   4.319   4.629   1.556  0.0668 -1.0814  1.6685
13266TIP3    H261214   4.288   4.772   1.518  1.3417 -1.5271 -1.2581
13267TIP3   OH261215   3.325   0.695   0.503  0.5013 -0.0874  0.2549
13267TIP3    H161216   3.250   0.641   0.526  0.1418  0.3537  0.1151
13267TIP3    H261217   3.371   0.708   0.586  1.4078 -1.8077  0.0850
13268TIP3   OH261218   3.190   5.918  13.822  0.1795 -0.0339  0.0736
13268TIP3    H161219   3.248   5.842  13.836  1.4173  0.3579 -2.3795
13268TIP3    H261220   3.189   5.963  13.906  0.7897 -1.8182  1.1082
13269TIP3   OH261221   3.914   5.245  12.764  0.2957  0.4672 -0.1014
13269TIP3    H161222   3.984   5.263  12.827 -1.1536 -2.4542  2.5941
13269TIP3    H261223   3.936   5.160  12.728 -1.2533  0.0339 -0.0742
13270TIP3   OH261224   3.778   4.489   1.364  0.7391  0.0030  0.0157
13270TIP3    H161225   3.798   4.423   1.297  0.3610  0.3331 -0.4272
13270TIP3    H261226   3.787   4.442   1.447 -1.0645 -1.0643 -0.3273
13271TIP3   OH261227   3.304   1.301  12.293  0.3086  0.3137 -0.2591
13271TIP3    H161228   3.340   1.220  12.258 -0.6365 -0.6235  0.8487
13271TIP3    H261229   3.357   1.370  12.253  2.4873 -0.9291  0.2878
13272TIP3   OH261230   0.075   3.373   2.779  0.2347  0.4880 -0.5079
13272TIP3    H161231   0.010   3.408   2.718 -0.2262  2.4830  0.9962
13272TIP3    H261232   0.022   3.336   2.850  0.7463 -2.4036 -1.5031
13273TIP3   OH261233   3.073   4.778  14.954 -0.5612  0.2808 -0.2105
13273TIP3    H161234   3.059   4.837  15.027 -0.7741 -0.8317  0.6747
13273TIP3    H261235   3.068   4.690  14.992 -0.8587 -0.3327 -1.5842
13274TIP3   OH261236   1.009   5.684  15.163  0.2704  0.3421 -1.1057
13274TIP3    H161237   1.083   5.654  15.216 -0.6651 -0.7558 -0.3716
13274TIP3    H261238   0.955   5.734  15.223 -0.5705 -0.5279 -1.1097
13275TIP3   OH261239   5.811   0.997  15.532  0.1491  0.4544  0.3798
13275TIP3    H161240   5.759   0.969  15.456 -0.1546 -0.6114  0.9597
13275TIP3    H261241   5.901   0.974  15.509 -0.3407 -4.4555  2.1351
13276TIP3   OH261242   4.968   1.952  10.971 -0.1202  0.2782 -0.0037
13276TIP3    H161243   5.046   2.000  11.000  0.1526 -0.2111  0.1012
13276TIP3    H261244   4.998   1.902  10.895 -0.5822  0.8057 -0.5422
13277TIP3   OH261245   4.233   0.312  13.700  0.2641 -0.0576  0.0204
13277TIP3    H161246   4.242   0.250  13.628 -0.6708 -0.2227  0.0335
13277TIP3    H261247   4.139   0.326  13.708  0.4588  1.4368 -0.0437
13278TIP3   OH261248   1.647   4.535   2.776  0.2650 -0.4063 -0.3682
13278TIP3    H161249   1.598   4.479   2.837  0.5326  2.0771  2.3092
13278TIP3    H261250   1.735   4.540   2.814 -0.3540  3.6259  0.9220
13279TIP3   OH261251   2.598   3.758  15.098 -0.0714 -0.2315  0.4176
13279TIP3    H161252   2.567   3.682  15.147  0.8086 -1.3781 -0.7236
13279TIP3    H261253   2.626   3.722  15.014 -0.3997  1.4844 -0.4756
13280TIP3   OH261254   1.818   6.400   3.323 -0.1194  0.0671 -0.2510
13280TIP3    H161255   1.725   6.412   3.309 -0.5556 -2.7500 -0.3451
13280TIP3    H261256   1.825   6.360   3.409  1.2040  1.8976  0.5654
13281TIP3   OH261257   1.965   1.572  13.126 -0.6389 -0.1982 -0.0451
13281TIP3    H161258   1.931   1.525  13.202  1.6675 -0.1433  1.1229
13281TIP3    H261259   1.931   1.661  13.135 -2.4292 -0.8015 -0.5111
13282TIP3   OH261260   6.606   6.489   3.976 -0.7620 -0.1661 -0.0061
13282TIP3    H161261   6.560   6.564   4.012  0.2390  1.5217 -1.9928
13282TIP3    H261262   6.582   6.489   3.883  0.2720 -1.5144 -0.3039
13283TIP3   OH261263   1.102   3.899   5.394 -0.2060  0.6812  0.5079
13283TIP3    H161264   1.183   3.946   5.412 -0.6140  1.4260  0.4514
13283TIP3    H261265   1.034   3.951   5.436 -1.1117  2.0800 -2.4024
13284TIP3   OH261266   4.233   3.082   0.310 -0.1237 -0.1656 -0.2564
13284TIP3    H161267   4.152   3.041   0.340  0.8238 -1.3202  0.8395
13284TIP3    H261268   4.295   3.068   0.381  1.0066  0.8180 -1.0084
13285TIP3   OH261269   5.285   1.135  11.253  0.3809 -0.5309  0.2420
13285TIP3    H161270   5.337   1.212  11.276 -1.1211  0.5560  0.1026
13285TIP3    H261271   5.220   1.128  11.323  1.1282 -2.3215  0.8153
13286TIP3   OH261272   2.404   2.023   3.046  0.4686 -0.1654 -0.2110
13286TIP3    H161273   2.435   2.112   3.029  1.6000 -0.0725  2.0904
13286TIP3    H261274   2.484   1.969   3.048 -0.1652 -1.1892 -1.1619
13287TIP3   OH261275   0.996   3.460   0.434  0.5620  0.7073 -0.3416
13287TIP3    H161276   0.952   3.376   0.439  2.4258 -0.2755  0.4600
13287TIP3    H261277   0.949   3.516   0.496 -0.6716  0.2677 -0.8628
13288TIP3   OH261278   4.896   0.474  15.392 -0.1118  0.3928  0.1791
13288TIP3    H161279   4.942   0.446  15.471 -1.7231  0.0619  1.0356
13288TIP3    H261280   4.861   0.394  15.354 -0.9298  0.7500  0.1587
13289TIP3   OH261281   4.833   6.128   2.403 -0.0650  0.5263 -0.1807
13289TIP3    H161282   4.900   6.075   2.446 -1.2729  0.9019  2.3663
13289TIP3    H261283   4.855   6.218   2.426 -0.0303  0.8685 -1.4863
13290TIP3   OH261284   0.953   5.866  12.606 -0.6431  0.0261 -0.3234
13290TIP3    H161285   1.015   5.930  12.640 -1.0755 -0.2591  1.0445
13290TIP3    H261286   0.933   5.810  12.681 -1.2913 -0.8979 -1.1638
13291TIP3   OH261287   3.776   3.583  11.611 -0.3133  0.3059  0.2064
13291TIP3    H161288   3.856   3.625  11.579  0.2063  0.2976  1.4213
13291TIP3    H261289   3.802   3.493  11.631 -0.7703  0.1372  0.0493
13292TIP3   OH261290   0.330   0.240  12.155 -0.1568 -0.6865 -0.4226
13292TIP3    H161291   0.418   0.243  12.193 -0.3627  0.2945  0.0231
13292TIP3    H261292   0.298   0.151  12.174  0.5894 -0.9205 -0.2471
13293TIP3   OH261293   0.225   3.100  14.166  0.0352  0.2555  0.4034
13293TIP3    H161294   0.163   3.131  14.100  0.1956  1.6435  0.8820
13293TIP3    H261295   0.300   3.068  14.115 -1.3903 -2.3510 -0.2338
13294TIP3   OH261296   6.199   5.709  12.439 -0.0530 -0.5444 -0.1918
13294TIP3    H161297   6.128   5.694  12.376 -0.5273 -0.6909  0.3668
13294TIP3    H261298   6.266   5.755  12.389  0.0722 -1.6906 -1.1102
13295TIP3   OH261299   1.099   2.130  11.944  0.0294  0.4658  0.3774
13295TIP3    H161300   1.140   2.203  11.991 -0.1729  0.1952  0.9924
13295TIP3    H261301   1.012   2.162  11.922 -0.4931  0.0381  1.6684
13296TIP3   OH261302   2.427   4.293  15.796 -0.1642  0.0955  0.0240
13296TIP3    H161303   2.385   4.320  15.878  0.1990 -3.3326  1.4995
13296TIP3    H261304   2.372   4.223  15.762  0.8505  0.0045 -1.5427
13297TIP3   OH261305   3.111   2.716   2.662 -0.2467 -0.0743 -0.6344
13297TIP3    H161306   3.202   2.725   2.633 -0.4909  1.7182 -0.9575
13297TIP3    H261307   3.061   2.775   2.605 -1.7718 -1.6529 -1.0283
13298TIP3   OH261308   2.798   1.841   4.217  0.0757  0.0788 -0.1966
13298TIP3    H161309   2.855   1.896   4.164  2.0944 -0.8315  0.9328
13298TIP3    H261310   2.844   1.830   4.299 -0.4079 -2.9756 -0.2234
13299TIP3   OH261311   4.266   2.899  13.662 -0.0916 -0.2573  0.3893
13299TIP3    H161312   4.314   2.916  13.581  1.4400  0.7629  1.4610
13299TIP3    H261313   4.225   2.814  13.649 -0.9741  0.4558 -1.9435
13300TIP3   OH261314   5.210   3.652   3.251  0.0339 -0.6986  0.1574
13300TIP3    H161315   5.286   3.680   3.199 -0.3690 -1.9686 -1.1977
13300TIP3    H261316   5.219   3.557   3.256 -0.7981 -0.7408  1.0784
13301TIP3   OH261317   4.991   1.259  17.313  0.6060 -0.5948 -0.7361
13301TIP3    H161318   5.010   1.253  17.406 -0.0990  1.8319 -0.3776
13301TIP3    H261319   4.899   1.236  17.306 -0.3400  2.5881 -0.2467
13302TIP3   OH261320   2.422   0.443  15.892 -0.1311 -0.1012 -0.0794
13302TIP3    H161321   2.485   0.505  15.930  0.6327 -0.3784 -0.8681
13302TIP3    H261322   2.441   0.360  15.936 -0.0152 -0.1590 -0.2369
13303TIP3   OH261323   1.363   5.884  14.222  0.0223 -0.5345 -0.0324
13303TIP3    H161324   1.337   5.803  14.268  0.1266 -0.6119 -0.1102
13303TIP3    H261325   1.458   5.887  14.231 -0.0273 -0.1342  0.4438
13304TIP3   OH261326   3.834   4.643   5.794  0.2357 -0.4987 -0.1564
13304TIP3    H161327   3.858   4.702   5.723  2.1711 -1.2873 -0.2165
13304TIP3    H261328   3.764   4.689   5.840 -1.3692 -0.1328 -2.7561
13305TIP3   OH261329   1.194   4.456  14.761  0.1050  0.1222 -0.2876
13305TIP3    H161330   1.195   4.375  14.710  0.8510 -0.0155 -0.0591
13305TIP3    H261331   1.186   4.525  14.695 -1.2712 -0.1570 -0.4412
13306TIP3   OH261332   3.582   3.864  15.305  0.0247  0.2903 -0.3379
13306TIP3    H161333   3.519   3.912  15.252  0.5644  1.2321 -0.1459
13306TIP3    H261334   3.561   3.772  15.290 -2.8725  0.5385  1.5220
13307TIP3   OH261335   4.111   2.679   5.129 -0.3131  0.3348 -0.5229
13307TIP3    H161336   4.171   2.635   5.068  3.4099  0.9691  2.3672
13307TIP3    H261337   4.075   2.752   5.078  1.1058 -0.2587 -2.5186
13308TIP3   OH261338   6.750   1.791  16.058  0.1687  0.1315  0.4289
13308TIP3    H161339   6.680   1.730  16.084 -0.3247  1.4706  2.4890
13308TIP3    H261340   6.706   1.875  16.048  1.1654  0.5758 -0.3973
13309TIP3   OH261341   4.609   6.542   1.006 -0.6992  0.4050 -0.0105
13309TIP3    H161342   4.699   6.561   0.979 -0.2806 -1.7411 -0.3094
13309TIP3    H261343   4.616   6.461   1.056 -2.2656  1.1621  1.5299
13310TIP3   OH261344   2.485   2.818  16.778  0.0853 -0.3657  0.5549
13310TIP3    H161345   2.428   2.807  16.702  2.0434  2.0649 -1.4284
13310TIP3    H261346   2.460   2.903  16.814  1.0887 -0.2082  0.9036
13311TIP3   OH261347   0.407   4.048   5.377  0.4041 -0.3416  0.3659
13311TIP3    H161348   0.323   4.094   5.371  0.4828 -0.0524  1.3048
13311TIP3    H261349   0.383   3.959   5.404  0.1746 -1.1906 -2.3443
13312TIP3   OH261350   4.679   0.422  17.118 -0.8014  0.1442 -0.1967
13312TIP3    H161351   4.584   0.410  17.120 -0.9806  1.3478  2.1387
13312TIP3    H261352   4.691   0.516  17.108  0.1535 -0.0286 -0.7179
13313TIP3   OH261353   3.137   0.726   1.532 -0.2377  0.4180 -0.2033
13313TIP3    H161354   3.206   0.662   1.514 -0.0132  0.7020 -0.3712
13313TIP3    H261355   3.080   0.721   1.456 -1.8358 -1.6246  1.0402
13314TIP3   OH261356   0.950   3.575  13.649 -0.5704 -0.0531  0.5918
13314TIP3    H161357   0.858   3.600  13.641 -0.9769 -1.0004  1.9469
13314TIP3    H261358   0.955   3.489  13.608 -0.4747 -0.3657  1.2479
13315TIP3   OH261359   3.540   1.856   1.628 -0.3496 -0.2265 -0.1530
13315TIP3    H161360   3.603   1.927   1.637  0.3887 -0.8048 -0.6594
13315TIP3    H261361   3.561   1.796   1.699 -1.1564  0.1881  0.4474
13316TIP3   OH261362   2.141   1.658   1.653 -1.0027 -0.0556 -0.1932
13316TIP3    H161363   2.171   1.720   1.719  0.2938 -0.0226 -0.7632
13316TIP3    H261364   2.152   1.572   1.694 -3.5445  0.0727  0.8827
13317TIP3   OH261365   3.845   4.671  16.145  0.0091  0.2739  0.1927
13317TIP3    H161366   3.909   4.740  16.126  0.5053 -0.2224  0.0118
13317TIP3    H261367   3.765   4.700  16.101  0.7739 -0.2211 -1.6373
13318TIP3   OH261368   4.267   5.812  12.456 -0.2897 -0.4214  0.3424
13318TIP3    H161369   4.280   5.801  12.550 -0.2087  1.4947  0.6044
13318TIP3    H261370   4.348   5.780  12.416 -0.1832 -0.9164  0.9441
13319TIP3   OH261371   3.302   5.559  15.730  0.2018  0.7392 -0.3957
13319TIP3    H161372   3.384   5.583  15.773  0.0931  1.5390 -0.6157
13319TIP3    H261373   3.254   5.642  15.722 -0.2216  0.4355 -1.1266
13320TIP3   OH261374   3.736   6.218  13.112 -0.4631 -0.2083  0.5505
13320TIP3    H161375   3.702   6.130  13.130 -1.7710  0.4409  1.3861
13320TIP3    H261376   3.814   6.224  13.168 -0.0126 -1.0271  0.0402
13321TIP3   OH261377   0.359   2.821   1.679 -0.4949 -0.1575  0.2789
13321TIP3    H161378   0.384   2.840   1.769 -1.1199  0.0044  0.4290
13321TIP3    H261379   0.339   2.728   1.679 -0.1877 -0.2218  0.2346
13322TIP3   OH261380   4.517   4.621   1.770  0.5669 -0.0535 -0.3931
13322TIP3    H161381   4.433   4.668   1.772  0.2839 -0.5003 -1.0424
13322TIP3    H261382   4.581   4.688   1.745  0.0885 -0.0865 -1.8278
13323TIP3   OH261383   5.347   5.974   5.671  0.0282 -0.2837  0.5730
13323TIP3    H161384   5.391   6.059   5.668  2.4303 -1.4037  1.7664
13323TIP3    H261385   5.411   5.912   5.638 -2.1347 -1.5542 -1.5072
13324TIP3   OH261386   0.145   0.495   5.287 -0.2097  0.0537  0.1193
13324TIP3    H161387   0.058   0.456   5.286  0.6268 -1.9328  0.9274
13324TIP3    H261388   0.188   0.461   5.209  0.1031  0.4353  0.1190
13325TIP3   OH261389   4.485   3.174  11.930  0.6111 -0.5121  0.0724
13325TIP3    H161390   4.394   3.161  11.904  0.9003  1.5959 -2.4105
13325TIP3    H261391   4.516   3.087  11.957 -1.5806 -1.6430 -0.8515
13326TIP3   OH261392   4.502   3.687  15.228 -0.0907 -0.1864 -0.6169
13326TIP3    H161393   4.542   3.623  15.288  1.5025  0.5343 -0.8478
13326TIP3    H261394   4.422   3.644  15.197 -0.0508 -1.2749  0.6898
13327TIP3   OH261395   1.897   4.376   0.072  0.1167 -0.0205 -0.4006
13327TIP3    H161396   1.921   4.283   0.076  1.1271  0.2077 -1.0748
13327TIP3    H261397   1.918   4.410   0.159 -2.5180 -0.9271  0.6964
13328TIP3   OH261398   6.775   5.028  11.089 -0.2302 -0.4352 -0.0112
13328TIP3    H161399   6.817   5.009  11.006  2.2206  1.7439  0.5745
13328TIP3    H261400   6.707   5.093  11.068  1.3040  1.1848 -0.2556
13329TIP3   OH261401   1.502   5.751  15.474  0.0516  0.6684 -0.3445
13329TIP3    H161402   1.547   5.764  15.390  1.4545 -0.4594  0.1978
13329TIP3    H261403   1.458   5.666  15.464  0.4353  0.4088  0.1399
13330TIP3   OH261404   1.358   4.864  11.083 -0.1002 -0.0041 -0.1682
13330TIP3    H161405   1.288   4.807  11.115 -1.6855  1.4124 -0.9597
13330TIP3    H261406   1.330   4.889  10.995  1.1212  1.0730 -0.2762
13331TIP3   OH261407   1.936   2.988  14.712 -0.4336 -0.8222  0.0054
13331TIP3    H161408   1.849   3.013  14.745  1.4574  1.0527  4.4352
13331TIP3    H261409   1.981   3.071  14.698  1.3919 -1.7105  0.3376
13332TIP3   OH261410   1.522   2.725   0.670  0.2822  0.6473  0.3773
13332TIP3    H161411   1.576   2.711   0.593 -0.4173  0.0311 -0.0140
13332TIP3    H261412   1.489   2.815   0.661  0.0963  0.5309 -0.1086
13333TIP3   OH261413   4.398   6.574  16.813  0.2596 -0.4357  0.7023
13333TIP3    H161414   4.319   6.626  16.826 -0.4549 -1.7163  1.7529
13333TIP3    H261415   4.423   6.591  16.723 -0.4544  1.0163  0.7466
13334TIP3   OH261416   4.942   2.301  13.237  0.2644 -0.0106  0.1810
13334TIP3    H161417   4.846   2.291  13.239  0.1746  0.8137  0.7089
13334TIP3    H261418   4.966   2.319  13.328  0.9041 -0.0154  0.0173
13335TIP3   OH261419   0.768   5.848   3.021 -0.4604 -0.2639 -0.4172
13335TIP3    H161420   0.725   5.897   2.951 -2.8657 -0.2511  0.9628
13335TIP3    H261421   0.741   5.758   3.007 -1.3832 -0.1826  0.7685
13336TIP3   OH261422   6.504   5.186   4.829  0.1130 -0.5405  0.6982
13336TIP3    H161423   6.414   5.153   4.833  0.1723 -0.9131 -0.6177
13336TIP3    H261424   6.553   5.117   4.785  0.4446  0.8788 -1.2672
13337TIP3   OH261425   5.599   6.233  13.839 -0.1693  0.2017  0.1701
13337TIP3    H161426   5.569   6.250  13.749 -1.9923 -0.8895  0.5057
13337TIP3    H261427   5.680   6.282  13.847  0.5148 -0.3516 -2.3582
13338TIP3   OH261428   0.192   5.112   4.002 -0.7113  0.1517  0.0200
13338TIP3    H161429   0.210   5.205   3.987 -1.2086  0.2614  0.0611
13338TIP3    H261430   0.223   5.068   3.923 -1.0488  0.4326 -0.2775
13339TIP3   OH261431   3.026   6.438  11.426  0.6406  0.1584  0.2434
13339TIP3    H161432   3.087   6.484  11.368  1.1852 -0.4316  0.3359
13339TIP3    H261433   3.082   6.382  11.481  0.0411 -0.1680  0.5395
13340TIP3   OH261434   2.445   5.222   5.308  0.1745 -0.0723  0.3332
13340TIP3    H161435   2.469   5.138   5.347 -0.4829 -0.8259 -0.7815
13340TIP3    H261436   2.414   5.198   5.220  0.5258  1.4127 -0.2172
13341TIP3   OH261437   4.345   1.127  12.832 -0.0627  0.7405  0.0519
13341TIP3    H161438   4.389   1.091  12.909 -0.0677  1.5889  0.4623
13341TIP3    H261439   4.411   1.180  12.789 -0.1767  0.5844 -0.3205
13342TIP3   OH261440   3.649   2.955  13.252 -0.5541 -0.1203  0.3241
13342TIP3    H161441   3.627   2.925  13.341 -1.9288  0.8963  0.3607
13342TIP3    H261442   3.668   3.048  13.263  3.2752 -0.6969  0.1524
13343TIP3   OH261443   3.272   5.332   4.339  0.6475  0.3298  0.8607
13343TIP3    H161444   3.355   5.317   4.384  1.2733 -0.1169 -0.3974
13343TIP3    H261445   3.296   5.380   4.259 -0.3889  0.8221  0.8235
13344TIP3   OH261446   6.763   2.785  16.911  0.2141 -0.4910  0.0998
13344TIP3    H161447   6.684   2.807  16.960  0.4112 -0.7744  0.5471
13344TIP3    H261448   6.730   2.741  16.832 -0.0790 -0.4991  0.2244
13345TIP3   OH261449   0.160   1.770   4.884 -0.1229  0.2448  0.2244
13345TIP3    H161450   0.114   1.748   4.965 -0.6997 -1.2828 -0.4750
13345TIP3    H261451   0.142   1.863   4.871 -3.2268 -0.2769 -0.0888
13346TIP3   OH261452   1.729   1.741   0.554  0.1749 -0.5134  0.2423
13346TIP3    H161453   1.785   1.664   0.542  2.9350  1.2326  0.9179
13346TIP3    H261454   1.750   1.772   0.642 -1.5806  0.5043  0.3494
13347TIP3   OH261455   4.319   6.311  17.306  0.2691  0.0457  0.4120
13347TIP3    H161456   4.323   6.406  17.300  1.6199 -0.0221 -0.1643
13347TIP3    H261457   4.305   6.282  17.216 -1.5415 -0.2819  0.7561
13348TIP3   OH261458   0.440   6.102   0.444 -0.4934 -0.2357  0.1550
13348TIP3    H161459   0.523   6.087   0.490  0.7672 -1.9074 -2.4174
13348TIP3    H261460   0.434   6.197   0.435  0.9902 -0.0710  0.6984
13349TIP3   OH261461   2.587   5.383   6.282 -0.1249 -0.0971  0.0347
13349TIP3    H161462   2.621   5.472   6.281  3.6046 -1.3332 -1.1034
13349TIP3    H261463   2.630   5.342   6.357  0.0882 -1.5143 -0.8198
13350TIP3   OH261464   3.394   6.167   6.126  0.3400 -0.0276 -0.4670
13350TIP3    H161465   3.378   6.092   6.182  1.1383  0.2885  0.2135
13350TIP3    H261466   3.433   6.131   6.047 -0.9479 -0.4933 -0.9170
13351TIP3   OH261467   0.008   6.686   6.370 -0.2246 -0.0288  0.2735
13351TIP3    H161468   0.036   6.610   6.318  0.5575 -1.9384  3.1828
13351TIP3    H261469  -0.072   6.716   6.328  0.7351 -0.8835 -2.4138
13352TIP3   OH261470   4.407   0.844   4.654 -0.2196 -0.4575 -0.2268
13352TIP3    H161471   4.443   0.839   4.742  0.5299 -0.4599 -0.5247
13352TIP3    H261472   4.447   0.923   4.616  0.0815 -0.8918 -0.8319
13353TIP3   OH261473   3.135   1.684  17.048 -0.6212  0.1203 -0.3312
13353TIP3    H161474   3.137   1.701  17.142  0.2533  0.7254 -0.4520
13353TIP3    H261475   3.070   1.614  17.038  2.2303 -3.0788  1.2176
13354TIP3   OH261476   0.337   5.605  10.380 -0.6039  0.9338 -0.3573
13354TIP3    H161477   0.344   5.649  10.465  0.4537  3.6282 -1.7019
13354TIP3    H261478   0.258   5.643  10.340 -0.0796  1.1132 -1.2659
13355TIP3   OH261479   5.889   5.082  11.866 -0.6471  0.1079 -0.4279
13355TIP3    H161480   5.954   5.084  11.936 -0.9735 -0.4944 -0.1044
13355TIP3    H261481   5.815   5.033  11.902 -1.2610  0.7219 -0.8115
13356TIP3   OH261482   2.232   6.444  14.327 -0.1712 -0.5370 -0.1109
13356TIP3    H161483   2.288   6.372  14.296 -0.5906 -1.4460  1.1257
13356TIP3    H261484   2.169   6.458  14.256  0.0962 -1.2033 -0.4935
13357TIP3   OH261485   3.132   3.316   1.402 -0.7107 -0.1800  0.5148
13357TIP3    H161486   3.144   3.377   1.475  1.0609 -2.3229  2.1512
13357TIP3    H261487   3.060   3.259   1.430 -1.2850  0.1347 -0.2902
13358TIP3   OH261488   5.980   4.714   2.822  0.4465  0.1723  0.5374
13358TIP3    H161489   5.987   4.680   2.912  0.3357 -0.0268  0.4718
13358TIP3    H261490   6.070   4.710   2.789  0.6342  1.0252  0.9140
13359TIP3   OH261491   1.960   1.324  16.071 -0.0208  0.0359  0.1723
13359TIP3    H161492   1.871   1.317  16.105  0.1105 -1.7404  0.2201
13359TIP3    H261493   1.950   1.376  15.990 -0.6069  2.5173  1.7167
13360TIP3   OH261494   5.342   0.198   2.777  0.2151 -0.2273  0.4032
13360TIP3    H161495   5.311   0.208   2.867  1.9234 -0.5757  1.0683
13360TIP3    H261496   5.262   0.194   2.725 -0.8357 -0.6341  1.9629
13361TIP3   OH261497   4.126   1.393   5.486  0.0018 -0.2693  0.6437
13361TIP3    H161498   4.222   1.386   5.477 -0.2636 -2.5973 -1.9262
13361TIP3    H261499   4.097   1.303   5.503 -1.8277  0.0105 -0.6685
13362TIP3   OH261500   5.736   2.903  13.089 -0.3173  0.3523 -0.5282
13362TIP3    H161501   5.675   2.877  13.158 -0.3838  0.3011 -0.6063
13362TIP3    H261502   5.785   2.977  13.127  0.0519 -0.0491 -0.2084
13363TIP3   OH261503   0.114   6.038  12.380 -0.1941  0.3614 -0.3085
13363TIP3    H161504   0.097   6.006  12.292  0.1604 -0.8189  0.0340
13363TIP3    H261505   0.069   5.975  12.438  1.6014 -0.3015  0.4297
13364TIP3   OH261506   3.029   4.503   4.172  0.0252 -0.1337  0.3634
13364TIP3    H161507   3.039   4.499   4.267  0.9075  0.5660  0.3068
13364TIP3    H261508   3.102   4.452   4.138  1.4918  2.0480  0.0242
13365TIP3   OH261509   0.071   0.766   1.173 -0.1127  0.2267 -0.2311
13365TIP3    H161510  -0.020   0.739   1.167 -0.1761  0.5150 -0.5953
13365TIP3    H261511   0.073   0.825   1.249  0.2220 -1.5387  1.1914
13366TIP3   OH261512   0.413   4.713   4.757  0.5008 -0.1253  0.2629
13366TIP3    H161513   0.450   4.787   4.805  0.9695 -1.4216  2.0392
13366TIP3    H261514   0.488   4.659   4.734  0.1929  0.0645 -1.2420
13367TIP3   OH261515   3.653   1.821   2.886  0.0091 -0.5590  0.3962
13367TIP3    H161516   3.591   1.885   2.850  0.4248 -0.8136 -0.8064
13367TIP3    H261517   3.735   1.870   2.896 -0.6676  0.1994  3.3928
13368TIP3   OH261518   1.414   1.550   1.720  0.0333  0.8091  0.7118
13368TIP3    H161519   1.331   1.590   1.694 -1.0811  0.2000  3.0915
13368TIP3    H261520   1.438   1.594   1.801  0.0702 -1.5467  2.0737
13369TIP3   OH261521   1.121   1.994   5.877 -0.6091  0.4314  0.2459
13369TIP3    H161522   1.056   1.988   5.807 -0.4893  0.8341  0.0985
13369TIP3    H261523   1.073   2.030   5.951 -0.4723  1.0709  0.0279
13370TIP3   OH261524   5.748   0.009   1.553 -0.3045 -0.2228  0.5193
13370TIP3    H161525   5.797   0.052   1.482 -1.2332 -2.1192 -1.3899
13370TIP3    H261526   5.792   0.038   1.633  1.0700  1.6973 -0.8313
13371TIP3   OH261527   2.385   2.773  17.187  0.8449  0.4522 -0.0282
13371TIP3    H161528   2.298   2.810  17.173  0.6699  0.8038  1.6933
13371TIP3    H261529   2.370   2.691  17.234  1.3428 -0.9301 -2.1383
13372TIP3   OH261530   2.615   2.488   0.125 -0.5729 -0.4372 -0.2091
13372TIP3    H161531   2.565   2.504   0.045 -1.1335  2.5419  0.6200
13372TIP3    H261532   2.582   2.552   0.188  0.4011 -2.1293  2.2049
13373TIP3   OH261533   2.757   4.472   5.276 -0.0110  0.4114 -0.7670
13373TIP3    H161534   2.692   4.539   5.253 -0.3240  0.1820 -0.5429
13373TIP3    H261535   2.712   4.389   5.262  0.3869  0.2420 -1.0687
13374TIP3   OH261536   5.143   3.728   2.480 -0.3396  0.5841  0.2067
13374TIP3    H161537   5.056   3.734   2.518 -0.0350  0.0261  1.0211
13374TIP3    H261538   5.134   3.666   2.408 -0.4081 -0.3380  0.9783
13375TIP3   OH261539   5.732   4.694   0.807 -0.7184 -0.5357  0.1136
13375TIP3    H161540   5.779   4.633   0.864 -1.9429  0.8296  2.7745
13375TIP3    H261541   5.765   4.780   0.832 -1.2951  0.1328 -1.3075
13376TIP3   OH261542   2.008   0.158  16.728 -0.7373  0.0034  0.2925
13376TIP3    H161543   2.025   0.210  16.649 -2.1955  1.7167  1.0579
13376TIP3    H261544   2.089   0.165  16.779 -0.8124  1.3579  0.2662
13377TIP3   OH261545   2.423   6.062  12.634 -0.2772 -0.7217 -0.2731
13377TIP3    H161546   2.458   6.144  12.669  0.5327 -0.9550 -0.5289
13377TIP3    H261547   2.498   6.005  12.626 -1.0431 -2.0449  1.3413
13378TIP3   OH261548   6.461   2.638   5.101 -0.0521  0.1674  0.3778
13378TIP3    H161549   6.374   2.676   5.098  0.8100  2.2578 -0.2863
13378TIP3    H261550   6.470   2.606   5.191 -1.5534 -0.2609  0.3921
13379TIP3   OH261551   3.732   3.580  12.055  0.0805  0.4122 -0.7232
13379TIP3    H161552   3.639   3.595  12.042 -0.5145 -1.8493  0.4551
13379TIP3    H261553   3.756   3.514  11.989  0.8626  0.9427 -0.9954
13380TIP3   OH261554   0.687   3.521  15.820 -0.0182  0.3452  0.1268
13380TIP3    H161555   0.706   3.472  15.740 -0.7843  1.3851 -0.7297
13380TIP3    H261556   0.693   3.456  15.890 -0.0748 -0.7548 -0.8543
13381TIP3   OH261557   1.764   2.683   4.701  0.6135 -0.6615  0.0090
13381TIP3    H161558   1.769   2.641   4.615 -0.0105 -0.5180 -0.1013
13381TIP3    H261559   1.835   2.642   4.751  1.0148 -0.7143 -0.5829
13382TIP3   OH261560   2.950   4.262   1.731  1.0335  0.8323 -0.0405
13382TIP3    H161561   2.863   4.223   1.740  0.7032  1.7431  0.8318
13382TIP3    H261562   2.968   4.303   1.816  2.4892  0.3292 -0.0735
13383TIP3   OH261563   2.333   4.038   1.382 -0.1097 -0.1007  0.2646
13383TIP3    H161564   2.417   4.001   1.408 -0.7153 -1.7731 -0.0715
13383TIP3    H261565   2.352   4.084   1.300  0.6406  0.3268  0.6633
13384TIP3   OH261566   5.999   3.425   4.806  0.7151  0.2520  0.1716
13384TIP3    H161567   6.035   3.430   4.894  1.5595  0.8134 -0.1886
13384TIP3    H261568   5.905   3.419   4.818  0.9016 -1.0711  1.1471
13385TIP3   OH261569   5.967   2.993  13.247 -0.0099 -0.5325  0.1149
13385TIP3    H161570   6.051   2.949  13.235 -0.3597 -1.0415 -0.5938
13385TIP3    H261571   5.977   3.077  13.202 -0.2216 -1.0451 -0.9247
13386TIP3   OH261572   6.579   2.178   1.054  0.0301 -0.4407 -0.5315
13386TIP3    H161573   6.621   2.264   1.063  0.1041 -0.1481 -2.8915
13386TIP3    H261574   6.652   2.116   1.047 -0.0124 -0.5717  0.1303
13387TIP3   OH261575   6.436   2.268  15.318 -0.2433 -0.2079  0.1072
13387TIP3    H161576   6.411   2.176  15.308 -2.9493  0.4667 -0.1053
13387TIP3    H261577   6.401   2.311  15.240 -1.7139  1.4711  1.6022
13388TIP3   OH261578   4.218   2.064  15.562 -0.0789  0.0788 -0.1053
13388TIP3    H161579   4.298   2.012  15.552 -0.4653 -0.2130 -2.1367
13388TIP3    H261580   4.226   2.133  15.497 -1.1693  0.4689  0.1572
13389TIP3   OH261581   2.170   1.591  15.752  0.2465 -0.0793 -0.7466
13389TIP3    H161582   2.210   1.678  15.764 -1.1156  0.3917  0.8426
13389TIP3    H261583   2.222   1.533  15.808 -0.3128  0.2059  0.0730
13390TIP3   OH261584   5.296   0.472   3.837 -0.2147 -0.6951 -0.1088
13390TIP3    H161585   5.247   0.552   3.857  0.0845 -0.1161 -1.5882
13390TIP3    H261586   5.228   0.405   3.826 -0.7319  0.0750 -2.0301
13391TIP3   OH261587   0.603   1.118   5.442 -0.0253  0.2763 -0.6076
13391TIP3    H161588   0.535   1.050   5.441  0.2475 -0.0041 -0.3506
13391TIP3    H261589   0.563   1.192   5.396 -0.0198 -0.3495 -1.6514
13392TIP3   OH261590   5.475   2.425  13.396  0.4175 -0.0818  0.2951
13392TIP3    H161591   5.504   2.347  13.350  3.2381  0.5919  0.7578
13392TIP3    H261592   5.496   2.497  13.337 -0.0552  0.4898  0.8118
13393TIP3   OH261593   3.112   1.047  15.057 -0.1286 -0.2625  0.4636
13393TIP3    H161594   3.052   0.982  15.021  0.6371 -0.6722 -0.1113
13393TIP3    H261595   3.156   1.002  15.129  1.5111 -0.9341 -0.8980
13394TIP3   OH261596   1.566   2.490   6.152  0.1779  0.3510 -0.1999
13394TIP3    H161597   1.642   2.538   6.184 -0.1941  0.5995  0.3189
13394TIP3    H261598   1.493   2.550   6.163 -0.1822 -0.0847 -0.1837
13395TIP3   OH261599   2.028   4.602   4.575 -0.0521  0.4366 -0.3137
13395TIP3    H161600   2.030   4.658   4.652 -1.1022 -0.7679  0.6075
13395TIP3    H261601   1.967   4.645   4.515  1.6816  2.0340 -1.0599
13396TIP3   OH261602   0.940   3.224  15.075 -0.3572 -0.4545 -0.1147
13396TIP3    H161603   0.895   3.169  15.012 -0.7955  0.7836 -0.9188
13396TIP3    H261604   0.870   3.274  15.118  0.1600  1.0977 -0.9986
13397TIP3   OH261605   2.060   0.896   2.486  0.4552 -0.4604  0.4853
13397TIP3    H161606   2.117   0.958   2.530 -0.2905  1.1839 -0.7606
13397TIP3    H261607   2.095   0.890   2.397 -0.4620 -0.5486  0.1215
13398TIP3   OH261608   6.513   1.474   0.008  0.0920 -0.0427 -0.6741
13398TIP3    H161609   6.602   1.441  -0.007  1.8374  3.9043 -0.1085
13398TIP3    H261610   6.477   1.414   0.073  2.6608 -1.2780 -0.2423
13399TIP3   OH261611   4.146   3.003  15.218  0.2812 -0.0282  0.2654
13399TIP3    H161612   4.156   2.933  15.154  1.4202  0.7230 -0.4127
13399TIP3    H261613   4.053   3.005  15.238 -0.4346  0.8145 -2.6507
13400TIP3   OH261614   0.167   3.664   2.136 -0.7651  0.0144 -0.5074
13400TIP3    H161615   0.126   3.735   2.184 -1.5552  0.0103 -1.1712
13400TIP3    H261616   0.095   3.614   2.099 -0.2826 -1.7190  0.7359
13401TIP3   OH261617   5.018   2.879  16.233  0.0958  0.1780  0.5063
13401TIP3    H161618   5.053   2.873  16.144 -0.3051  0.8452  0.2949
13401TIP3    H261619   4.937   2.930  16.224  0.7573  1.4461  1.4433
13402TIP3   OH261620   4.301   5.444  11.350 -0.3628  0.1599  0.1638
13402TIP3    H161621   4.243   5.419  11.279 -0.0269 -0.4923  0.1063
13402TIP3    H261622   4.379   5.390  11.337 -0.4228 -0.2009  1.2073
13403TIP3   OH261623   2.589   0.992  15.609 -0.2123 -0.0813  0.1768
13403TIP3    H161624   2.529   0.962  15.541  0.8265  0.8652 -1.2287
13403TIP3    H261625   2.668   1.017  15.562  0.3725  1.1078  1.6809
13404TIP3   OH261626   2.446   2.875  12.294 -0.0274 -0.1796  0.2831
13404TIP3    H161627   2.539   2.855  12.302  0.7364  2.8163  0.0209
13404TIP3    H261628   2.419   2.833  12.213  1.7116  0.8060 -0.8639
13405TIP3   OH261629   5.594   0.718   1.469 -0.2814 -0.3590 -1.0408
13405TIP3    H161630   5.637   0.799   1.445 -2.1308  0.7441 -0.7948
13405TIP3    H261631   5.625   0.654   1.405  0.5666  0.7332 -1.7424
13406TIP3   OH261632   6.123   2.287   6.026  0.2718  0.3154 -0.3577
13406TIP3    H161633   6.057   2.246   6.082  1.6235  0.1187  1.1555
13406TIP3    H261634   6.085   2.373   6.004 -0.7060  0.0037  0.0517
13407TIP3   OH261635   2.409   3.304   2.327 -0.2668  0.2838  0.0111
13407TIP3    H161636   2.425   3.283   2.235 -2.5807 -2.4308  0.0978
13407TIP3    H261637   2.492   3.342   2.357  2.0985 -2.6081 -2.1386
13408TIP3   OH261638   5.724   6.007  14.415 -0.5373  0.3092  0.4099
13408TIP3    H161639   5.782   6.067  14.367  0.3167  0.4926  1.6199
13408TIP3    H261640   5.726   5.926  14.364  0.6972  0.3528  0.3484
13409TIP3   OH261641   1.774   0.321  12.110  0.1582 -0.1811  0.1392
13409TIP3    H161642   1.852   0.370  12.135  0.6469 -0.1588 -1.3024
13409TIP3    H261643   1.709   0.388  12.089 -0.8931 -0.1741  2.9647
13410TIP3   OH261644   0.474   6.776   3.650 -0.2832  0.0384 -0.4812
13410TIP3    H161645   0.450   6.775   3.742 -1.5612 -2.5216 -0.7479
13410TIP3    H261646   0.414   6.839   3.610 -0.6160  0.1879  0.2433
13411TIP3   OH261647   0.867   4.298  12.158  0.0462  0.2326  0.1443
13411TIP3    H161648   0.860   4.302  12.063  0.4496 -0.7121  0.0592
13411TIP3    H261649   0.943   4.352  12.179 -0.6938  1.3420  0.0466
13412TIP3   OH261650   6.645   3.887  11.241  0.0740  0.2833  0.3519
13412TIP3    H161651   6.592   3.873  11.163 -0.2219 -2.1772  0.9186
13412TIP3    H261652   6.723   3.932  11.209 -0.0200 -0.7031 -1.3919
13413TIP3   OH261653   0.573   6.224  14.346  0.4298  0.1680  0.2629
13413TIP3    H161654   0.582   6.218  14.251  0.4386  0.7592  0.2216
13413TIP3    H261655   0.530   6.142  14.371 -0.5164  0.4496 -0.3699
13414TIP3   OH261656   2.736   6.236   2.608 -0.0845  0.0894  0.4450
13414TIP3    H161657   2.799   6.299   2.643 -0.2466 -0.3172  1.5057
13414TIP3    H261658   2.655   6.255   2.656 -0.2747 -0.5765  0.3859
13415TIP3   OH261659   1.814   6.670  13.790 -0.0295  0.0781  0.4034
13415TIP3    H161660   1.748   6.738  13.801 -1.3441 -0.6959 -1.9337
13415TIP3    H261661   1.770   6.589  13.815  0.3703 -0.3109 -0.1113
13416TIP3   OH261662   3.441   5.611   4.579  0.0014  0.0157 -0.1591
13416TIP3    H161663   3.386   5.537   4.604  0.7412 -0.5702 -0.2144
13416TIP3    H261664   3.526   5.571   4.558  0.2435  0.8194 -0.7431
13417TIP3   OH261665   4.034   1.758   4.097 -0.0514  0.1552 -0.0391
13417TIP3    H161666   4.075   1.681   4.136 -0.1876  0.3062  0.4100
13417TIP3    H261667   4.093   1.830   4.121  0.5601  0.0716 -1.2253
13418TIP3   OH261668   0.728   2.007   4.421  0.4900 -0.2432  0.0381
13418TIP3    H161669   0.761   1.929   4.376 -1.3196 -0.5839 -0.7872
13418TIP3    H261670   0.790   2.020   4.494  1.0670 -2.2113 -0.0202
13419TIP3   OH261671   3.307   5.280   5.275 -0.1097 -0.7660 -0.2883
13419TIP3    H161672   3.239   5.261   5.211 -0.6477 -0.3247  0.1452
13419TIP3    H261673   3.278   5.360   5.319  1.6167  0.5301 -1.3855
13420TIP3   OH261674   4.696   1.444   2.600  0.1635  0.2905 -0.5945
13420TIP3    H161675   4.654   1.441   2.515 -2.0642 -2.8384  0.4408
13420TIP3    H261676   4.643   1.505   2.652  0.2696  0.5722 -0.8129
13421TIP3   OH261677   6.763   6.499  13.517  0.5104  0.1325  0.0854
13421TIP3    H161678   6.691   6.489  13.578 -0.5951  3.1528 -0.5470
13421TIP3    H261679   6.842   6.497  13.572  0.2567 -4.4000  0.6622
13422TIP3   OH261680   3.774   6.423   5.717  0.1343  0.3847 -0.6798
13422TIP3    H161681   3.830   6.346   5.723  0.0862  0.3266 -0.9843
13422TIP3    H261682   3.706   6.408   5.784 -1.6016 -1.2607 -2.6649
13423TIP3   OH261683   4.662   6.416   6.534  0.0441  0.1060 -0.5331
13423TIP3    H161684   4.637   6.469   6.458  2.0333  0.8072 -0.7683
13423TIP3    H261685   4.598   6.345   6.535 -2.4167  2.1453 -0.5311
13424TIP3   OH261686   4.180   3.941   6.232  0.4787  0.4419  0.4993
13424TIP3    H161687   4.171   3.883   6.308  1.9972 -0.9318 -0.2824
13424TIP3    H261688   4.219   4.021   6.267 -0.9366  0.7341  1.4876
13425TIP3   OH261689   4.343   2.269   0.390 -0.4754 -1.2345 -0.1262
13425TIP3    H161690   4.315   2.288   0.300 -0.7295 -0.9546  0.0100
13425TIP3    H261691   4.421   2.322   0.402 -0.8641 -0.7000  0.0640
13426TIP3   OH261692   3.477   2.391   1.204 -0.1184 -0.6844  0.4459
13426TIP3    H161693   3.540   2.460   1.187 -1.5244  0.5172 -0.1134
13426TIP3    H261694   3.528   2.310   1.199  1.1360  0.1462 -1.2733
13427TIP3   OH261695   5.366   0.921  13.334 -0.2495  0.5638  0.8219
13427TIP3    H161696   5.379   0.994  13.273 -0.7231 -1.9881 -2.6930
13427TIP3    H261697   5.451   0.879  13.340 -0.7482 -0.6926 -0.3080
13428TIP3   OH261698   0.872   2.298   5.554 -0.6671 -0.0927  0.0447
13428TIP3    H161699   0.827   2.382   5.567  0.3982  0.7735 -1.5318
13428TIP3    H261700   0.959   2.312   5.592 -0.7663 -0.7982  0.5504
13429TIP3   OH261701   5.078   6.158  14.922  0.3364  0.5440  0.0912
13429TIP3    H161702   5.117   6.201  14.845  0.1408  0.0242 -0.3085
13429TIP3    H261703   5.128   6.077  14.932 -1.4350 -0.7908 -1.2409
13430TIP3   OH261704   1.788   2.288  13.601 -0.1159  0.1969 -0.0898
13430TIP3    H161705   1.750   2.237  13.530 -0.4063 -0.0222  0.2237
13430TIP3    H261706   1.804   2.225  13.671  0.9282  0.2577 -0.2502
13431TIP3   OH261707   1.488   2.285  13.595  0.0300  0.3461  0.0183
13431TIP3    H161708   1.523   2.218  13.653  1.5418  1.0186 -0.0644
13431TIP3    H261709   1.489   2.245  13.508 -0.9227 -0.1733  0.2287
13432TIP3   OH261710   1.343   1.472   3.221 -0.3334  0.1930 -0.2093
13432TIP3    H161711   1.342   1.505   3.131 -1.2697 -2.2425 -1.2011
13432TIP3    H261712   1.337   1.377   3.211 -1.1174 -0.1250  2.4481
13433TIP3   OH261713   3.059   0.563   3.113 -0.7069 -0.4657  0.2375
13433TIP3    H161714   3.000   0.528   3.180 -2.3165 -2.9287 -2.2585
13433TIP3    H261715   3.147   0.539   3.144 -1.5000 -3.1140  0.7370
13434TIP3   OH261716   5.396   6.472  12.512 -0.1882  0.3482 -0.3332
13434TIP3    H161717   5.420   6.555  12.552  0.0724 -0.2531  0.7786
13434TIP3    H261718   5.473   6.447  12.461 -0.7713  1.4554 -1.8480
13435TIP3   OH261719   0.609   5.914  15.150 -0.1055 -0.0860 -0.3390
13435TIP3    H161720   0.614   5.955  15.064  1.7594 -1.7321 -1.1101
13435TIP3    H261721   0.516   5.905  15.167 -0.5195  0.7566 -1.9391
13436TIP3   OH261722   3.345   0.693  13.843  0.2322 -0.1827 -0.1309
13436TIP3    H161723   3.436   0.719  13.830  0.6837 -0.0836  2.6317
13436TIP3    H261724   3.351   0.602  13.871 -0.7303 -0.8395 -1.9186
13437TIP3   OH261725   0.134   5.086  11.670 -0.1529  0.2445 -0.8118
13437TIP3    H161726   0.167   5.017  11.728  0.0123 -1.4564 -2.8466
13437TIP3    H261727   0.103   5.154  11.730  1.8258 -0.5428  1.2431
13438TIP3   OH261728   1.646   0.618   1.068  0.6250  0.2153 -0.1839
13438TIP3    H161729   1.628   0.549   1.130  0.2631  0.2826 -0.2102
13438TIP3    H261730   1.563   0.632   1.023  0.0213  2.2701  1.4234
13439TIP3   OH261731   6.516   4.024   4.368 -0.2038 -1.0833  0.0735
13439TIP3    H161732   6.529   4.112   4.336  0.1668 -0.9174  0.6573
13439TIP3    H261733   6.457   3.983   4.305  0.9081 -0.9487 -1.0868
13440TIP3   OH261734   1.432   1.668  16.198 -0.0950 -0.2425 -0.4675
13440TIP3    H161735   1.340   1.671  16.225  0.0192 -0.6831 -0.0175
13440TIP3    H261736   1.454   1.759  16.176 -0.2643  0.0968  0.6987
13441TIP3   OH261737   1.539   3.646   1.794  0.2534  0.2932  0.0525
13441TIP3    H161738   1.582   3.561   1.799  0.5464  0.4672  0.4939
13441TIP3    H261739   1.608   3.709   1.812 -0.4088  0.5264  1.9901
13442TIP3   OH261740   1.952   4.984  10.685  0.2231  0.1757  0.0612
13442TIP3    H161741   1.909   4.941  10.612  0.5988  1.0799 -0.7249
13442TIP3    H261742   1.942   5.078  10.668  3.0180  0.4708 -0.5487
13443TIP3   OH261743   5.330   6.217  14.791  0.0786 -0.0677  0.4301
13443TIP3    H161744   5.398   6.156  14.819  0.6444  0.2092 -0.3163
13443TIP3    H261745   5.348   6.297  14.840  0.3967  0.0622  0.1003
13444TIP3   OH261746   3.226   1.497   5.162  0.5720 -0.3075  0.2347
13444TIP3    H161747   3.228   1.423   5.223  1.2702 -0.4486  0.0531
13444TIP3    H261748   3.203   1.572   5.216 -1.7107 -0.8808  0.1549
13445TIP3   OH261749   1.440   4.993   2.214 -0.5210  0.2308  0.0624
13445TIP3    H161750   1.378   4.943   2.268 -1.6592  0.9218 -0.5731
13445TIP3    H261751   1.412   4.976   2.124 -1.3609  2.5075 -0.1627
13446TIP3   OH261752   2.880   2.992   1.686  0.1742 -0.2055  0.4694
13446TIP3    H161753   2.914   3.059   1.626  1.5306 -0.9424  0.3600
13446TIP3    H261754   2.890   2.910   1.637  0.6214 -0.7319  1.4312
13447TIP3   OH261755   0.294   0.158  13.583 -0.2761 -0.2101  0.2743
13447TIP3    H161756   0.288   0.108  13.502 -0.6226  0.5434 -0.1868
13447TIP3    H261757   0.232   0.116  13.643 -0.3108 -0.5291  0.0136
13448TIP3   OH261758   0.964   1.417  12.237  0.1607  0.2132 -0.0353
13448TIP3    H161759   0.949   1.411  12.143  1.0593 -1.4625 -0.1172
13448TIP3    H261760   0.981   1.327  12.264 -0.8698  0.5349  1.8840
13449TIP3   OH261761   2.791   1.453   4.365  0.4147  0.7234 -0.5263
13449TIP3    H161762   2.726   1.386   4.386 -0.1976  1.6045  0.4058
13449TIP3    H261763   2.740   1.528   4.335  1.0100  1.3561  0.0254
13450TIP3   OH261764   2.655   3.365   4.359 -0.4150 -0.1097  0.1186
13450TIP3    H161765   2.721   3.313   4.314 -0.4624 -0.7154  0.7248
13450TIP3    H261766   2.685   3.455   4.351 -0.9568 -0.0712 -1.9925
13451TIP3   OH261767   3.633   3.512   6.291 -0.7202 -0.3572  0.2048
13451TIP3    H161768   3.718   3.466   6.293 -1.7167 -2.2696  0.8504
13451TIP3    H261769   3.639   3.576   6.362 -0.3924 -1.6145  1.3630
13452TIP3   OH261770   2.151   6.355   2.078  0.3710 -0.5763 -0.2387
13452TIP3    H161771   2.230   6.370   2.026  0.0534  2.8366  0.0449
13452TIP3    H261772   2.184   6.324   2.162  1.2252 -1.3942 -0.8482
13453TIP3   OH261773   5.874   1.760   3.007  0.2743  0.5177 -0.5424
13453TIP3    H161774   5.809   1.792   3.069  0.7040 -1.2192  0.8981
13453TIP3    H261775   5.834   1.682   2.969  0.2122  1.2938 -2.1563
13454TIP3   OH261776   1.417   0.231  11.001  0.2092 -0.1789 -0.2266
13454TIP3    H161777   1.341   0.226  10.943 -0.0313  0.5726  0.0207
13454TIP3    H261778   1.380   0.221  11.089  0.4489 -0.2017 -0.1283
13455TIP3   OH261779   1.673   5.079  15.395  0.1673  0.2874 -0.2554
13455TIP3    H161780   1.598   5.023  15.416 -1.1081  1.7774 -0.6258
13455TIP3    H261781   1.748   5.020  15.394 -0.8330 -1.0756  1.1784
13456TIP3   OH261782   3.820   0.076   5.201  0.1367  0.3427 -0.1969
13456TIP3    H161783   3.735   0.033   5.201  1.1657 -1.8267 -0.5382
13456TIP3    H261784   3.836   0.100   5.292 -1.2913  1.8644 -0.2910
13457TIP3   OH261785   0.196   6.343  15.703 -1.0053  0.4346 -0.0096
13457TIP3    H161786   0.245   6.417  15.738 -0.0908 -0.2404  0.1857
13457TIP3    H261787   0.226   6.335  15.613 -3.0182  1.8815 -0.8888
13458TIP3   OH261788   1.572   3.455   0.453  0.2208 -0.0132 -0.1150
13458TIP3    H161789   1.543   3.471   0.364  0.1106 -0.1822 -0.1112
13458TIP3    H261790   1.505   3.495   0.508  2.2082  3.5989 -0.0603
13459TIP3   OH261791   4.863   0.752   5.992  0.6946  0.0164 -0.4981
13459TIP3    H161792   4.774   0.739   6.026 -0.6550  2.8804 -2.4515
13459TIP3    H261793   4.919   0.750   6.069 -1.4175  0.6671  1.1595
13460TIP3   OH261794   1.507   4.568   5.399  0.0916  0.8087 -0.3116
13460TIP3    H161795   1.592   4.579   5.441  0.3915  2.0101 -1.1983
13460TIP3    H261796   1.474   4.656   5.386 -0.9597  0.3833 -0.6683
13461TIP3   OH261797   2.572   4.455  13.995 -0.0135 -0.3172  0.0202
13461TIP3    H161798   2.618   4.403  13.930  0.6553  1.2552 -0.8259
13461TIP3    H261799   2.481   4.426  13.988  0.1073 -0.4460 -1.3656
13462TIP3   OH261800   5.425   6.690  15.701  0.2299 -0.0965  0.1539
13462TIP3    H161801   5.465   6.752  15.762  0.0930 -0.6845  0.8531
13462TIP3    H261802   5.372   6.633  15.756  1.0363 -1.3749 -0.3551
13463TIP3   OH261803   6.289   4.708   3.920 -0.3587  0.2700 -0.5672
13463TIP3    H161804   6.312   4.792   3.959 -0.1573 -1.0200  2.3325
13463TIP3    H261805   6.345   4.701   3.842 -0.0511  2.5567 -0.6156
13464TIP3   OH261806   3.183   5.541   5.106 -0.2751  0.5436 -0.2230
13464TIP3    H161807   3.229   5.460   5.128  0.0199  0.2854 -1.6704
13464TIP3    H261808   3.091   5.516   5.100 -0.1733  0.2861 -0.7616
13465TIP3   OH261809   1.304   5.710   2.906 -0.1776 -0.8341 -0.2824
13465TIP3    H161810   1.355   5.671   2.977 -0.7839 -1.6874 -0.2899
13465TIP3    H261811   1.216   5.720   2.943 -0.2388 -0.2900 -0.5703
13466TIP3   OH261812   1.603   5.984  16.595  0.3343 -0.2025  0.0397
13466TIP3    H161813   1.605   5.916  16.663 -2.9630 -1.6732 -1.1231
13466TIP3    H261814   1.544   6.050  16.630 -3.0091 -1.8836 -1.9351
13467TIP3   OH261815   2.781   6.567   4.821 -0.3474  0.3747 -0.1779
13467TIP3    H161816   2.789   6.661   4.835  1.1681  0.1107  0.8862
13467TIP3    H261817   2.780   6.529   4.909 -0.7485 -0.6343 -0.5989
13468TIP3   OH261818   4.958   4.509   5.380 -0.0960  0.1080 -0.0648
13468TIP3    H161819   4.878   4.475   5.339  0.3055 -2.0341  0.8093
13468TIP3    H261820   5.028   4.453   5.347  1.0070  1.5984 -0.3832
13469TIP3   OH261821   5.187   0.513  12.028 -0.9501 -0.1983  0.2853
13469TIP3    H161822   5.169   0.592  11.976  0.3334  0.3532  0.6447
13469TIP3    H261823   5.247   0.463  11.974  2.1986  1.4021  2.0174
13470TIP3   OH261824   2.828   1.852  15.488  0.2229  0.1776 -0.0960
13470TIP3    H161825   2.849   1.762  15.513 -2.6262 -0.4696  0.3246
13470TIP3    H261826   2.817   1.899  15.571  2.3534  1.1794 -0.3014
13471TIP3   OH261827   0.172   3.530  15.922 -0.7069  0.2310  0.1912
13471TIP3    H161828   0.100   3.467  15.924 -1.4698  1.0834 -0.2344
13471TIP3    H261829   0.249   3.476  15.902 -1.0057 -0.8680  1.7375
13472TIP3   OH261830   2.931   0.109  11.734  0.7151 -0.7403  0.0797
13472TIP3    H161831   2.853   0.085  11.785  0.5528  0.1765  0.2790
13472TIP3    H261832   2.907   0.090  11.644 -0.3189  0.9096 -0.0348
13473TIP3   OH261833   0.954   5.846   2.671 -0.3373  0.3193 -0.0915
13473TIP3    H161834   0.995   5.781   2.729 -1.9080 -0.6043  0.0191
13473TIP3    H261835   1.027   5.881   2.620  0.6118 -1.2933  0.0812
13474TIP3   OH261836   1.512   3.253   4.042  0.8517 -0.0245  0.7123
13474TIP3    H161837   1.437   3.210   4.001  0.5830  0.9415  0.1552
13474TIP3    H261838   1.570   3.276   3.969 -0.2001  2.8220  0.6475
13475TIP3   OH261839   4.029   4.919  13.095 -0.5447  0.0707  0.1927
13475TIP3    H161840   3.971   4.871  13.036 -0.5082 -0.1872  0.3657
13475TIP3    H261841   4.023   4.872  13.178  1.2841 -1.0309 -0.2641
13476TIP3   OH261842   1.253   0.318  11.636  0.1581 -0.3591  0.1267
13476TIP3    H161843   1.249   0.412  11.622  1.7553 -0.0695  1.4486
13476TIP3    H261844   1.344   0.300  11.657 -0.4122 -1.9677  1.4470
13477TIP3   OH261845   3.384   3.716  14.691  0.0698 -0.2676 -0.2796
13477TIP3    H161846   3.334   3.645  14.731  0.1919 -0.3290 -0.2350
13477TIP3    H261847   3.330   3.794  14.705  0.4106 -0.1742  0.5793
13478TIP3   OH261848   5.361   5.041  17.049  0.1369  0.0849 -0.3570
13478TIP3    H161849   5.383   5.110  17.113  2.3157  0.6037 -1.5680
13478TIP3    H261850   5.268   5.023  17.064  0.0357  1.7811  1.4283
13479TIP3   OH261851   5.438   1.415   3.806  0.3053  0.1890  0.8552
13479TIP3    H161852   5.515   1.398   3.751 -0.1112 -0.8642  0.5685
13479TIP3    H261853   5.367   1.431   3.744 -0.3623 -1.8735  1.0153
13480TIP3   OH261854   2.456   2.854  15.607  0.5032 -0.1060  0.2124
13480TIP3    H161855   2.488   2.820  15.523 -0.0792  0.9776 -0.4665
13480TIP3    H261856   2.460   2.949  15.597 -1.4116  0.0534  0.6910
13481TIP3   OH261857   6.047   2.966   0.231 -0.3034  0.2003 -0.1157
13481TIP3    H161858   6.101   2.930   0.161  0.0828  3.4105 -1.6216
13481TIP3    H261859   6.095   2.944   0.311  0.9200 -0.7908 -1.0752
13482TIP3   OH261860   2.773   1.954   2.097  0.2193 -0.5143 -0.1908
13482TIP3    H161861   2.744   1.938   2.007 -3.6599 -1.6330  1.0645
13482TIP3    H261862   2.757   2.047   2.112 -0.6069 -0.6546 -0.1999
13483TIP3   OH261863   0.214   5.767   2.919 -0.1160 -0.2093 -0.1536
13483TIP3    H161864   0.225   5.826   2.845  1.6809 -0.0630  0.2074
13483TIP3    H261865   0.300   5.762   2.960 -0.5707 -1.9328  0.6989
13484TIP3   OH261866   0.997   5.235  12.539  0.4833 -0.1868  0.4076
13484TIP3    H161867   0.995   5.329  12.556  0.5848 -0.3469  1.3336
13484TIP3    H261868   1.074   5.203  12.585  0.4677 -0.7254  0.0736
13485TIP3   OH261869   0.815   2.352   2.306 -0.5359 -0.5756 -0.1414
13485TIP3    H161870   0.758   2.279   2.331 -2.4085  1.3838  1.8119
13485TIP3    H261871   0.756   2.413   2.262  0.5186  0.6346  0.0809
13486TIP3   OH261872   0.208   3.583   5.100  0.0354 -0.0706 -0.5596
13486TIP3    H161873   0.163   3.659   5.065 -1.4065 -0.1450  0.9824
13486TIP3    H261874   0.257   3.616   5.175 -0.8392 -0.6598  0.3071
13487TIP3   OH261875   6.253   0.802   4.756  0.4081  0.1060 -0.7379
13487TIP3    H161876   6.266   0.862   4.830 -1.5985  0.8415 -0.9260
13487TIP3    H261877   6.199   0.732   4.791  0.6390 -0.2954 -1.1661
13488TIP3   OH261878   0.270   1.249   4.722  0.0748  0.6315 -0.6486
13488TIP3    H161879   0.265   1.208   4.635 -0.6032 -0.7477 -0.0030
13488TIP3    H261880   0.298   1.339   4.705  0.4585  0.2455 -2.2488
13489TIP3   OH261881   1.670   0.084  14.770  0.4648 -0.2874  0.0587
13489TIP3    H161882   1.624   0.028  14.708  0.4542 -1.4036  1.0496
13489TIP3    H261883   1.636   0.172  14.752  1.1677 -0.4065 -2.1420
13490TIP3   OH261884   1.390   5.811   1.487  0.3308  0.0684 -0.2379
13490TIP3    H161885   1.464   5.852   1.441 -0.6525  2.6380  0.3349
13490TIP3    H261886   1.416   5.812   1.579  0.4070 -0.9548 -0.2319
13491TIP3   OH261887   0.613   3.514   5.447  0.0994  0.2654  0.1772
13491TIP3    H161888   0.705   3.486   5.451  0.2630  0.2714 -1.9848
13491TIP3    H261889   0.572   3.450   5.388 -1.6967 -0.6619  2.2980
13492TIP3   OH261890   4.693   3.433  14.075  0.3039  0.3089  0.0875
13492TIP3    H161891   4.759   3.408  14.139 -0.0414 -1.1876 -0.1173
13492TIP3    H261892   4.676   3.526  14.093  2.4125  0.7279  0.1674
13493TIP3   OH261893   5.723   2.092   2.992 -0.2658  0.5289 -0.0749
13493TIP3    H161894   5.818   2.090   2.980 -0.2883  1.5010 -0.5566
13493TIP3    H261895   5.711   2.104   3.086  0.0454 -1.0605  0.1940
13494TIP3   OH261896   0.702   3.420  14.896 -0.0178  0.7190 -0.3351
13494TIP3    H161897   0.746   3.408  14.980  1.2303 -1.3608 -1.2293
13494TIP3    H261898   0.611   3.437  14.920  0.2730  0.0320  1.4292
13495TIP3   OH261899   5.697   4.910  15.891  0.2132  0.5326 -0.0544
13495TIP3    H161900   5.771   4.874  15.940  0.7934 -0.1031 -1.3588
13495TIP3    H261901   5.667   4.838  15.836 -3.4800 -0.2880  2.6961
13496TIP3   OH261902   2.110   5.890   0.572  0.2295  0.1204  0.2674
13496TIP3    H161903   2.026   5.870   0.615  0.3831  2.4866  1.8481
13496TIP3    H261904   2.149   5.959   0.626  2.3354  0.4355 -1.5102
13497TIP3   OH261905   3.094   0.964  13.012  0.0256  0.1410 -0.0371
13497TIP3    H161906   3.028   0.980  13.080 -0.4560 -2.4928  0.2335
13497TIP3    H261907   3.173   0.939  13.060  0.6368  1.2725 -0.4144
13498TIP3   OH261908   6.301   3.454   3.812  0.3240  0.4696  0.0054
13498TIP3    H161909   6.267   3.452   3.722 -2.1455  0.4782  0.8858
13498TIP3    H261910   6.326   3.545   3.825 -0.7414  0.8029 -0.1901
13499TIP3   OH261911   0.128   3.169   4.319 -0.6779 -0.4967 -0.5548
13499TIP3    H161912   0.084   3.120   4.389 -0.2322 -0.7033 -0.4163
13499TIP3    H261913   0.221   3.163   4.341 -0.6549  0.9075 -0.2196
13500TIP3   OH261914   1.963   3.646   5.765  0.1431  0.3529  0.6311
13500TIP3    H161915   1.940   3.623   5.855 -2.1357  0.6918  0.2022
13500TIP3    H261916   1.992   3.737   5.770  0.2618  0.2909  1.0540
13501TIP3   OH261917   1.183   6.294  11.788 -0.0315  0.2660 -0.4185
13501TIP3    H161918   1.246   6.309  11.718 -2.1411  1.6895 -2.1911
13501TIP3    H261919   1.136   6.215  11.762 -0.3300  0.3760 -0.2260
13502TIP3   OH261920   2.661   2.076   0.857 -0.6085 -0.8455 -0.6932
13502TIP3    H161921   2.599   2.065   0.785 -0.8432  1.4249 -0.9173
13502TIP3    H261922   2.656   2.169   0.878  2.2681 -0.6923 -0.3102
13503TIP3   OH261923   0.440   1.757   3.511 -0.2006 -0.0475  0.4655
13503TIP3    H161924   0.372   1.690   3.507 -0.9206  0.7041 -0.3501
13503TIP3    H261925   0.507   1.728   3.448 -0.3500 -0.1784  0.3663
13504TIP3   OH261926   2.874   1.781  16.468 -0.2370  0.5761 -0.2446
13504TIP3    H161927   2.891   1.720  16.396  1.7705  0.5950  0.1432
13504TIP3    H261928   2.780   1.777  16.482 -0.4986 -0.3982 -2.0099
13505TIP3   OH261929   2.317   3.804  13.593  0.5007  0.4891  0.8825
13505TIP3    H161930   2.327   3.746  13.518 -1.4673 -0.4308  1.2842
13505TIP3    H261931   2.292   3.888  13.555  0.4127  0.2756  0.4645
13506TIP3   OH261932   3.695   1.874   4.686 -0.0824 -0.2924 -0.3525
13506TIP3    H161933   3.678   1.968   4.683 -0.9551 -0.4696 -1.5713
13506TIP3    H261934   3.686   1.845   4.596  0.5499 -1.4900 -0.0494
13507TIP3   OH261935   3.164   2.940   1.379  0.4916  0.2499  0.4088
13507TIP3    H161936   3.164   2.875   1.309  0.5519  0.7778 -0.0938
13507TIP3    H261937   3.241   2.918   1.433 -0.8830 -1.6124  1.7186
13508TIP3   OH261938   2.743   5.557   2.064 -0.0477 -0.0510  0.4091
13508TIP3    H161939   2.684   5.509   2.006  1.4723 -0.0861 -1.1829
13508TIP3    H261940   2.831   5.533   2.034  0.8558  4.0343 -0.8340
13509TIP3   OH261941   3.679   3.813   2.447 -0.5249  0.8624 -0.1485
13509TIP3    H161942   3.738   3.740   2.426 -0.9488  0.6943 -0.7859
13509TIP3    H261943   3.726   3.891   2.416 -1.1954  0.6099 -1.9655
13510TIP3   OH261944   0.062   4.210   3.480  0.3556 -0.4628  0.4971
13510TIP3    H161945   0.037   4.299   3.505  0.1383  0.1710 -1.7819
13510TIP3    H261946  -0.014   4.157   3.503 -0.8712  0.5119 -1.1074
13511TIP3   OH261947   2.147   0.971  12.686  0.4730  0.0213  0.0406
13511TIP3    H161948   2.092   1.004  12.757  0.4739  0.6264 -0.2429
13511TIP3    H261949   2.087   0.953  12.614  0.4089 -1.0204  0.3317
13512TIP3   OH261950   3.155   2.063   1.516 -0.1560  0.9746 -0.4704
13512TIP3    H161951   3.236   2.114   1.526  0.4057  0.0450 -0.1320
13512TIP3    H261952   3.092   2.125   1.479  0.9004  1.5353 -1.3930
13513TIP3   OH261953   2.090   5.374   1.806  0.2130  0.5343 -0.2874
13513TIP3    H161954   2.021   5.440   1.795 -0.2334  0.3016  0.9155
13513TIP3    H261955   2.137   5.403   1.884 -0.0346 -0.5975  0.2934
13514TIP3   OH261956   4.618   4.345  13.485  0.3360 -0.0957  0.0742
13514TIP3    H161957   4.667   4.427  13.478  2.7731 -1.1955  2.5838
13514TIP3    H261958   4.672   4.281  13.437 -0.6304 -0.5989 -0.3647
13515TIP3   OH261959   2.904   6.664  17.287 -0.3100 -0.2402 -0.4160
13515TIP3    H161960   2.840   6.630  17.350 -0.6836 -1.7656 -1.5478
13515TIP3    H261961   2.976   6.697  17.341 -1.4040  0.1784  0.8414
13516TIP3   OH261962   3.125   2.714  16.916 -0.0725 -0.1995  0.2320
13516TIP3    H161963   3.145   2.718  16.822  0.7142 -1.0803  0.3437
13516TIP3    H261964   3.211   2.718  16.958 -0.4551  0.7622  0.9515
13517TIP3   OH261965   2.233   0.480   0.393  0.2539 -0.4437 -0.0521
13517TIP3    H161966   2.299   0.412   0.400 -0.3093 -0.8911  1.2801
13517TIP3    H261967   2.270   0.554   0.442  1.1132  0.4682 -1.9629
13518TIP3   OH261968   3.160   2.973  14.510 -0.5259  0.1779  0.7903
13518TIP3    H161969   3.109   2.915  14.565 -1.9904  0.8163  0.1494
13518TIP3    H261970   3.237   2.996  14.563 -2.8113  2.3529  3.4492
13519TIP3   OH261971   0.338   3.368  16.549 -0.7826 -0.0384  0.3453
13519TIP3    H161972   0.328   3.328  16.462 -0.2204  0.3779  0.0860
13519TIP3    H261973   0.373   3.455  16.532  1.5021 -0.7493  1.0865
13520TIP3   OH261974   6.082   1.710   4.798  0.5806  0.0271 -0.2715
13520TIP3    H161975   6.042   1.768   4.863 -0.6073 -1.4205  0.3623
13520TIP3    H261976   6.158   1.672   4.842  0.6847  0.2194 -0.2840
13521TIP3   OH261977   1.594   2.653   6.827 -0.6731 -0.3265  0.0673
13521TIP3    H161978   1.517   2.663   6.884 -2.1989 -1.1759 -1.7465
13521TIP3    H261979   1.629   2.741   6.820 -2.0907  0.2790  0.1438
13522TIP3   OH261980   4.276   4.036   2.684  0.2730  0.3433 -0.3373
13522TIP3    H161981   4.203   4.045   2.622  0.1122  3.8574  0.1443
13522TIP3    H261982   4.285   3.942   2.698 -2.9307 -0.3129 -1.8584
13523TIP3   OH261983   1.018   5.520   2.814 -0.2296  0.1082 -0.0806
13523TIP3    H161984   1.042   5.533   2.723 -0.3336  0.3778 -0.0701
13523TIP3    H261985   1.047   5.431   2.835 -1.4579 -0.4882 -0.7910
13524TIP3   OH261986   3.375   2.573  12.034  0.5559  0.9189  0.5217
13524TIP3    H161987   3.379   2.531  11.949 -1.2663 -0.6907  1.1450
13524TIP3    H261988   3.293   2.622  12.033  0.0386  0.1296  1.6296
13525TIP3   OH261989   6.650   5.553  16.996 -0.2140 -0.3281 -0.1134
13525TIP3    H161990   6.624   5.610  17.068 -1.6568  1.2750 -1.7788
13525TIP3    H261991   6.615   5.467  17.019  0.0733 -0.0711  1.4244
13526TIP3   OH261992   6.132   2.588  16.961  0.8784  0.2841 -0.9633
13526TIP3    H161993   6.105   2.635  17.040 -0.8522  0.3270 -1.5465
13526TIP3    H261994   6.129   2.495  16.986 -0.8295  0.2283 -1.2844
13527TIP3   OH261995   6.571   1.991   0.359  0.5765 -0.0451 -0.0546
13527TIP3    H161996   6.518   2.039   0.423  0.8256  0.2471 -0.0610
13527TIP3    H261997   6.633   1.941   0.413  1.6908  1.2419 -0.0593
13528TIP3   OH261998   1.631   3.072  12.004  0.4409  0.3133 -0.2320
13528TIP3    H161999   1.725   3.081  12.022  0.2480  0.6783  0.6853
13528TIP3    H262000   1.592   3.060  12.091 -0.1718 -1.7683 -0.7406
13529TIP3   OH262001   2.631   6.426   5.866 -0.7663 -0.4809  0.1045
13529TIP3    H162002   2.726   6.422   5.879 -0.3897  1.5683 -1.4059
13529TIP3    H262003   2.598   6.470   5.944 -0.1054  1.0299 -0.4272
13530TIP3   OH262004   1.618   0.761  11.665  0.2985 -0.7390  0.0638
13530TIP3    H162005   1.668   0.767  11.584  0.1605 -0.8394 -0.0301
13530TIP3    H262006   1.675   0.798  11.732  0.3647 -0.5485 -0.1001
13531TIP3   OH262007   5.323   2.841  15.611 -0.4041  0.2327 -0.4183
13531TIP3    H162008   5.372   2.919  15.587 -0.1570  0.4414  0.7095
13531TIP3    H262009   5.385   2.788  15.660 -0.8146 -0.2995 -0.4642
13532TIP3   OH262010   2.445   4.986   5.464 -0.5553  0.1461  0.1800
13532TIP3    H162011   2.382   4.957   5.398  0.2537  1.3360 -1.1600
13532TIP3    H262012   2.517   4.923   5.456 -0.7740 -0.1438  0.4544
13533TIP3   OH262013   5.074   3.002  12.511 -0.4738 -0.2849  0.0169
13533TIP3    H162014   5.164   3.000  12.478 -0.2349 -0.0781  0.6458
13533TIP3    H262015   5.061   3.092  12.540 -0.2948 -0.7150  1.5125
13534TIP3   OH262016   0.986   3.705   2.152 -0.3853  0.1443  0.5358
13534TIP3    H162017   1.035   3.746   2.082  1.2152 -1.1084  0.8777
13534TIP3    H262018   0.998   3.611   2.139 -2.5930 -0.2353  0.7309
13535TIP3   OH262019   2.070   1.327   0.205  0.1545 -0.1509 -0.1453
13535TIP3    H162020   2.081   1.235   0.181  0.5682  0.2483 -1.5352
13535TIP3    H262021   2.066   1.326   0.301  1.2704 -1.5037 -0.0821
13536TIP3   OH262022   3.208   6.232   2.784  0.3830 -0.2797 -0.0031
13536TIP3    H162023   3.199   6.229   2.689  0.1830 -1.6143  0.0455
13536TIP3    H262024   3.288   6.283   2.799  0.7462 -0.5759 -0.9108
13537TIP3   OH262025   0.569   1.104  16.254  0.0733  0.0486 -0.5255
13537TIP3    H162026   0.533   1.193  16.264  0.7953  0.2324  0.5698
13537TIP3    H262027   0.548   1.061  16.337 -0.8787 -1.0454 -1.3137
13538TIP3   OH262028   1.711   1.089  12.279 -0.7703  0.1959  0.5083
13538TIP3    H162029   1.663   1.165  12.312 -0.9501  0.3376 -0.0687
13538TIP3    H262030   1.784   1.126  12.229 -1.1800  0.0012 -0.2457
13539TIP3   OH262031   3.253   2.596   4.990 -0.0202  0.3874 -0.4795
13539TIP3    H162032   3.190   2.661   4.959  0.2110  0.9366  0.1825
13539TIP3    H262033   3.266   2.538   4.915  0.5773  1.7154 -1.4565
13540TIP3   OH262034   6.286   4.049  15.040 -0.0462  0.1366 -0.0233
13540TIP3    H162035   6.295   3.983  15.109 -1.1741  0.1557  0.1674
13540TIP3    H262036   6.376   4.066  15.010  0.2316 -2.2501 -0.7992
13541TIP3   OH262037   6.658   0.401   0.033  0.0706  0.3025 -0.5213
13541TIP3    H162038   6.644   0.487   0.073 -0.1075  0.1170 -0.1845
13541TIP3    H262039   6.618   0.339   0.094 -0.3895  0.0349 -1.0863
13542TIP3   OH262040   1.365   2.405  14.208  0.4625 -0.5472  0.0323
13542TIP3    H162041   1.368   2.471  14.139  0.4240 -1.1592 -0.5692
13542TIP3    H262042   1.427   2.337  14.179  0.8538 -0.5635  0.8677
13543TIP3   OH262043   3.538   1.005   5.039 -0.1230 -0.0865  0.3767
13543TIP3    H162044   3.580   0.964   4.963  0.9282 -2.1003  1.9492
13543TIP3    H262045   3.470   0.943   5.064 -0.6633  0.7093  0.9094
13544TIP3   OH262046   6.692   2.870  13.314 -0.3299  0.4615 -0.2772
13544TIP3    H162047   6.611   2.860  13.364 -1.5618  1.5284 -1.9375
13544TIP3    H262048   6.702   2.786  13.268  0.2393 -0.1384  0.9080
13545TIP3   OH262049   0.496   3.150  10.498  0.5001  0.3874  0.0778
13545TIP3    H162050   0.503   3.055  10.494  0.6287  0.4399 -2.4224
13545TIP3    H262051   0.586   3.181  10.509  0.7492  0.2493 -1.4068
13546TIP3   OH262052   4.148   2.963  12.434 -0.0431  0.1972 -0.2854
13546TIP3    H162053   4.233   2.921  12.445  0.1250 -0.2315 -2.6952
13546TIP3    H262054   4.085   2.896  12.462  0.3439 -0.0513  0.0046
13547TIP3   OH262055   2.985   3.183  14.764  0.4839 -0.4840 -0.3877
13547TIP3    H162056   2.991   3.094  14.728 -1.3337 -0.8562  0.1156
13547TIP3    H262057   2.980   3.240  14.687 -2.8780 -1.2238 -0.8372
13548TIP3   OH262058   1.709   6.149   0.995  0.1047 -0.1420  0.4539
13548TIP3    H162059   1.798   6.176   1.017  0.2396  0.0957 -0.3832
13548TIP3    H262060   1.656   6.227   1.010 -0.0147 -0.3661  1.2358
13549TIP3   OH262061   5.114   2.718  12.317 -0.1421 -0.3509 -0.2220
13549TIP3    H162062   5.194   2.756  12.354 -1.6557  1.0918  1.8333
13549TIP3    H262063   5.128   2.718  12.223  1.1255  2.6599 -0.1256
13550TIP3   OH262064   6.173   5.404  14.172  0.3033  0.6935 -0.0946
13550TIP3    H162065   6.115   5.329  14.179 -1.9776  2.4054  0.4591
13550TIP3    H262066   6.201   5.421  14.262  0.5729  0.6875 -0.1772
13551TIP3   OH262067   4.825   6.497  15.121 -0.3211 -0.2522 -0.1171
13551TIP3    H162068   4.862   6.431  15.063 -0.4437 -1.7629  1.4105
13551TIP3    H262069   4.845   6.465  15.209  1.2404  2.7241  0.7431
13552TIP3   OH262070   3.953   0.512  14.842 -0.0426  0.3451 -0.7529
13552TIP3    H162071   3.973   0.437  14.898  1.0772 -0.5320 -2.2486
13552TIP3    H262072   3.902   0.475  14.770  1.6357  0.6945 -2.2158
13553TIP3   OH262073   6.223   3.066  14.481  0.1413 -0.0172  0.1357
13553TIP3    H162074   6.141   3.058  14.531 -0.3971  1.1533 -0.5177
13553TIP3    H262075   6.289   3.025  14.537 -0.6798  0.0799  1.2162
13554TIP3   OH262076   5.010   3.756   5.424  0.6160 -0.4512  0.0640
13554TIP3    H162077   5.006   3.837   5.375  1.8810 -0.6907 -0.4713
13554TIP3    H262078   5.052   3.693   5.365 -2.1033 -2.0971 -0.2922
13555TIP3   OH262079   1.619   4.483   1.683  0.1749  0.2682 -0.6387
13555TIP3    H162080   1.629   4.569   1.724 -3.0072  0.1297  0.7225
13555TIP3    H262081   1.536   4.489   1.637 -1.1540 -2.6403  1.1601
13556TIP3   OH262082   2.367   1.958   3.550 -0.5117 -0.0031 -0.2330
13556TIP3    H162083   2.374   2.052   3.536  0.1647 -0.2502 -1.8544
13556TIP3    H262084   2.453   1.931   3.584 -1.9456  0.4865  4.4304
13557TIP3   OH262085   0.521   0.310   5.710  0.3982  0.3435 -0.3518
13557TIP3    H162086   0.551   0.219   5.715 -0.4670  0.0453 -0.3564
13557TIP3    H262087   0.523   0.340   5.801 -3.0371 -0.9694  0.3446
13558TIP3   OH262088   6.714   6.590  12.625  0.0456 -0.0703  0.0778
13558TIP3    H162089   6.665   6.517  12.663 -0.2090 -0.2051 -0.4923
13558TIP3    H262090   6.647   6.642  12.580  0.6162 -1.2083 -2.2347
13559TIP3   OH262091   0.872   4.324  13.690 -0.2506 -0.4799 -0.2833
13559TIP3    H162092   0.802   4.384  13.666 -0.8311 -0.3469  1.6219
13559TIP3    H262093   0.904   4.356  13.774  1.1755 -1.3475 -0.4593
13560TIP3   OH262094   4.233   4.306   4.611  0.1327  0.2384 -0.1337
13560TIP3    H162095   4.150   4.290   4.566 -1.0699  1.8648  1.3494
13560TIP3    H262096   4.255   4.222   4.650 -1.1254 -0.1000 -0.1042
13561TIP3   OH262097   1.313   6.453  14.895 -0.1793  0.3373  0.1085
13561TIP3    H162098   1.402   6.424  14.916 -0.7718 -0.9840  0.8972
13561TIP3    H262099   1.326   6.536  14.849  1.4626  0.1494  0.1499
13562TIP3   OH262100   2.720   6.403  11.917 -0.1148  0.1492  0.4288
13562TIP3    H162101   2.737   6.437  11.829  0.0504  1.7318  1.0509
13562TIP3    H262102   2.625   6.395  11.922 -0.1365  0.2346  0.1758
13563TIP3   OH262103   5.349   0.545  16.615  0.0096 -0.4864  0.3068
13563TIP3    H162104   5.312   0.498  16.689  1.5001 -2.5531 -0.1689
13563TIP3    H262105   5.376   0.476  16.554  0.1795  1.0941 -1.5010
13564TIP3   OH262106   5.904   1.835   2.233 -0.5446 -0.3543  0.2757
13564TIP3    H162107   5.943   1.914   2.194 -1.9390 -0.1210 -0.7286
13564TIP3    H262108   5.869   1.864   2.317 -2.8564  0.6658 -0.9543
13565TIP3   OH262109   2.311   3.504  16.758 -0.1237  0.1387 -0.0564
13565TIP3    H162110   2.371   3.489  16.830 -0.5682 -0.1863  0.2521
13565TIP3    H262111   2.308   3.599  16.749 -1.4546  0.3008  1.5697
13566TIP3   OH262112   4.214   4.472  11.115 -0.4565  0.4243  0.7972
13566TIP3    H162113   4.120   4.486  11.128 -0.6493  1.3280 -1.1904
13566TIP3    H262114   4.219   4.399  11.053 -0.0946  2.7874 -2.1901
13567TIP3   OH262115   3.915   2.437   3.735 -0.3164  0.1719 -0.4338
13567TIP3    H162116   3.980   2.370   3.754 -0.0061  0.8648  1.1635
13567TIP3    H262117   3.965   2.509   3.697 -0.2178  0.4863  0.2722
13568TIP3   OH262118   3.617   6.344   5.917 -0.5392 -0.1454 -0.0268
13568TIP3    H162119   3.619   6.249   5.922 -0.9479 -0.2786 -1.7680
13568TIP3    H262120   3.525   6.368   5.929 -0.7178 -0.1248 -1.2773
13569TIP3   OH262121   5.792   5.284  13.309 -0.0054  0.1003 -0.1070
13569TIP3    H162122   5.709   5.239  13.295  0.9502 -1.0519 -2.7748
13569TIP3    H262123   5.805   5.282  13.404 -1.4856 -2.5711  0.1326
13570TIP3   OH262124   5.749   5.342  11.993  0.0083 -0.5438  0.1864
13570TIP3    H162125   5.741   5.435  11.968 -0.9320  0.7504  4.4372
13570TIP3    H262126   5.662   5.305  11.975 -1.0558  0.6834  2.3488
13571TIP3   OH262127   3.655   2.902   2.519  0.2030  0.6243 -0.2750
13571TIP3    H162128   3.595   2.968   2.554 -0.0344  0.1524  0.2161
13571TIP3    H262129   3.739   2.948   2.511  0.5279  0.4865  1.8832
13572TIP3   OH262130   3.973   6.102   3.472  0.0700 -0.7739 -0.2674
13572TIP3    H162131   3.982   6.047   3.394  0.6166  0.6527 -1.2489
13572TIP3    H262132   3.921   6.177   3.443  1.0786  0.2457  0.4693
13573TIP3   OH262133   3.869   1.897   0.886 -1.2497 -0.5038  0.0678
13573TIP3    H162134   3.868   1.864   0.796 -1.1886 -2.2409  0.6606
13573TIP3    H262135   3.938   1.964   0.885 -0.8323 -0.9113 -1.0429
13574TIP3   OH262136   3.890   4.344  15.408  0.3268 -0.2586 -0.1087
13574TIP3    H162137   3.849   4.421  15.447  1.6652  1.5689 -2.0853
13574TIP3    H262138   3.980   4.345  15.440  0.5299 -0.6167 -0.6455
13575TIP3   OH262139   1.618   5.110   1.678 -0.0391 -0.8339 -0.0177
13575TIP3    H162140   1.711   5.118   1.660 -0.3269  0.5034 -1.0629
13575TIP3    H262141   1.599   5.179   1.742 -0.6337  0.2298 -1.2772
13576TIP3   OH262142   2.653   5.310  16.090 -0.5961  0.0553 -0.0610
13576TIP3    H162143   2.606   5.257  16.025 -0.7474  0.8422 -0.5999
13576TIP3    H262144   2.597   5.387  16.103  0.1092  0.5678 -0.0274
13577TIP3   OH262145   5.338   6.737   0.360  0.1116  0.2981  0.3455
13577TIP3    H162146   5.324   6.803   0.292 -1.2970 -0.2125  0.1168
13577TIP3    H262147   5.270   6.756   0.425  0.2787 -0.3673  0.7169
13578TIP3   OH262148   6.095   3.690   2.074 -0.2884 -0.2827 -0.2412
13578TIP3    H162149   6.140   3.620   2.122  0.0182  0.7818  1.0778
13578TIP3    H262150   6.002   3.666   2.078 -0.2367 -0.3810  0.6319
13579TIP3   OH262151   4.186   2.055   2.353 -0.4346 -0.4884 -0.1173
13579TIP3    H162152   4.133   2.134   2.348 -1.2301 -0.8210  2.0531
13579TIP3    H262153   4.124   1.983   2.349  0.1150 -0.9616 -0.3329
13580TIP3   OH262154   2.080   4.952   2.089  0.0568  0.0268  0.2120
13580TIP3    H162155   2.154   4.919   2.140 -0.2297 -0.0963  0.5549
13580TIP3    H262156   2.009   4.960   2.153  0.0035  0.9192  0.0483
13581TIP3   OH262157   5.136   0.594   4.289 -0.0069  0.1160 -0.3992
13581TIP3    H162158   5.167   0.672   4.337 -2.2992  1.2831 -0.6883
13581TIP3    H262159   5.076   0.551   4.350 -0.2191 -0.3794 -0.9544
13582TIP3   OH262160   0.050   3.460  13.494 -0.0022  0.5820  0.1250
13582TIP3    H162161   0.012   3.496  13.574 -0.4732 -1.3726  0.8451
13582TIP3    H262162   0.092   3.379  13.522  0.4263  0.1993 -1.5010
13583TIP3   OH262163   4.310   6.706  13.224 -0.3971  0.0600 -0.0724
13583TIP3    H162164   4.224   6.715  13.183  0.1977 -0.0413 -1.3964
13583TIP3    H262165   4.303   6.628  13.278 -0.8258 -0.5807 -1.0293
13584TIP3   OH262166   2.329   0.067   3.951  0.8778 -0.5694  0.5098
13584TIP3    H162167   2.332  -0.022   3.987 -3.0232 -0.5950  1.2355
13584TIP3    H262168   2.272   0.114   4.012 -1.9433  0.7672 -2.8885
13585TIP3   OH262169   2.688   3.689  15.432  0.3863 -0.3242  0.3166
13585TIP3    H162170   2.754   3.711  15.366 -2.6288  1.8897 -2.2764
13585TIP3    H262171   2.690   3.762  15.493  1.5907 -1.2350  1.4139
13586TIP3   OH262172   6.429   5.258  14.072  0.2727  0.0435  0.1626
13586TIP3    H162173   6.409   5.207  14.150  0.6337  2.4980  1.9636
13586TIP3    H262174   6.372   5.334  14.077  1.2303  0.9172 -1.2807
13587TIP3   OH262175   4.438   5.600   1.125  0.3128 -0.3333 -0.2486
13587TIP3    H162176   4.456   5.661   1.054 -0.0685 -0.9913 -0.9264
13587TIP3    H262177   4.446   5.514   1.085  1.6929 -0.7851  0.8813
13588TIP3   OH262178   5.110   4.657  13.815 -0.1684 -0.9413 -0.3431
13588TIP3    H162179   5.122   4.686  13.725 -1.4216 -0.3935 -0.3610
13588TIP3    H262180   5.024   4.615  13.815 -0.2825 -0.7308  0.6457
13589TIP3   OH262181   2.995   0.139  12.941  0.0401  0.4976 -0.0813
13589TIP3    H162182   2.951   0.165  12.860 -0.1588 -0.0493 -0.1491
13589TIP3    H262183   2.931   0.084  12.987  0.3757  0.3086  0.1634
13590TIP3   OH262184   3.744   1.272  12.078 -0.0550  0.2378 -0.2279
13590TIP3    H162185   3.821   1.227  12.045  0.2248  0.3873  0.2063
13590TIP3    H262186   3.778   1.354  12.115 -0.3733  0.1428  0.2871
13591TIP3   OH262187   3.522   2.570  12.286  0.6768 -0.0268 -0.4577
13591TIP3    H162188   3.560   2.656  12.303  1.3981 -0.4212 -0.0252
13591TIP3    H262189   3.544   2.551  12.195 -0.5482  0.7584 -0.9588
13592TIP3   OH262190   1.844   1.564  12.841  0.1082  0.1238 -0.0670
13592TIP3    H162191   1.843   1.521  12.926 -2.8504  1.2334  0.5664
13592TIP3    H262192   1.764   1.534  12.797  0.6123  1.0023 -1.6965
13593TIP3   OH262193   4.465   2.306  13.848  0.6679  0.1541 -0.5016
13593TIP3    H162194   4.409   2.380  13.824 -0.1415  0.0709  1.0259
13593TIP3    H262195   4.510   2.335  13.928  0.0311 -1.1400  0.3542
13594TIP3   OH262196   5.723   3.384   6.413  0.2322 -0.3313 -0.4044
13594TIP3    H162197   5.794   3.391   6.477 -0.6443  1.8312  0.4023
13594TIP3    H262198   5.665   3.458   6.432  0.0437  0.5846 -3.8421
13595TIP3   OH262199   2.780   6.034  14.308 -0.5176  0.5410 -0.6568
13595TIP3    H162200   2.809   6.039  14.399 -1.4136 -0.0002 -0.3246
13595TIP3    H262201   2.844   5.977  14.266 -1.8516 -1.9038  0.4252
13596TIP3   OH262202   4.661   5.440  16.483  0.4527  0.0233 -0.9532
13596TIP3    H162203   4.595   5.457  16.416 -0.6782  3.7296  0.8501
13596TIP3    H262204   4.714   5.519  16.486  0.1072  0.3068  2.7970
13597TIP3   OH262205   4.456   0.646   2.424 -0.6253 -0.1143  0.4356
13597TIP3    H162206   4.469   0.672   2.515 -0.8735 -1.0884  0.7657
13597TIP3    H262207   4.411   0.562   2.430  0.1244 -0.6087 -0.5685
13598TIP3   OH262208   3.196   5.030  10.591 -0.3741 -1.1599 -0.0314
13598TIP3    H162209   3.175   4.944  10.629  3.0619 -2.1673 -0.0715
13598TIP3    H262210   3.172   5.092  10.660 -1.8839 -2.1951  0.4505
13599TIP3   OH262211   3.019   2.326  14.614 -0.0402 -0.0478  0.0549
13599TIP3    H162212   2.938   2.339  14.664  0.2489  0.8291  0.2993
13599TIP3    H262213   3.057   2.247  14.652 -0.0761  0.3292  0.8828
13600TIP3   OH262214   5.017   0.039   1.756 -0.1889  0.3071 -0.0003
13600TIP3    H162215   4.944   0.046   1.694 -0.1454  1.3000  0.0466
13600TIP3    H262216   5.068   0.120   1.743  1.3190 -0.6782 -0.5430
13601TIP3   OH262217   3.398   4.967  16.912  0.1503 -0.6019 -0.3263
13601TIP3    H162218   3.322   4.956  16.856  0.4944 -1.0938 -0.7039
13601TIP3    H262219   3.473   4.946  16.856  0.4538 -1.8525  0.5099
13602TIP3   OH262220   3.530   6.667  14.260  0.5795 -0.4483  0.2944
13602TIP3    H162221   3.510   6.612  14.184  0.0424  0.9803 -0.6482
13602TIP3    H262222   3.507   6.614  14.335 -1.0312 -1.0999 -0.6098
13603TIP3   OH262223   1.095   0.323   0.014 -0.0713 -0.6677 -0.2882
13603TIP3    H162224   1.156   0.260  -0.024  0.8600  0.2865 -0.4361
13603TIP3    H262225   1.094   0.302   0.108  0.4770 -0.7228 -0.2903
13604TIP3   OH262226   1.674   3.148  15.998 -0.8748 -0.0455 -0.4432
13604TIP3    H162227   1.757   3.189  16.022 -1.4362  0.0433  1.5539
13604TIP3    H262228   1.634   3.208  15.936  0.0378  0.4988 -0.5174
13605TIP3   OH262229   0.636   3.036   2.872 -0.6361  0.0909 -0.1325
13605TIP3    H162230   0.713   3.037   2.929  0.3376 -0.4445 -1.3821
13605TIP3    H262231   0.630   3.125   2.837  0.3018 -0.2207 -1.1389
13606TIP3   OH262232   1.198   3.473  16.578  0.2255 -0.1704  0.0981
13606TIP3    H162233   1.107   3.491  16.599 -0.1891 -0.2471 -1.5329
13606TIP3    H262234   1.222   3.400  16.636 -1.5401 -1.8948 -1.2099
13607TIP3   OH262235   4.793   0.700  15.547  0.3436 -0.1857  0.1033
13607TIP3    H162236   4.840   0.663  15.472  1.7277  3.4176 -1.0333
13607TIP3    H262237   4.829   0.654  15.622  2.3212 -0.7965 -1.1341
13608TIP3   OH262238   2.613   5.958   3.407  0.0760  0.6267 -0.2585
13608TIP3    H162239   2.597   6.028   3.470  1.0308 -0.3550  1.1221
13608TIP3    H262240   2.632   6.004   3.325 -3.1741  1.9053 -0.4423
13609TIP3   OH262241   5.855   1.091   5.873 -0.1169  0.5461 -0.1167
13609TIP3    H162242   5.768   1.129   5.886 -0.0952  0.1105  1.4026
13609TIP3    H262243   5.883   1.064   5.960  1.0396 -0.4291 -0.7648
13610TIP3   OH262244   1.104   3.998  16.583  0.3859 -0.5755  0.4520
13610TIP3    H162245   1.021   4.011  16.537 -1.0532 -1.1686  2.7444
13610TIP3    H262246   1.104   3.905  16.604  1.1920 -0.3912  1.2882
13611TIP3   OH262247   3.964   1.363  14.656  0.2286  0.4857  0.2869
13611TIP3    H162248   4.015   1.283  14.649 -1.4142 -0.4540 -2.2287
13611TIP3    H262249   3.899   1.345  14.724 -0.0320 -0.2884 -0.1603
13612TIP3   OH262250   3.092   1.795   5.449 -0.1589 -0.4216 -0.1566
13612TIP3    H162251   3.172   1.809   5.499 -0.6150  0.0215  0.4677
13612TIP3    H262252   3.072   1.702   5.462 -0.2502 -0.3183  0.4534
13613TIP3   OH262253   2.585   3.682  15.919 -0.2044  0.2327  0.2021
13613TIP3    H162254   2.678   3.691  15.940  0.1688  1.4205 -1.7423
13613TIP3    H262255   2.569   3.588  15.920  1.2951 -0.0549 -0.5434
13614TIP3   OH262256   5.744   0.453   3.134  0.3951  0.1692 -0.1079
13614TIP3    H162257   5.839   0.460   3.132  0.4527 -0.5699 -1.4338
13614TIP3    H262258   5.715   0.506   3.060 -0.2088  0.2712  0.1976
13615TIP3   OH262259   4.074   4.329   2.304 -0.8776  0.1347 -0.0385
13615TIP3    H162260   4.008   4.313   2.371  0.0149  0.5808  0.9732
13615TIP3    H262261   4.129   4.399   2.340  1.8066 -2.0142  0.3649
13616TIP3   OH262262   1.186   1.179  11.996 -0.6672  0.1885  0.8413
13616TIP3    H162263   1.253   1.195  11.929 -1.2009  1.9801  0.7078
13616TIP3    H262264   1.127   1.254  11.990 -0.8169  0.3195  3.2338
13617TIP3   OH262265   5.737   6.432   4.602 -0.2986 -0.3759  0.0645
13617TIP3    H162266   5.810   6.391   4.555  1.2316 -1.4551  3.1166
13617TIP3    H262267   5.738   6.523   4.571  3.3764  0.0530  0.9813
13618TIP3   OH262268   4.960   4.634   3.541  0.2029 -0.2217 -0.0181
13618TIP3    H162269   4.986   4.703   3.479  2.3884 -0.3767  0.6567
13618TIP3    H262270   4.937   4.560   3.485  0.4571  0.1896 -0.6842
13619TIP3   OH262271   0.535   1.078  11.193 -0.1687  0.2219  0.0044
13619TIP3    H162272   0.570   1.152  11.144 -0.6744  0.0050 -0.7042
13619TIP3    H262273   0.542   1.004  11.133 -1.1726  0.0307  0.1149
13620TIP3   OH262274   1.455   3.630  16.895  0.3513 -0.2588 -0.2455
13620TIP3    H162275   1.453   3.546  16.848 -0.2149  0.2807 -1.2235
13620TIP3    H262276   1.364   3.658  16.897  0.6062  0.6156 -0.4528
13621TIP3   OH262277   0.786   3.730  14.727  0.1823  0.1216 -0.5506
13621TIP3    H162278   0.696   3.698  14.734  0.0794  0.3974 -0.5911
13621TIP3    H262279   0.804   3.771  14.811  1.3301 -2.5815  0.6198
13622TIP3   OH262280   6.082   2.974  13.599 -0.6105 -0.4149 -0.3283
13622TIP3    H162281   6.061   2.908  13.664  0.0558 -1.5042 -1.1914
13622TIP3    H262282   6.022   2.956  13.526  0.2153 -0.6761 -0.9537
13623TIP3   OH262283   2.952   5.289  14.142 -0.1716 -0.1080  0.0661
13623TIP3    H162284   2.908   5.374  14.134 -1.6962 -0.8978 -0.4465
13623TIP3    H262285   2.914   5.250  14.221  1.5900  0.2409  1.1430
13624TIP3   OH262286   3.878   1.697   2.058 -0.2490 -0.1838 -0.1389
13624TIP3    H162287   3.800   1.648   2.085 -1.8123  0.8309 -2.4902
13624TIP3    H262288   3.951   1.648   2.096 -1.9227 -2.1205  0.7947
13625TIP3   OH262289   5.867   1.454  13.414 -0.3549  0.1067 -0.0347
13625TIP3    H162290   5.773   1.464  13.398 -0.3091  1.4993  0.4684
13625TIP3    H262291   5.905   1.539  13.391  1.1953 -1.2079 -2.8319
13626TIP3   OH262292   3.365   3.184   4.970  0.4962  0.2173  0.4208
13626TIP3    H162293   3.310   3.260   4.948  0.9415  0.5574  0.4707
13626TIP3    H262294   3.327   3.112   4.921 -0.4778  0.2774  1.0510
13627TIP3   OH262295   6.527   3.139  13.343  0.1129 -0.3895  0.6020
13627TIP3    H162296   6.454   3.171  13.397  0.8934 -0.3090  1.6329
13627TIP3    H262297   6.517   3.185  13.260 -1.7967 -1.3772  0.2213
13628TIP3   OH262298   3.670   5.851  16.395  0.0789 -0.4088  0.2281
13628TIP3    H162299   3.609   5.782  16.422  1.8617 -1.6882  1.1806
13628TIP3    H262300   3.753   5.827  16.436  1.6178  0.4653 -2.1431
13629TIP3   OH262301   4.790   5.946   3.832  0.3781  0.0132  0.2121
13629TIP3    H162302   4.774   5.925   3.924  2.7303  1.4974  1.0523
13629TIP3    H262303   4.754   6.035   3.822 -0.9231 -0.5810 -0.6730
13630TIP3   OH262304   4.418   1.114   3.135  0.2369  0.0601 -0.1839
13630TIP3    H162305   4.382   1.183   3.080 -0.3875 -1.6684 -2.0525
13630TIP3    H262306   4.435   1.042   3.075  1.4093 -1.2205  1.5999
13631TIP3   OH262307   0.437   2.462   5.662 -1.2755  0.4620 -0.0360
13631TIP3    H162308   0.361   2.514   5.689 -3.2575 -1.1720 -2.1255
13631TIP3    H262309   0.452   2.487   5.571  0.2810  0.2045  0.1168
13632TIP3   OH262310   2.700   6.293   2.902 -0.1260 -0.2311 -0.4799
13632TIP3    H162311   2.621   6.278   2.954  1.2142 -0.6187  1.5719
13632TIP3    H262312   2.717   6.387   2.910  1.4964 -0.6395  2.1282
13633TIP3   OH262313   6.661   2.536  13.764 -0.3976 -0.1678  0.4220
13633TIP3    H162314   6.575   2.545  13.804 -0.5758 -1.1663  0.2756
13633TIP3    H262315   6.681   2.442  13.768  1.3509  0.1937  1.8410
13634TIP3   OH262316   4.183   5.955   4.008 -0.1376  0.7450  0.0189
13634TIP3    H162317   4.155   5.866   3.984  0.3084  0.5760  0.1118
13634TIP3    H262318   4.195   5.950   4.103  0.3567  0.7704 -0.0401
13635TIP3   OH262319   1.288   5.036  16.296  0.0245  0.2976 -0.4996
13635TIP3    H162320   1.380   5.056  16.310  0.2702 -1.6652  1.2592
13635TIP3    H262321   1.243   5.073  16.373 -0.5254  0.5097 -0.9190
13636TIP3   OH262322   6.702   1.810   2.587  0.3746  0.0617 -0.2487
13636TIP3    H162323   6.688   1.895   2.627 -0.4031  0.8458 -2.1015
13636TIP3    H262324   6.798   1.802   2.580  0.4518  0.7073  0.0304
13637TIP3   OH262325   4.531   0.513   5.241  0.4655  0.1951  0.0988
13637TIP3    H162326   4.566   0.503   5.329 -1.1162  0.8446  0.8289
13637TIP3    H262327   4.450   0.462   5.241  0.2790  0.4651 -0.8868
13638TIP3   OH262328   3.456   1.463   2.504  0.0168  0.3454  0.0691
13638TIP3    H162329   3.494   1.377   2.489 -0.0117  0.3121  0.1858
13638TIP3    H262330   3.427   1.461   2.595  0.9773  0.8398  0.3981
13639TIP3   OH262331   1.853   4.456   6.098  0.0806 -0.7837 -0.5731
13639TIP3    H162332   1.889   4.537   6.063  0.3551 -0.7656 -0.2539
13639TIP3    H262333   1.759   4.463   6.080  0.0621 -0.2717 -0.3122
13640TIP3   OH262334   1.536   5.810   2.595 -0.2194 -0.6605 -0.3969
13640TIP3    H162335   1.552   5.877   2.661  1.3178  1.3416 -2.6486
13640TIP3    H262336   1.576   5.731   2.630  1.6071  0.6431  0.5943
13641TIP3   OH262337   0.200   5.205  11.024  0.3565  0.0524  0.3010
13641TIP3    H162338   0.217   5.150  10.947 -1.7036  0.8703 -0.8064
13641TIP3    H262339   0.169   5.144  11.091 -0.3468 -0.3589 -0.3865
13642TIP3   OH262340   3.469   4.258  12.927 -0.0057  0.6697 -0.0067
13642TIP3    H162341   3.544   4.271  12.870  1.1823 -2.1499  0.7567
13642TIP3    H262342   3.470   4.165  12.949 -1.8661  1.1173  2.6050
13643TIP3   OH262343   1.078   5.906  15.010 -0.2991  0.1635  0.3184
13643TIP3    H162344   1.141   5.874  14.945  1.1444  1.4224  1.0382
13643TIP3    H262345   1.036   5.827  15.043 -0.1031 -0.6036 -1.1832
13644TIP3   OH262346   4.340   0.383  11.182 -0.4186  0.4104  0.1348
13644TIP3    H162347   4.318   0.435  11.105  2.1662 -0.1178 -1.0615
13644TIP3    H262348   4.369   0.299  11.147  0.5954  0.0697  1.7037
13645TIP3   OH262349   6.034   3.372  16.434  0.1158  0.1174 -0.2280
13645TIP3    H162350   6.063   3.462  16.448 -0.1676  0.3598 -1.1268
13645TIP3    H262351   5.968   3.356  16.502 -0.1908  0.7533 -0.3740
13646TIP3   OH262352   3.346   3.755  16.310  0.2621 -0.0753  0.3731
13646TIP3    H162353   3.401   3.769  16.233 -0.3117  1.2404  0.1579
13646TIP3    H262354   3.405   3.723  16.378  1.1895  0.7983 -0.0045
13647TIP3   OH262355   6.182   5.188  16.548  0.3712  0.2920 -0.1394
13647TIP3    H162356   6.267   5.228  16.527  0.2109  0.9915  0.4883
13647TIP3    H262357   6.194   5.149  16.634 -0.4387  1.9554  0.7643
13648TIP3   OH262358   5.866   5.198   5.548 -0.3989 -0.1765 -0.4492
13648TIP3    H162359   5.921   5.196   5.626 -1.6124  0.1456  0.4407
13648TIP3    H262360   5.926   5.220   5.477  0.7015 -0.3481  0.4066
13649TIP3   OH262361   2.888   4.265   0.852  0.3005  0.6858 -0.7475
13649TIP3    H162362   2.892   4.272   0.947 -0.7287 -1.2890 -0.5062
13649TIP3    H262363   2.796   4.285   0.831  0.0426 -0.7994 -1.1025
13650TIP3   OH262364   2.658   1.108  15.014 -0.2092  0.0290  0.1998
13650TIP3    H162365   2.730   1.050  14.987  0.9555  1.1473  0.7921
13650TIP3    H262366   2.660   1.179  14.950 -0.5515  0.2556  0.4423
13651TIP3   OH262367   1.823   2.007  12.469  0.4868 -0.1412 -0.2618
13651TIP3    H162368   1.829   2.008  12.373 -2.5834 -1.3763 -0.5793
13651TIP3    H262369   1.827   1.915  12.492 -2.6858 -0.2381  0.3240
13652TIP3   OH262370   2.272   3.737  12.001 -0.1079  0.4373 -0.1261
13652TIP3    H162371   2.257   3.755  11.908 -2.4340 -1.5075 -0.2300
13652TIP3    H262372   2.310   3.649  12.002  0.6838  0.7711  0.7556
13653TIP3   OH262373   6.092   1.589   3.107 -0.0621 -0.0863 -0.2552
13653TIP3    H162374   6.022   1.654   3.098  1.1801  1.3529  0.0392
13653TIP3    H262375   6.153   1.610   3.037 -0.2265 -1.7505 -0.9263
13654TIP3   OH262376   3.479   6.436  11.056  0.4262  0.5313 -0.9957
13654TIP3    H162377   3.465   6.526  11.024  0.9330  1.0085  0.0643
13654TIP3    H262378   3.550   6.445  11.119  0.8146 -0.7092 -1.2341
13655TIP3   OH262379   0.447   0.694  14.608 -0.2793 -0.4262  0.8753
13655TIP3    H162380   0.407   0.780  14.611 -0.4392 -0.4819  0.3983
13655TIP3    H262381   0.494   0.686  14.691  2.8499  1.6001 -0.5043
13656TIP3   OH262382   4.101   2.973   1.661 -0.0038 -0.0062  0.0837
13656TIP3    H162383   4.189   2.961   1.625  0.1808 -2.1455  1.0545
13656TIP3    H262384   4.091   2.900   1.723 -2.4107  0.2548  0.0920
13657TIP3   OH262385   6.527   4.145  12.262 -0.1884 -0.0517  0.4094
13657TIP3    H162386   6.597   4.115  12.320  0.1088 -1.1574 -0.4881
13657TIP3    H262387   6.548   4.237  12.244  1.4249 -0.5396 -0.3725
13658TIP3   OH262388   2.321   5.752  13.985  0.2147 -0.0067  0.5916
13658TIP3    H162389   2.273   5.742  14.068 -0.6761  1.1177  0.2417
13658TIP3    H262390   2.413   5.736  14.009 -0.0507  0.0748  1.7525
13659TIP3   OH262391   0.243   2.813   3.366 -0.1445 -0.1585  0.1038
13659TIP3    H162392   0.257   2.906   3.348  2.5765 -0.6704 -0.9858
13659TIP3    H262393   0.313   2.790   3.428 -0.5493 -1.5486  0.0828
13660TIP3   OH262394   6.090   1.221  14.322  0.1637  0.2397  0.0165
13660TIP3    H162395   6.019   1.284  14.318  0.7907  0.9455 -0.2943
13660TIP3    H262396   6.085   1.174  14.239 -1.2967 -1.2572  0.9001
13661TIP3   OH262397   4.203   1.113   6.402 -0.3122 -0.8718 -0.2728
13661TIP3    H162398   4.239   1.024   6.396  1.1001 -0.2790 -0.8246
13661TIP3    H262399   4.258   1.157   6.466 -0.7066 -0.2391 -0.3608
13662TIP3   OH262400   5.566   0.599  12.008  0.3406 -0.0546  0.0739
13662TIP3    H162401   5.565   0.674  11.949  0.1974 -0.7797 -0.8692
13662TIP3    H262402   5.513   0.533  11.964  0.7675 -0.8393  0.7073
13663TIP3   OH262403   1.183   3.487  14.441  0.2450 -0.0927 -0.2318
13663TIP3    H162404   1.232   3.469  14.361 -0.1674 -1.5085 -0.1974
13663TIP3    H262405   1.242   3.460  14.512 -1.3324 -4.2099 -0.2350
13664TIP3   OH262406   0.444   2.490   6.230 -0.9446  0.1157  0.7188
13664TIP3    H162407   0.531   2.450   6.231 -1.4844 -1.1309  0.2229
13664TIP3    H262408   0.423   2.504   6.322 -0.8499 -1.0666  0.9397
13665TIP3   OH262409   5.296   3.679  16.597 -0.3649  0.2289  0.0050
13665TIP3    H162410   5.335   3.603  16.639 -0.6979 -0.2462 -0.5456
13665TIP3    H262411   5.292   3.745  16.667 -1.0486 -0.5971  0.7666
13666TIP3   OH262412   2.960   0.612  15.602  0.4088  0.3797 -0.5517
13666TIP3    H162413   2.869   0.607  15.572  0.9058  1.6610 -2.4789
13666TIP3    H262414   2.971   0.702  15.633  0.3051 -0.5336  2.4513
13667TIP3   OH262415   1.970   2.083   0.898 -0.7321 -0.2753 -0.0118
13667TIP3    H162416   1.976   2.028   0.976  1.3055  2.3604  1.8852
13667TIP3    H262417   2.058   2.119   0.887 -1.6843  1.7693 -1.7471
13668TIP3   OH262418   4.969   6.477   2.246  0.7549 -0.0471  0.5974
13668TIP3    H162419   4.937   6.477   2.336 -0.4523  1.5648  0.1948
13668TIP3    H262420   5.011   6.562   2.235  1.9821 -0.7068 -0.0194
13669TIP3   OH262421   6.629   4.066   5.981 -0.1445  0.2697 -0.0956
13669TIP3    H162422   6.593   4.143   5.937 -0.1067 -0.5330 -1.6151
13669TIP3    H262423   6.717   4.057   5.945 -0.1028 -0.3928  0.1605
13670TIP3   OH262424   0.726   1.215  10.717  0.3227 -0.2830  0.4072
13670TIP3    H162425   0.756   1.188  10.630  0.0584  0.2818  0.1311
13670TIP3    H262426   0.632   1.229  10.706  0.5818  1.6236  0.2859
13671TIP3   OH262427   6.770   2.111   3.838 -0.6023 -0.0301  0.1011
13671TIP3    H162428   6.858   2.137   3.811 -2.0988  3.3670 -2.2372
13671TIP3    H262429   6.769   2.123   3.933  1.6284 -1.0337  0.3133
13672TIP3   OH262430   5.840   0.341   3.702 -0.0820  0.1428 -0.1620
13672TIP3    H162431   5.847   0.436   3.708  0.8086  0.0632  0.2789
13672TIP3    H262432   5.829   0.323   3.609 -1.8397  0.7476 -0.1191
13673TIP3   OH262433   4.339   1.398   2.616  0.2512  0.2593 -0.1950
13673TIP3    H162434   4.313   1.449   2.694  1.5503  0.7489 -0.0546
13673TIP3    H262435   4.397   1.457   2.568  1.7142 -1.0335 -0.0886
13674TIP3   OH262436   2.258   1.316   5.491  0.0467 -0.9931 -0.1266
13674TIP3    H162437   2.187   1.326   5.555  0.2728 -0.2798  0.0206
13674TIP3    H262438   2.281   1.223   5.495 -0.6378 -1.1598  0.0795
13675TIP3   OH262439   0.586   6.612   3.426 -0.6344 -0.9037 -0.0730
13675TIP3    H162440   0.661   6.584   3.478  1.4623  2.2303 -1.1098
13675TIP3    H262441   0.530   6.659   3.488  1.3778  1.9721 -0.2121
13676TIP3   OH262442   4.701   5.049   3.155  0.3433 -0.0519 -0.0341
13676TIP3    H162443   4.717   4.960   3.188  0.0544 -0.2087 -0.3162
13676TIP3    H262444   4.635   5.084   3.214 -0.6891 -0.5806 -0.8527
13677TIP3   OH262445   4.377   3.877  16.846 -0.1074  0.2322 -0.7307
13677TIP3    H162446   4.321   3.949  16.817 -0.5572 -0.0183 -0.4938
13677TIP3    H262447   4.389   3.823  16.767 -0.4456  0.1277 -0.7130
13678TIP3   OH262448   2.238   6.096  16.137 -0.5445 -0.2582 -0.2264
13678TIP3    H162449   2.208   6.183  16.161  1.2547  0.7138 -1.2354
13678TIP3    H262450   2.292   6.068  16.211 -1.8206 -0.9053  0.4752
13679TIP3   OH262451   4.755   4.991   3.502 -0.6912  0.1515 -0.6572
13679TIP3    H162452   4.718   5.068   3.458 -1.2224 -0.3710 -1.1368
13679TIP3    H262453   4.765   5.018   3.593 -0.5445  0.9067 -0.8920
13680TIP3   OH262454   1.493   4.489   4.449  0.6621  0.4024 -0.6466
13680TIP3    H162455   1.550   4.433   4.397  1.3896  0.1619  0.3876
13680TIP3    H262456   1.430   4.524   4.386  0.9370 -0.6214 -1.5124
13681TIP3   OH262457   0.515   6.465   2.065 -0.1665  0.7255  0.2928
13681TIP3    H162458   0.603   6.472   2.027 -0.7021  1.7845 -0.8389
13681TIP3    H262459   0.466   6.412   2.002 -0.1090 -0.6971  1.4045
13682TIP3   OH262460   5.497   0.409  16.915 -0.1995  0.0204 -0.3306
13682TIP3    H162461   5.444   0.364  16.850 -0.5661  0.4771 -0.3526
13682TIP3    H262462   5.461   0.381  16.999 -0.4755  0.3213 -0.3450
13683TIP3   OH262463   0.070   5.852  15.038  0.1759  0.0347  0.5652
13683TIP3    H162464   0.021   5.931  15.063  1.3650  1.3508 -0.9879
13683TIP3    H262465   0.154   5.860  15.082  0.9012  0.5037 -0.8301
13684TIP3   OH262466   0.462   6.741  12.213 -0.5633 -0.6630  0.6193
13684TIP3    H162467   0.442   6.653  12.245  0.9525 -1.3165 -0.1453
13684TIP3    H262468   0.423   6.744  12.126  1.8132 -1.6610 -0.5526
13685TIP3   OH262469   2.070   5.266   6.199  0.0504 -0.0895  0.2510
13685TIP3    H162470   2.013   5.339   6.222  0.2013  0.2489 -0.4136
13685TIP3    H262471   2.012   5.191   6.190 -0.3870  0.3822 -1.0267
13686TIP3   OH262472   0.753   5.746  11.595  0.4871  0.3953 -1.2396
13686TIP3    H162473   0.753   5.837  11.624 -1.3147 -0.0648  0.4597
13686TIP3    H262474   0.680   5.740  11.534 -1.6090 -0.5074  1.1676
13687TIP3   OH262475   5.377   0.108  14.412  0.8881  0.1797 -0.2715
13687TIP3    H162476   5.375   0.122  14.317  0.3241  2.1432 -0.0104
13687TIP3    H262477   5.301   0.052  14.429  1.1142 -0.3599 -0.9907
13688TIP3   OH262478   0.994   0.155  14.866 -1.0056 -0.1030 -0.1213
13688TIP3    H162479   0.990   0.069  14.907  0.4642  0.1905  0.7060
13688TIP3    H262480   0.973   0.216  14.937  1.2402  0.3893  0.1844
13689TIP3   OH262481   6.282   3.701   5.104 -0.2238  0.2153 -0.7577
13689TIP3    H162482   6.330   3.714   5.022  1.0381  3.0684  0.2932
13689TIP3    H262483   6.253   3.789   5.129  0.0988 -0.4053  2.2008
13690TIP3   OH262484   3.592   2.862  15.849 -0.4058  0.1740  0.0058
13690TIP3    H162485   3.605   2.888  15.941 -1.2937  1.6030 -0.2349
13690TIP3    H262486   3.539   2.933  15.812  0.8393  0.1833 -1.9063
13691TIP3   OH262487   5.207   3.540   0.715  0.6026  0.5253  0.4132
13691TIP3    H162488   5.210   3.471   0.780 -0.9099  0.0991  0.0523
13691TIP3    H262489   5.296   3.577   0.716  0.8605 -0.0587  2.0473
13692TIP3   OH262490   2.288   1.152  17.227 -0.4733  0.1556  0.7003
13692TIP3    H162491   2.321   1.105  17.150 -1.4562  0.9605 -0.2370
13692TIP3    H262492   2.366   1.172  17.278 -0.0294 -2.9588  1.4432
13693TIP3   OH262493   0.221   0.988  16.613  0.1160  0.7356 -0.2356
13693TIP3    H162494   0.239   0.980  16.519  0.7326 -1.8613  0.0358
13693TIP3    H262495   0.285   1.052  16.644 -0.5868  2.2230 -1.6447
13694TIP3   OH262496   1.729   4.304   1.915 -0.6203  0.6439 -0.1805
13694TIP3    H162497   1.723   4.386   1.962 -0.0427 -0.5027  2.0420
13694TIP3    H262498   1.755   4.240   1.982  0.1126 -1.1182 -2.0502
13695TIP3   OH262499   5.263   5.986  14.976  0.1104 -0.0309  0.4400
13695TIP3    H162500   5.253   5.891  14.977 -0.8947  0.0237 -0.7750
13695TIP3    H262501   5.324   6.005  15.047  0.9144 -1.6426  0.2327
13696TIP3   OH262502   6.612   0.584   1.831  0.1168  0.1627 -0.3401
13696TIP3    H162503   6.520   0.582   1.858  0.2577 -0.1154  0.1340
13696TIP3    H262504   6.611   0.553   1.741 -0.4977  2.1687 -1.0709
13697TIP3   OH262505   0.374   6.549   0.821 -0.0697 -0.0378 -0.4260
13697TIP3    H162506   0.280   6.530   0.824  0.1607 -1.2242  2.6150
13697TIP3    H262507   0.410   6.504   0.897  2.7954  1.4523 -0.7661
13698TIP3   OH262508   1.053   1.101  16.700  0.3650  0.1227 -0.1789
13698TIP3    H162509   1.122   1.157  16.665  1.7380 -2.2748 -1.5250
13698TIP3    H262510   1.070   1.098  16.794  1.8510 -0.0940 -0.4388
13699TIP3   OH262511   4.487   6.296  11.782  0.1348 -0.3016 -0.0138
13699TIP3    H162512   4.566   6.259  11.821  1.0759  0.4410 -1.1477
13699TIP3    H262513   4.494   6.275  11.689 -0.7962  0.1491 -0.1977
13700TIP3   OH262514   4.726   6.764   4.219  0.4094  0.7459 -0.0224
13700TIP3    H162515   4.737   6.770   4.124 -1.2283  0.6705 -0.2474
13700TIP3    H262516   4.707   6.671   4.236  1.5580  0.5880  0.5029
13701TIP3   OH262517   5.996   5.775  13.487 -0.2914 -0.0627  0.0635
13701TIP3    H162518   5.917   5.767  13.433 -0.6507 -0.1535  0.5913
13701TIP3    H262519   6.057   5.712  13.450  0.8895  2.4202 -2.6208
13702TIP3   OH262520   3.754   1.423   1.402  0.2563 -0.0992  0.1041
13702TIP3    H162521   3.761   1.336   1.364 -1.8713 -0.1020 -0.3996
13702TIP3    H262522   3.704   1.474   1.338  2.4651  1.8921 -0.1930
13703TIP3   OH262523   4.518   5.117  13.040  0.1452  0.3782  0.0150
13703TIP3    H162524   4.426   5.126  13.063  0.0996  1.2605 -0.4975
13703TIP3    H262525   4.527   5.026  13.011 -0.4989  0.2156  0.3203
13704TIP3   OH262526   1.715   0.949  15.449 -0.1667 -0.2654 -0.0081
13704TIP3    H162527   1.732   0.895  15.526  0.6647  2.3046  1.7457
13704TIP3    H262528   1.784   1.016  15.451 -1.1724  0.9291 -1.9979
13705TIP3   OH262529   4.945   4.754  14.527 -0.6609 -0.0745  0.2711
13705TIP3    H162530   4.947   4.807  14.607  0.1913 -0.7695  0.7389
13705TIP3    H262531   5.009   4.684  14.544  0.7252  0.6425 -1.6229
13706TIP3   OH262532   4.158   1.001  12.245 -0.0843  0.1615  0.0684
13706TIP3    H162533   4.183   1.004  12.338 -1.4530  0.5319  0.4518
13706TIP3    H262534   4.081   1.057  12.239  0.4225  0.7400 -1.4586
13707TIP3   OH262535   3.606   6.436  12.565  0.4249 -0.1079  0.1150
13707TIP3    H162536   3.532   6.435  12.505 -0.7311 -2.0513  1.4590
13707TIP3    H262537   3.622   6.343  12.585  1.1135  0.4350  2.3370
13708TIP3   OH262538   2.863   0.198  15.081  0.6237 -0.1830 -0.3663
13708TIP3    H162539   2.871   0.281  15.128 -1.9865 -0.5024  0.8162
13708TIP3    H262540   2.816   0.140  15.142 -1.0533 -1.2836 -2.5795
13709TIP3   OH262541   5.187   5.248   0.283  0.1380 -0.1575  0.3105
13709TIP3    H162542   5.177   5.276   0.374  0.6111 -0.0776  0.3399
13709TIP3    H262543   5.242   5.315   0.243 -0.1090 -0.1676 -0.0473
13710TIP3   OH262544   1.453   4.320   5.286  0.3076 -0.5829 -0.1786
13710TIP3    H162545   1.498   4.398   5.319  1.5828  0.3309 -3.6528
13710TIP3    H262546   1.371   4.353   5.250 -0.2111 -1.2338  0.3955
13711TIP3   OH262547   6.343   6.646   2.854 -0.4540  0.3369 -0.3146
13711TIP3    H162548   6.260   6.619   2.815 -0.2509 -0.0741 -0.4606
13711TIP3    H262549   6.318   6.709   2.921 -0.9976 -0.8834  0.6583
13712TIP3   OH262550   2.409   0.460   1.541 -0.7848  0.8676  0.4143
13712TIP3    H162551   2.463   0.538   1.528  0.3566  0.2027  0.9698
13712TIP3    H262552   2.433   0.429   1.628 -1.0356 -0.2405  0.1004
13713TIP3   OH262553   0.419   0.169   5.125  0.0402 -0.2508  0.1694
13713TIP3    H162554   0.458   0.118   5.053  2.7284 -0.0208  1.3304
13713TIP3    H262555   0.326   0.148   5.121  0.5920 -2.9975 -1.1914
13714TIP3   OH262556   2.874   6.109  15.908  0.2947  0.1900  0.0120
13714TIP3    H162557   2.940   6.115  15.977  0.6204 -1.0420 -0.1645
13714TIP3    H262558   2.900   6.175  15.844  2.9082 -1.8819 -1.2844
13715TIP3   OH262559   5.794   4.726  16.750 -0.1137 -0.2475 -0.1839
13715TIP3    H162560   5.699   4.727  16.740 -0.1119 -1.2601 -0.4191
13715TIP3    H262561   5.808   4.741  16.843 -0.5951 -1.9349  0.1942
13716TIP3   OH262562   4.330   0.332   5.228 -0.0019  0.0714 -0.2328
13716TIP3    H162563   4.283   0.269   5.174  0.9241  0.0737 -1.0740
13716TIP3    H262564   4.405   0.283   5.261  1.1048  0.8876 -1.4500
13717TIP3   OH262565   1.484   4.896  15.470  0.1795 -0.4295 -0.0561
13717TIP3    H162566   1.398   4.939  15.472 -0.2546 -1.2788  0.4192
13717TIP3    H262567   1.468   4.814  15.423  0.2237 -1.5786  1.8044
13718TIP3   OH262568   6.314   3.854   5.856  0.1120 -0.4206 -0.7253
13718TIP3    H162569   6.224   3.885   5.846  0.0867 -0.4122 -0.4654
13718TIP3    H262570   6.335   3.817   5.770 -0.6291 -1.7227 -0.3784
13719TIP3   OH262571   1.932   2.148  11.703  0.3377  0.4126 -0.9337
13719TIP3    H162572   1.969   2.117  11.786 -1.2950 -0.8351 -0.6104
13719TIP3    H262573   2.004   2.144  11.641  1.1202 -0.5031  0.0007
13720TIP3   OH262574   3.432   2.707   3.381 -0.9048 -0.0806  0.0412
13720TIP3    H162575   3.346   2.686   3.344 -1.2255  1.7207 -0.3027
13720TIP3    H262576   3.493   2.700   3.308 -1.2570  1.6640 -0.4513
13721TIP3   OH262577   6.280   4.738  15.496 -0.5191 -0.8372  0.3113
13721TIP3    H162578   6.195   4.712  15.532 -0.5668 -1.4389 -0.2167
13721TIP3    H262579   6.265   4.824  15.459 -0.3816 -0.0330  2.0131
13722TIP3   OH262580   1.969   2.627   2.740 -0.6690 -1.1018  0.4000
13722TIP3    H162581   2.044   2.588   2.695  1.1497 -0.7989  2.9713
13722TIP3    H262582   1.956   2.711   2.696  1.1518 -0.7285  0.5343
13723TIP3   OH262583   2.636   4.797   3.634  0.0091 -0.3427 -0.0430
13723TIP3    H162584   2.697   4.782   3.563  0.6892 -1.0393  0.6657
13723TIP3    H262585   2.586   4.716   3.640 -1.4270  0.4221 -0.9978
13724TIP3   OH262586   2.189   3.000  16.843 -0.5222 -0.4351  0.2635
13724TIP3    H162587   2.175   3.059  16.917 -0.8331  0.3898 -0.4359
13724TIP3    H262588   2.274   3.026  16.807 -0.2659 -0.9836  0.4626
13725TIP3   OH262589   3.459   3.010  14.577 -0.1085  1.0306 -0.1511
13725TIP3    H162590   3.465   2.922  14.613 -2.7510 -0.6487 -3.2409
13725TIP3    H262591   3.542   3.024  14.532 -0.3015 -0.7240 -1.1372
13726TIP3   OH262592   5.478   5.290   0.761  0.0899  0.4074  0.0965
13726TIP3    H162593   5.537   5.301   0.836 -0.1011 -1.7832  0.6501
13726TIP3    H262594   5.532   5.308   0.684  1.0812 -0.0699  0.6611
13727TIP3   OH262595   1.119   4.209   4.043 -0.0876  0.1917  0.1090
13727TIP3    H162596   1.079   4.191   4.128 -2.3229 -0.8604 -1.0688
13727TIP3    H262597   1.064   4.161   3.981  1.7123  0.6070 -1.9002
13728TIP3   OH262598   5.917   6.704   0.114  0.0167  0.0291 -0.6106
13728TIP3    H162599   5.906   6.609   0.113  1.0455 -0.1080 -0.5241
13728TIP3    H262600   6.004   6.717   0.152 -0.3471  1.0331 -0.1090
13729TIP3   OH262601   4.061   1.531   2.200 -0.3545 -0.1833 -0.4145
13729TIP3    H162602   4.109   1.492   2.128 -0.4667 -0.1410 -0.5132
13729TIP3    H262603   4.128   1.549   2.267  0.2001  2.0598 -1.4690
13730TIP3   OH262604   3.735   0.285  11.746 -0.7083 -0.0966 -0.2323
13730TIP3    H162605   3.802   0.344  11.781  0.4676  1.4026 -4.4176
13730TIP3    H262606   3.777   0.199  11.746  0.1562  0.3130 -0.1838
13731TIP3   OH262607   5.909   0.141   1.370  0.3213 -0.3345 -0.2462
13731TIP3    H162608   5.912   0.226   1.325  1.0465 -0.0655  0.2867
13731TIP3    H262609   6.001   0.116   1.379  0.2768  0.0421  1.8499
13732TIP3   OH262610   6.546   6.249  15.631 -0.2059  0.1720 -0.0095
13732TIP3    H162611   6.455   6.275  15.613  0.2584  2.0936  0.1658
13732TIP3    H262612   6.593   6.332  15.640  1.5694 -0.7849 -0.0330
13733TIP3   OH262613   5.594   1.187   5.156  0.1685  0.2716  0.1078
13733TIP3    H162614   5.611   1.256   5.092  0.2680  0.1175 -0.0326
13733TIP3    H262615   5.579   1.108   5.103 -0.3659  0.2738  0.2519
13734TIP3   OH262616   1.846   6.516  11.849 -0.6170  0.3294 -0.2710
13734TIP3    H162617   1.918   6.572  11.819  3.1878 -2.4611  2.5918
13734TIP3    H262618   1.809   6.562  11.924  2.5847 -0.6946  2.1728
13735TIP3   OH262619   2.124   2.525  13.512  0.0127  0.1125 -0.2511
13735TIP3    H162620   2.133   2.541  13.606 -0.0090 -1.5461  0.0503
13735TIP3    H262621   2.090   2.608  13.477  0.4899  0.9213  1.1056
13736TIP3   OH262622   0.871   1.024  12.570 -0.1779 -0.3509  0.1220
13736TIP3    H162623   0.855   1.080  12.646  1.1601  0.1178  0.0874
13736TIP3    H262624   0.900   0.941  12.606  1.2737  0.1372  0.1474
13737TIP3   OH262625   2.228   6.007   4.757 -0.8948  0.2970  0.3400
13737TIP3    H162626   2.149   6.033   4.711 -0.1862  0.7177 -0.6829
13737TIP3    H262627   2.265   5.937   4.704  0.3298  1.2949 -0.1719
13738TIP3   OH262628   0.057   2.608   3.249 -0.2602  0.2889  0.0387
13738TIP3    H162629   0.108   2.689   3.256 -1.3813  1.1723 -1.4275
13738TIP3    H262630  -0.023   2.625   3.299  0.0641 -0.4284  0.8291
13739TIP3   OH262631   5.779   2.888   3.036 -0.0784 -0.5479 -0.1604
13739TIP3    H162632   5.750   2.976   3.015 -0.6132 -0.7945 -0.4755
13739TIP3    H262633   5.793   2.889   3.131 -0.0082 -0.1085 -0.1722
13740TIP3   OH262634   3.311   5.449   0.348 -0.0901  0.6099 -0.0938
13740TIP3    H162635   3.292   5.423   0.258  1.4111  0.1401 -0.3088
13740TIP3    H262636   3.291   5.542   0.351 -0.0691  0.6538 -0.9465
13741TIP3   OH262637   4.263   6.411   2.923 -0.4364  0.1740 -0.0094
13741TIP3    H162638   4.330   6.358   2.965 -1.6562 -1.3539  0.1063
13741TIP3    H262639   4.240   6.363   2.843 -2.0562  0.1140  0.4425
13742TIP3   OH262640   3.795   5.492  17.321 -0.3948  0.0538  0.2706
13742TIP3    H162641   3.745   5.537  17.389  0.1412  0.1182  0.6286
13742TIP3    H262642   3.746   5.411  17.305 -1.3179  0.7038 -0.3148
13743TIP3   OH262643   2.930   2.625  11.540 -0.3150 -0.4843 -0.0137
13743TIP3    H162644   2.962   2.576  11.465 -0.3727 -0.1973 -0.2266
13743TIP3    H262645   2.912   2.558  11.607  2.4743 -0.5609  0.8052
13744TIP3   OH262646   1.113   2.545  15.008 -0.1445 -0.2910  0.4377
13744TIP3    H162647   1.167   2.598  14.949 -0.3789 -0.7542 -0.1939
13744TIP3    H262648   1.128   2.584  15.095  2.0065 -1.0268  0.4635
13745TIP3   OH262649   1.229   0.278  15.509  0.0109  0.4234  0.2605
13745TIP3    H162650   1.241   0.326  15.591  1.6424  0.6956 -0.1069
13745TIP3    H262651   1.247   0.186  15.531  3.7241  0.8510 -0.3415
13746TIP3   OH262652   3.737   0.126  13.310 -0.0164  0.3387 -0.6844
13746TIP3    H162653   3.695   0.124  13.224 -1.2349 -1.8430 -0.1277
13746TIP3    H262654   3.829   0.104  13.292 -0.2849 -0.2405 -1.4180
13747TIP3   OH262655   5.008   3.050   2.412  0.0923 -0.4870  0.3411
13747TIP3    H162656   5.064   3.024   2.485 -0.9704 -0.1050  1.3215
13747TIP3    H262657   4.956   3.123   2.447 -1.5162 -1.2884 -0.3056
13748TIP3   OH262658   5.189   6.666   3.703 -0.2145 -0.3058 -0.2115
13748TIP3    H162659   5.252   6.639   3.770  0.6490  0.5042 -0.6760
13748TIP3    H262660   5.242   6.686   3.626 -1.0924 -0.1526 -0.7932
13749TIP3   OH262661   5.550   6.087  13.373 -0.8830  0.2894  0.2684
13749TIP3    H162662   5.604   6.042  13.436  0.8328  1.1639 -0.5106
13749TIP3    H262663   5.473   6.116  13.423  0.2721  0.6998  1.8700
13750TIP3   OH262664   0.097   2.835   2.968  0.3983  0.0967  0.7001
13750TIP3    H162665   0.182   2.877   2.955  1.7196 -1.6565  3.0673
13750TIP3    H262666   0.073   2.855   3.058 -1.3015 -0.2319  0.3665
13751TIP3   OH262667   6.301   2.161   1.589  0.3398 -0.1503  0.1081
13751TIP3    H162668   6.309   2.104   1.513 -0.2189 -0.3543  0.1997
13751TIP3    H262669   6.366   2.128   1.651  2.0157  1.0663 -0.9120
13752TIP3   OH262670   5.019   4.015  11.530  0.6863  0.8862  0.6876
13752TIP3    H162671   5.080   4.044  11.598  2.2808  0.3501 -0.4407
13752TIP3    H262672   5.069   4.023  11.449 -0.3200 -0.7693 -0.1533
13753TIP3   OH262673   0.616   0.681   3.069  0.2625  0.1014 -0.3185
13753TIP3    H162674   0.699   0.672   3.115 -0.1687  1.6106  0.8655
13753TIP3    H262675   0.553   0.636   3.125 -0.2148  1.7083  0.5363
13754TIP3   OH262676   2.729   1.012   5.099 -0.0216 -0.1652 -0.1146
13754TIP3    H162677   2.749   1.087   5.042 -0.7555 -0.2277 -0.4668
13754TIP3    H262678   2.651   0.973   5.060 -0.8225  0.0661  1.2090
13755TIP3   OH262679   2.230   2.722  11.836  0.1793  0.1724 -0.0107
13755TIP3    H162680   2.186   2.642  11.806  0.6701  0.0012 -0.2774
13755TIP3    H262681   2.203   2.789  11.773  1.3217 -0.2170 -0.9463
13756TIP3   OH262682   3.788   0.062   0.374  0.0311 -0.3741  0.7556
13756TIP3    H162683   3.703   0.063   0.417 -0.9877 -1.0328 -1.1561
13756TIP3    H262684   3.772   0.099   0.287  1.6882 -0.5994  0.3157
13757TIP3   OH262685   6.406   6.133  10.346 -0.3381  0.4360  0.1209
13757TIP3    H162686   6.350   6.184  10.405 -1.9222 -1.5686  0.4785
13757TIP3    H262687   6.489   6.125  10.391  0.2728  3.2707 -0.2919
13758TIP3   OH262688   2.007   5.906  16.196 -0.1453  0.0906  0.0508
13758TIP3    H162689   1.936   5.964  16.169 -0.9433 -0.1532  1.5330
13758TIP3    H262690   2.071   5.911  16.125  0.0390  3.1525  0.2916
13759TIP3   OH262691   1.953   0.102   6.202 -0.6905 -0.1475 -0.4101
13759TIP3    H162692   1.867   0.128   6.172 -0.8380  0.3778  0.4191
13759TIP3    H262693   1.989   0.048   6.132 -0.7025  1.6223 -1.8355
13760TIP3   OH262694   4.562   0.171  15.116 -0.6396  0.2356 -0.1209
13760TIP3    H162695   4.473   0.180  15.083  0.0704  0.4070 -2.2022
13760TIP3    H262696   4.582   0.078  15.106 -0.6992  0.1345  0.6780
13761TIP3   OH262697   0.788   2.375  11.954 -0.1429  0.3207 -0.1146
13761TIP3    H162698   0.753   2.303  11.902 -0.5993  1.3958 -1.3588
13761TIP3    H262699   0.835   2.429  11.891  0.5939  0.8688  0.8831
13762TIP3   OH262700   4.356   0.867   2.911 -0.2574 -0.4245 -0.3174
13762TIP3    H162701   4.381   0.959   2.912  0.9347 -0.7281  0.5931
13762TIP3    H262702   4.347   0.845   2.818 -1.2189  0.7555 -0.5274
13763TIP3   OH262703   3.206   5.627   2.834 -0.4758 -0.4392 -0.2628
13763TIP3    H162704   3.232   5.575   2.910  0.1479  0.2680  0.0176
13763TIP3    H262705   3.142   5.690   2.868 -0.9534 -0.7684 -0.5306
13764TIP3   OH262706   4.055   3.077  14.864  0.6460 -0.3993 -0.0621
13764TIP3    H162707   4.128   3.084  14.801  0.0481 -0.4566 -0.7740
13764TIP3    H262708   4.060   2.988  14.897  1.1246 -0.2891  0.1785
13765TIP3   OH262709   5.771   6.059  16.203 -0.9780 -0.0006  0.0494
13765TIP3    H162710   5.773   6.028  16.293 -1.2676  1.0356  0.4280
13765TIP3    H262711   5.742   5.983  16.152 -2.5226 -0.1209  1.0467
13766TIP3   OH262712   5.551   2.604   5.812 -0.3778 -0.0486  0.6484
13766TIP3    H162713   5.503   2.620   5.894 -0.6069  2.3706  0.1182
13766TIP3    H262714   5.485   2.616   5.744  0.3483  0.4696  0.0248
13767TIP3   OH262715   2.164   5.602  10.488 -0.4070  0.0563 -0.1036
13767TIP3    H162716   2.097   5.603  10.420  0.6853  1.1048 -1.2074
13767TIP3    H262717   2.161   5.690  10.525 -0.2390 -0.1710  0.4607
13768TIP3   OH262718   6.023   3.509  12.248 -0.0784 -0.7635  0.0647
13768TIP3    H162719   5.945   3.531  12.198 -0.5608 -0.0663  1.0989
13768TIP3    H262720   6.077   3.588  12.244  0.5384 -1.2065 -0.5625
13769TIP3   OH262721   4.938   1.421   3.647 -0.0718 -0.1060  0.2937
13769TIP3    H162722   4.881   1.441   3.722 -0.1276  0.0509  0.2100
13769TIP3    H262723   4.884   1.367   3.590 -0.3235  0.4908 -0.0437
13770TIP3   OH262724   5.890   2.676  15.125  0.1642 -0.4765 -0.0643
13770TIP3    H162725   5.894   2.665  15.220  1.5496  1.0029  0.0920
13770TIP3    H262726   5.882   2.587  15.091 -0.4117 -1.0288  1.4258
13771TIP3   OH262727   4.660   1.383   5.532 -0.5570 -0.3983  0.5630
13771TIP3    H162728   4.692   1.360   5.619 -2.1876 -0.3421  1.2189
13771TIP3    H262729   4.576   1.336   5.525 -0.4431 -0.4143 -0.9869
13772TIP3   OH262730   4.689   0.191   1.669  0.0783  0.0333  0.5774
13772TIP3    H162731   4.739   0.240   1.734  2.7572  1.5587 -2.4084
13772TIP3    H262732   4.715   0.100   1.682  0.5471  0.3039  1.6275
13773TIP3   OH262733   0.537   0.536  16.001 -0.7494 -0.3893 -0.6317
13773TIP3    H162734   0.566   0.459  16.049  0.2522 -0.1743 -0.8706
13773TIP3    H262735   0.483   0.501  15.930 -0.9128 -0.8164 -0.2956
13774TIP3   OH262736   6.263   4.070   3.380 -0.3078  0.2868  0.5414
13774TIP3    H162737   6.206   4.143   3.403 -1.0703  0.6324 -2.1053
13774TIP3    H262738   6.348   4.110   3.361 -0.3669  0.3206  0.3475
13775TIP3   OH262739   2.386   0.846  11.565 -0.3534 -0.3911 -0.0539
13775TIP3    H162740   2.394   0.941  11.566 -1.4115 -0.3045  0.6598
13775TIP3    H262741   2.388   0.820  11.657  3.4460 -1.4183 -0.2270
13776TIP3   OH262742   1.574   1.145   4.483 -0.3406  0.4611  0.3930
13776TIP3    H162743   1.529   1.066   4.451 -1.2876  1.2862 -0.3763
13776TIP3    H262744   1.612   1.118   4.567 -1.6559 -0.4846  0.7252
13777TIP3   OH262745   3.968   3.764   1.477  0.2715  0.3306 -0.2067
13777TIP3    H162746   4.034   3.702   1.507 -0.0622 -0.9425 -1.9764
13777TIP3    H262747   3.925   3.793   1.558  3.2108  1.5688  1.0459
13778TIP3   OH262748   4.728   4.188  15.999  0.3902  0.6920 -0.6238
13778TIP3    H162749   4.690   4.100  15.995  4.0435 -1.2872  2.2022
13778TIP3    H262750   4.751   4.208  15.908  0.2586 -1.6774 -1.2316
13779TIP3   OH262751   2.809   2.947   0.692 -0.1635  0.4004  0.5218
13779TIP3    H162752   2.763   2.867   0.667 -0.5745  0.6317  0.5307
13779TIP3    H262753   2.888   2.917   0.737  1.2733 -0.0759 -2.1402
13780TIP3   OH262754   5.405   1.646  16.705  0.5730  0.4695  0.1778
13780TIP3    H162755   5.395   1.638  16.610  0.9609  0.7273  0.1096
13780TIP3    H262756   5.420   1.556  16.735  0.4365  0.3860 -0.0050
13781TIP3   OH262757   5.939   1.681   1.230  0.4329 -0.3419  0.5032
13781TIP3    H162758   5.945   1.593   1.194 -0.8882 -0.8113  1.3502
13781TIP3    H262759   5.850   1.710   1.209  1.3041  1.3951 -1.0373
13782TIP3   OH262760   1.604   1.262   5.387  0.2938  0.3742  0.7973
13782TIP3    H162761   1.602   1.347   5.430  2.0304  0.8470  0.0276
13782TIP3    H262762   1.579   1.279   5.297  2.6273  0.4923  0.1024
13783TIP3   OH262763   0.779   5.930   3.287  0.3884 -0.3840 -0.0430
13783TIP3    H162764   0.789   5.901   3.196  1.1209  0.6691 -0.3174
13783TIP3    H262765   0.845   5.881   3.335 -0.4948 -1.4969  0.0677
13784TIP3   OH262766   4.119   2.785   1.086 -0.5106  0.2335  0.1164
13784TIP3    H162767   4.149   2.712   1.141  0.0828 -0.0278 -0.5350
13784TIP3    H262768   4.045   2.749   1.038  0.9661 -0.6349 -1.6758
13785TIP3   OH262769   6.139   0.635  17.148 -0.1054  0.3752  0.5119
13785TIP3    H162770   6.088   0.650  17.068 -1.4491 -0.3754  1.1870
13785TIP3    H262771   6.212   0.580  17.119 -1.3495 -1.0935  0.0126
13786TIP3   OH262772   0.487   5.953  13.780 -0.2252  0.3238 -0.4004
13786TIP3    H162773   0.561   5.930  13.724 -0.7639 -0.0348 -0.9837
13786TIP3    H262774   0.429   6.004  13.723 -1.0058 -0.4553 -0.3178
13787TIP3   OH262775   0.057   5.928  13.464 -0.2957  0.5153  0.1216
13787TIP3    H162776   0.067   6.021  13.485  2.0083 -0.1951  2.7623
13787TIP3    H262777   0.133   5.907  13.411  0.4067 -0.2428  1.3621
13788TIP3   OH262778   1.793   1.078   3.665  0.3098  0.6705  0.5537
13788TIP3    H162779   1.762   1.020   3.595 -0.2420 -1.5430  2.5025
13788TIP3    H262780   1.885   1.056   3.675  0.4474  1.1602  0.3913
13789TIP3   OH262781   6.374   1.951  14.086 -0.6387  0.0253  0.1308
13789TIP3    H162782   6.443   1.994  14.138 -0.8574  0.4183  0.0977
13789TIP3    H262783   6.338   1.885  14.145 -0.6914  0.2767  0.3861
13790TIP3   OH262784   1.776   1.685  16.045  0.0761  0.4039  0.0160
13790TIP3    H162785   1.784   1.646  16.132 -1.0185  1.2936  0.5305
13790TIP3    H262786   1.836   1.634  15.991 -0.3577 -1.1481  0.9483
13791TIP3   OH262787   0.879   5.420   1.434  0.6583  0.4043 -0.2165
13791TIP3    H162788   0.860   5.386   1.521  0.5937 -0.5816 -0.5946
13791TIP3    H262789   0.845   5.509   1.434  1.4496  0.7206  1.0415
13792TIP3   OH262790   0.870   0.907   4.584  0.6883 -0.1483 -0.1796
13792TIP3    H162791   0.832   0.901   4.496 -0.1129  0.4148  0.1194
13792TIP3    H262792   0.924   0.986   4.581  1.4080 -0.6400 -0.4352
13793TIP3   OH262793   4.884   4.170   1.317  0.2972  0.1455  0.0718
13793TIP3    H162794   4.830   4.250   1.320 -1.6343 -1.1123  1.8083
13793TIP3    H262795   4.973   4.201   1.330 -0.3724  2.0417  0.5290
13794TIP3   OH262796   1.642   5.772  16.428  0.0702  0.1607 -0.0832
13794TIP3    H162797   1.643   5.834  16.500  1.0698 -0.8084  0.7709
13794TIP3    H262798   1.627   5.826  16.350 -1.1469  1.2051  0.8325
13795TIP3   OH262799   5.907   5.225   5.849 -0.4900 -0.2097 -0.4228
13795TIP3    H162800   5.982   5.266   5.891 -1.7351 -0.4610  2.2702
13795TIP3    H262801   5.902   5.138   5.889 -1.1917 -0.8670 -1.8663
13796TIP3   OH262802   5.304   5.582   2.642  0.1629 -0.2903  0.3888
13796TIP3    H162803   5.259   5.650   2.692  0.6704 -0.3440  0.9453
13796TIP3    H262804   5.316   5.511   2.705  1.4341 -0.0885  0.4085
13797TIP3   OH262805   1.253   0.428   4.867 -0.0852  0.5048  0.0179
13797TIP3    H162806   1.296   0.460   4.787 -0.6521  0.6460 -0.2378
13797TIP3    H262807   1.229   0.338   4.847  1.4234 -0.0713  0.7041
13798TIP3   OH262808   1.502   4.694   2.398 -0.0508  0.0389 -0.4159
13798TIP3    H162809   1.437   4.624   2.408  0.5798 -0.4847  0.1360
13798TIP3    H262810   1.584   4.656   2.430 -0.0556  1.6133  1.7224
13799TIP3   OH262811   2.439   1.197   4.728 -0.1171  0.4463 -0.2183
13799TIP3    H162812   2.414   1.105   4.718 -0.0852  0.4143  0.0021
13799TIP3    H262813   2.533   1.198   4.710  0.0060  0.3354  0.3931
13800TIP3   OH262814   0.895   4.168  10.536 -0.1172 -0.1827  0.2047
13800TIP3    H162815   0.855   4.093  10.492  0.0111 -1.0474  1.4864
13800TIP3    H262816   0.822   4.211  10.580 -0.1740  0.3862 -0.4416
13801TIP3   OH262817   4.398   4.041  15.914 -0.3550  0.2171  0.8076
13801TIP3    H162818   4.453   3.974  15.956  1.1537  0.0920 -1.1760
13801TIP3    H262819   4.376   4.002  15.829 -0.6962  1.6461  0.2251
13802TIP3   OH262820   6.340   1.188   2.093  0.1866  0.2788 -0.2813
13802TIP3    H162821   6.364   1.266   2.044  0.0977  1.3540  1.3142
13802TIP3    H262822   6.356   1.211   2.184  1.2918 -1.9676  0.1687
13803TIP3   OH262823   4.479   1.817   5.340  0.1544 -0.1079 -0.5453
13803TIP3    H162824   4.562   1.777   5.313  0.3915  0.6989 -1.0619
13803TIP3    H262825   4.412   1.757   5.308  0.5196 -0.3947 -0.7795
13804TIP3   OH262826   3.022   6.105  12.488 -0.4595 -0.4561  0.4386
13804TIP3    H162827   2.967   6.096  12.566  0.0458 -0.5624  0.7913
13804TIP3    H262828   3.096   6.047  12.505  0.8272  1.2682  0.9301
13805TIP3   OH262829   5.442   5.350   1.875 -0.4062 -0.0460 -0.3497
13805TIP3    H162830   5.368   5.301   1.911  0.8052 -0.4011  1.7876
13805TIP3    H262831   5.402   5.424   1.830 -2.0521  0.6553  2.0768
13806TIP3   OH262832   6.341   4.716  16.875  0.0596 -0.0566 -0.2120
13806TIP3    H162833   6.348   4.660  16.798  0.1329 -0.6711  0.2345
13806TIP3    H262834   6.312   4.657  16.945  1.8157  0.0923  0.6854
13807TIP3   OH262835   0.300   0.710  17.070  0.6016  0.0166  0.2027
13807TIP3    H162836   0.338   0.715  16.983  0.1289 -0.0004 -0.0077
13807TIP3    H262837   0.373   0.686  17.127  1.0667  0.7066 -0.0794
13808TIP3   OH262838   6.097   0.303  12.968 -0.0191  0.1535  0.6513
13808TIP3    H162839   6.125   0.389  12.939  0.3812  0.5306  2.0565
13808TIP3    H262840   6.018   0.284  12.917  0.9374  0.4968 -1.0310
13809TIP3   OH262841   3.634   4.924   0.908  0.5481 -0.2403  0.3570
13809TIP3    H162842   3.718   4.968   0.896  0.3512 -0.4332 -2.4692
13809TIP3    H262843   3.651   4.832   0.889 -0.4296 -0.1280 -1.3064
13810TIP3   OH262844   3.176   3.752   3.545 -0.2699  0.1806 -0.3190
13810TIP3    H162845   3.135   3.757   3.458  0.7298  0.3328 -0.7935
13810TIP3    H262846   3.232   3.829   3.549 -1.4886  1.0454  1.1086
13811TIP3   OH262847   3.484   0.550  17.063  0.2535  0.3779 -0.4080
13811TIP3    H162848   3.551   0.615  17.044  0.1215  0.1487 -1.8065
13811TIP3    H262849   3.530   0.466  17.062  0.3014  0.3814  0.6985
13812TIP3   OH262850   3.467   6.744  13.116  0.4148 -0.5148 -0.3886
13812TIP3    H162851   3.459   6.794  13.198  0.1633 -1.6321  0.2814
13812TIP3    H262852   3.419   6.796  13.052 -2.4758 -1.3453  0.9576
13813TIP3   OH262853   2.773   2.591  12.957  0.0301 -0.3150 -0.0303
13813TIP3    H162854   2.732   2.610  12.872  0.2485 -1.9972 -0.5510
13813TIP3    H262855   2.824   2.670  12.977  1.0377 -0.3822 -2.1164
13814TIP3   OH262856   0.919   5.702   4.730  0.5910  0.0499  0.0794
13814TIP3    H162857   0.937   5.642   4.803  0.0714 -0.0143  0.1552
13814TIP3    H262858   0.845   5.755   4.760  1.7153  1.4980  0.4703
13815TIP3   OH262859   5.442   0.320  11.180  0.2530  0.0882 -0.4776
13815TIP3    H162860   5.432   0.229  11.208  0.1477  0.5514  1.0588
13815TIP3    H262861   5.487   0.314  11.096  0.0153 -1.3920 -0.5257
13816TIP3   OH262862   5.343   3.398   2.970 -0.4660 -0.1878 -0.1259
13816TIP3    H162863   5.411   3.464   2.956 -0.7537 -0.1966 -1.8729
13816TIP3    H262864   5.369   3.324   2.915 -1.0803 -0.8176  0.4030
13817TIP3   OH262865   2.765   4.841  15.041 -0.6334 -0.4590  0.0388
13817TIP3    H162866   2.743   4.775  15.107 -1.4904  0.8696  1.1482
13817TIP3    H262867   2.848   4.878  15.072  0.3575 -1.6272 -1.1064
13818TIP3   OH262868   0.369   5.304   4.205  0.4438 -0.2380  0.5171
13818TIP3    H162869   0.463   5.302   4.189  0.5357 -2.3989  1.0659
13818TIP3    H262870   0.358   5.258   4.289 -0.8181  2.9534  2.2881
13819TIP3   OH262871   2.979   3.477   5.552 -0.9532 -0.5220  0.1798
13819TIP3    H162872   2.939   3.540   5.492  0.0444  1.5941  1.6071
13819TIP3    H262873   3.059   3.450   5.508 -0.5571  0.5139  0.2301
13820TIP3   OH262874   1.208   6.748  14.565 -0.2808  0.1820  0.0307
13820TIP3    H162875   1.265   6.707  14.500  1.0968  2.5228 -0.3790
13820TIP3    H262876   1.120   6.733  14.533  0.2695 -0.7533 -1.1206
13821TIP3   OH262877   0.467   2.355   4.528 -0.1780  0.1166 -0.6242
13821TIP3    H162878   0.517   2.422   4.574 -0.1318  0.8132 -1.6396
13821TIP3    H262879   0.404   2.323   4.592 -0.6625  1.6246 -0.3017
13822TIP3   OH262880   6.652   5.600  16.677  0.2328  0.0710 -0.1760
13822TIP3    H162881   6.560   5.619  16.658 -0.8533 -1.8019  2.5222
13822TIP3    H262882   6.659   5.609  16.772  3.2179  1.3808 -0.3911
13823TIP3   OH262883   1.434   4.046   1.738  0.7653  0.3465  0.3816
13823TIP3    H162884   1.374   4.076   1.806  0.5390 -0.3828  0.5136
13823TIP3    H262885   1.429   3.951   1.743 -1.1031  0.2101 -2.2487
13824TIP3   OH262886   5.901   6.028  11.940 -0.2373  0.5956  0.1409
13824TIP3    H162887   5.895   5.939  11.974 -0.1572  0.5820  0.1197
13824TIP3    H262888   5.837   6.032  11.870 -0.8251  0.7989  0.6766
13825TIP3   OH262889   4.575   5.205   3.380  0.4971  0.5082  0.5373
13825TIP3    H162890   4.543   5.199   3.470  1.1884  1.4255  0.8472
13825TIP3    H262891   4.589   5.298   3.365 -1.7837  0.6629 -1.3020
13826TIP3   OH262892   1.919   5.341  15.860 -0.0196  0.3926  0.4766
13826TIP3    H162893   1.864   5.285  15.806 -1.0295  1.0961  0.7637
13826TIP3    H262894   2.009   5.320  15.832 -0.3629 -1.3508  0.5851
13827TIP3   OH262895   1.147   0.498  11.324 -0.0386  0.2840  0.2096
13827TIP3    H162896   1.065   0.502  11.373 -0.2721 -0.5034 -0.0930
13827TIP3    H262897   1.215   0.516  11.388 -0.3500 -0.5269  0.7726
13828TIP3   OH262898   1.544   2.184  14.333 -0.2383  0.0712 -0.1753
13828TIP3    H162899   1.486   2.249  14.371 -1.4534 -0.5881 -0.8623
13828TIP3    H262900   1.515   2.175  14.243  1.4862  0.3405 -0.8062
13829TIP3   OH262901   3.596   1.729  15.743  0.5132  0.2517  0.2808
13829TIP3    H162902   3.593   1.825  15.746  1.2226  0.2617  1.0949
13829TIP3    H262903   3.682   1.709  15.706  0.0503 -0.0809 -0.6487
13830TIP3   OH262904   2.658   6.750  11.584  0.1910 -0.3128  0.4141
13830TIP3    H162905   2.659   6.845  11.596  2.3848 -0.3257  0.8992
13830TIP3    H262906   2.695   6.737  11.496  3.0083 -0.7076  1.5281
13831TIP3   OH262907   6.137   1.098  12.409  0.2072  0.5083 -0.2071
13831TIP3    H162908   6.213   1.065  12.362  1.3170  0.2971  1.6201
13831TIP3    H262909   6.084   1.020  12.426  0.0606  0.5091 -0.6649
13832TIP3   OH262910   5.958   0.345  12.378 -0.0392  0.0054 -0.1644
13832TIP3    H162911   5.962   0.324  12.285  0.8245  0.0582 -0.1440
13832TIP3    H262912   6.031   0.405  12.393  1.3315 -1.8223  0.9915
13833TIP3   OH262913   2.908   5.664   5.288 -0.0141 -0.5719 -0.4878
13833TIP3    H162914   2.966   5.720   5.339 -1.4649  0.4934  0.0391
13833TIP3    H262915   2.965   5.594   5.256  1.6874  0.7899 -0.5581
13834TIP3   OH262916   4.410   0.318  11.842  0.1374  0.0376  0.4170
13834TIP3    H162917   4.415   0.376  11.766  0.3887 -0.4846  0.0281
13834TIP3    H262918   4.389   0.232  11.806 -0.7786 -0.0118  1.0360
13835TIP3   OH262919   0.020   1.119   4.550  0.1147 -0.1196  0.3337
13835TIP3    H162920  -0.060   1.071   4.531  0.4520  0.1836 -2.2657
13835TIP3    H262921  -0.008   1.210   4.561  0.1082  0.1013 -1.2484
13836TIP3   OH262922   6.376   0.104  13.117 -0.3694 -0.0926  0.9799
13836TIP3    H162923   6.302   0.078  13.063 -0.6066 -1.4645  1.9276
13836TIP3    H262924   6.452   0.095  13.059 -0.6473 -1.2978  0.7752
13837TIP3   OH262925   0.934   6.304   1.215  0.3307  0.1554  0.2189
13837TIP3    H162926   0.900   6.243   1.280  1.0090 -1.0425 -0.5269
13837TIP3    H262927   0.931   6.389   1.258  0.6333 -0.5959  1.7597
13838TIP3   OH262928   5.042   6.652  12.570  0.0085 -0.3747  0.2837
13838TIP3    H162929   5.096   6.727  12.596  1.2798 -1.6662  1.5771
13838TIP3    H262930   4.959   6.691  12.543  1.5364  1.7209 -1.8070
13839TIP3   OH262931   1.052   6.621   1.675  0.2254 -0.1375 -0.2814
13839TIP3    H162932   1.063   6.593   1.584 -1.4857  1.2226 -0.9561
13839TIP3    H262933   0.958   6.629   1.687  0.4468  0.3911  1.4128
13840TIP3   OH262934   3.105   4.841   1.692 -0.0538 -0.1399 -0.2790
13840TIP3    H162935   3.058   4.768   1.650 -0.6324  1.5414 -2.7594
13840TIP3    H262936   3.196   4.828   1.665 -0.2323  0.2830 -1.1143
13841TIP3   OH262937   2.473   3.410  17.054 -0.1888  0.2238 -0.1531
13841TIP3    H162938   2.553   3.455  17.028 -1.3013  1.6726 -1.2155
13841TIP3    H262939   2.417   3.479  17.090 -1.2255 -0.6300 -0.0640
13842TIP3   OH262940   1.523   2.713   5.936  0.1104 -0.4579 -0.0982
13842TIP3    H162941   1.497   2.772   6.006 -0.3611 -0.0052 -0.6487
13842TIP3    H262942   1.509   2.625   5.972 -0.3218 -0.2292  0.3037
13843TIP3   OH262943   3.791   4.388   4.240  0.1469 -0.2091 -0.8554
13843TIP3    H162944   3.706   4.345   4.247  0.8848 -1.7767 -1.0879
13843TIP3    H262945   3.783   4.466   4.293 -1.1497 -0.8190 -0.1163
13844TIP3   OH262946   6.123   3.865   0.730  0.2996 -0.2609  0.0615
13844TIP3    H162947   6.035   3.900   0.745 -0.1524 -0.9508 -0.8221
13844TIP3    H262948   6.110   3.801   0.660  0.9440 -2.6960  2.0252
13845TIP3   OH262949   4.121   5.185   1.643 -0.4423 -0.2482  0.6504
13845TIP3    H162950   4.151   5.238   1.569 -0.2049 -1.1242  0.1096
13845TIP3    H262951   4.126   5.095   1.612 -0.2746 -0.6362  1.7583
13846TIP3   OH262952   0.334   3.353  14.609  0.3924  0.3508  0.9864
13846TIP3    H162953   0.328   3.326  14.518  1.0731 -0.4144  1.1562
13846TIP3    H262954   0.251   3.325  14.648  0.3494  0.1343  0.7404
13847TIP3   OH262955   1.715   1.936  15.037  0.3859 -0.3586  0.0134
13847TIP3    H162956   1.714   2.015  15.090  0.7774 -0.6570  0.4752
13847TIP3    H262957   1.763   1.872  15.090  0.5410 -0.7429 -0.5790
13848TIP3   OH262958   4.719   4.531  17.136  0.1779 -0.2698 -0.2113
13848TIP3    H162959   4.687   4.452  17.094 -1.0348 -0.3667  0.8426
13848TIP3    H262960   4.669   4.602  17.095 -1.0607 -0.3703  1.0516
13849TIP3   OH262961   0.842   4.129  12.866  0.2216 -0.0206 -0.0075
13849TIP3    H162962   0.935   4.134  12.844 -0.0849  1.2855 -1.2117
13849TIP3    H262963   0.804   4.207  12.825 -1.2113  0.1202  1.4839
13850TIP3   OH262964   5.164   0.040   6.713  0.0767 -0.4682  0.3161
13850TIP3    H162965   5.219   0.050   6.790 -0.4850 -0.7419  0.7630
13850TIP3    H262966   5.214  -0.019   6.656  1.6703  1.7333 -0.6893
13851TIP3   OH262967   4.121   3.185   4.698  0.0979  0.0859 -0.1274
13851TIP3    H162968   4.182   3.256   4.681  0.5812 -0.1656  0.5317
13851TIP3    H262969   4.169   3.124   4.755 -0.2653 -0.8255 -0.7612
13852TIP3   OH262970   2.290   6.216   3.995  0.3249  0.2934 -0.3145
13852TIP3    H162971   2.212   6.210   3.940  0.5869  0.2408 -0.6932
13852TIP3    H262972   2.362   6.224   3.932  1.0244 -3.1350 -0.1673
13853TIP3   OH262973   0.184   1.216  15.335  0.1422 -0.0284  0.2878
13853TIP3    H162974   0.222   1.303  15.319  0.0753 -0.5371 -3.4964
13853TIP3    H262975   0.248   1.172  15.392  1.9592  1.3195 -0.6250
13854TIP3   OH262976   3.888   0.804   1.521 -0.6538  0.1234 -0.4259
13854TIP3    H162977   3.838   0.883   1.503  1.0540  0.8001 -2.5840
13854TIP3    H262978   3.860   0.742   1.453  0.1736 -0.0778 -0.5948
13855TIP3   OH262979   2.153   5.824  15.320 -0.1850  0.5915 -0.0120
13855TIP3    H162980   2.074   5.843  15.371  0.3628  0.6764  0.8318
13855TIP3    H262981   2.213   5.784  15.384  1.3420  2.7173 -0.0416
13856TIP3   OH262982   6.311   3.765  15.409  0.0996  0.5896  0.7392
13856TIP3    H162983   6.277   3.758  15.499  1.3964  0.6670  1.2489
13856TIP3    H262984   6.296   3.678  15.372 -1.5759  0.8968  0.5880
13857TIP3   OH262985   6.196   3.936  16.382 -0.1391 -0.1642 -0.0621
13857TIP3    H162986   6.102   3.923  16.387  0.0165 -0.9115  2.1696
13857TIP3    H262987   6.229   3.853  16.347 -0.3127  0.2444 -1.2303
13858TIP3   OH262988   4.551   0.208  10.490  0.1509 -0.1694 -0.3035
13858TIP3    H162989   4.634   0.253  10.501 -0.3541  0.4484  1.2659
13858TIP3    H262990   4.527   0.180  10.578 -1.0204 -0.8506 -0.8173
13859TIP3   OH262991   6.690   0.518  13.652 -0.3696 -0.0406  0.3591
13859TIP3    H162992   6.702   0.434  13.607  0.2985 -0.2449  0.8907
13859TIP3    H262993   6.769   0.526  13.707  0.2071  1.5472 -0.6532
13860TIP3   OH262994   4.927   2.393   1.073 -0.8694  0.5189 -0.1730
13860TIP3    H162995   4.907   2.300   1.081  1.6590 -0.0605  0.5430
13860TIP3    H262996   4.905   2.430   1.159 -2.1090  0.6666 -0.5374
13861TIP3   OH262997   5.224   1.857  11.676  0.3354  0.2927  0.3283
13861TIP3    H162998   5.204   1.804  11.753  1.9610  0.1894  0.7243
13861TIP3    H262999   5.320   1.855  11.671  0.3431  1.8538 -0.5996
13862TIP3   OH263000   6.566   5.501   1.047 -0.0640 -0.2688  0.3064
13862TIP3    H163001   6.510   5.429   1.018 -1.0751  1.0095 -1.0778
13862TIP3    H263002   6.563   5.496   1.142  0.2714 -2.3111  0.2638
13863TIP3   OH263003   4.771   6.503   4.566  0.0675  0.0940  0.2172
13863TIP3    H163004   4.726   6.583   4.592 -1.5031 -0.6640 -0.0715
13863TIP3    H263005   4.836   6.532   4.502 -1.1021  1.0257 -0.5805
13864TIP3   OH263006   1.858   3.523   2.343  0.3228 -0.2985 -0.0309
13864TIP3    H163007   1.874   3.615   2.366 -0.3489  0.2717 -1.6818
13864TIP3    H263008   1.902   3.473   2.412 -0.2843  1.2506  1.5637
13865TIP3   OH263009   1.474   0.416   2.730 -0.1624 -0.2609  0.4956
13865TIP3    H163010   1.551   0.358   2.730 -0.1907 -0.3235  1.3826
13865TIP3    H263011   1.489   0.475   2.656  0.4780 -0.6134  0.3293
13866TIP3   OH263012   2.419   6.366  15.609 -0.1566  0.1904 -0.4331
13866TIP3    H163013   2.424   6.390  15.701  2.2898  0.4529 -0.5665
13866TIP3    H263014   2.477   6.290  15.600 -0.5368  0.0220 -1.7207
13867TIP3   OH263015   3.781   1.731  16.426  0.2454 -0.0793 -0.3119
13867TIP3    H163016   3.854   1.787  16.404 -1.3851  1.2614 -2.7622
13867TIP3    H263017   3.796   1.650  16.377  1.1184 -0.7242  0.9409
13868TIP3   OH263018   5.576   3.617   2.373  0.1928 -0.3829  0.6225
13868TIP3    H163019   5.624   3.534   2.376 -0.2971 -0.6590  1.0621
13868TIP3    H263020   5.618   3.671   2.441  0.2630 -0.4103  0.6013
13869TIP3   OH263021   5.102   1.626  15.689 -0.4486  0.2964  0.1811
13869TIP3    H163022   5.034   1.670  15.639  0.2686 -0.2650 -1.3433
13869TIP3    H263023   5.180   1.681  15.677 -0.1596 -0.0746  0.3273
13870TIP3   OH263024   2.217   3.784   1.623 -0.1439  0.0961  0.4235
13870TIP3    H163025   2.123   3.786   1.605 -0.4285  1.8043  1.7640
13870TIP3    H263026   2.257   3.762   1.539 -1.6451  1.5261 -0.7422
13871TIP3   OH263027   3.932   6.299   5.418  0.7095  0.1008 -0.2911
13871TIP3    H163028   4.000   6.359   5.449  0.5230  0.8704 -1.2974
13871TIP3    H263029   3.896   6.260   5.498  1.2276  0.9110  0.3589
13872TIP3   OH263030   4.881   1.604   2.486 -0.5795  0.2607  0.0110
13872TIP3    H163031   4.851   1.556   2.563 -0.6143  1.6838  0.9140
13872TIP3    H263032   4.820   1.579   2.417 -0.0701 -1.6667  0.1966
13873TIP3   OH263033   2.526   0.937  13.314 -0.2146  0.4797 -0.1867
13873TIP3    H163034   2.504   0.963  13.225  0.5259  1.2444 -0.1571
13873TIP3    H263035   2.586   1.005  13.345  0.4243 -0.3774  0.4966
13874TIP3   OH263036   3.647   3.350  14.612  0.0010  0.3318  0.2486
13874TIP3    H163037   3.719   3.396  14.569 -0.8622  2.2226  0.6995
13874TIP3    H263038   3.587   3.326  14.541  0.1143  0.5754  0.0704
13875TIP3   OH263039   4.261   2.502   2.673  0.0949 -0.0016  0.1142
13875TIP3    H163040   4.331   2.457   2.625 -0.9504 -2.3161  0.6335
13875TIP3    H263041   4.197   2.525   2.605  0.5669  0.5955 -0.1365
13876TIP3   OH263042   3.269   1.201  14.583  0.2944  0.1024  0.1111
13876TIP3    H163043   3.267   1.146  14.662 -0.7263  1.2842  0.9423
13876TIP3    H263044   3.361   1.201  14.556  0.2651 -2.4125 -0.2377
13877TIP3   OH263045   2.003   0.982   0.880 -0.5785  0.1273 -0.7887
13877TIP3    H163046   2.015   0.939   0.965 -0.0567  0.6241 -0.6010
13877TIP3    H263047   1.911   0.969   0.859 -0.7633  0.1794 -0.0440
13878TIP3   OH263048   6.266   3.617  13.693 -0.0383  0.0764  0.2655
13878TIP3    H163049   6.171   3.601  13.698 -0.1395  0.6663  0.3407
13878TIP3    H263050   6.279   3.698  13.743  0.5295 -0.0829  0.3817
13879TIP3   OH263051   1.629   0.816   2.659  0.0655  0.3671 -0.2363
13879TIP3    H163052   1.615   0.735   2.610 -1.1306  0.1154  0.4776
13879TIP3    H263053   1.720   0.811   2.690  0.5696  0.1501 -1.6987
13880TIP3   OH263054   6.337   2.141   4.301 -0.3175 -0.6243 -0.1742
13880TIP3    H163055   6.406   2.088   4.342 -0.0626 -0.3637 -0.2667
13880TIP3    H263056   6.355   2.230   4.330  0.7631 -0.1848 -2.0381
13881TIP3   OH263057   1.307   3.410  11.648  0.0661  0.3123 -0.8817
13881TIP3    H163058   1.282   3.465  11.574  1.5727 -1.9841 -3.3177
13881TIP3    H263059   1.306   3.321  11.612  1.1723 -0.9000  1.8162
13882TIP3   OH263060   2.410   4.205  13.029 -0.2229 -0.6579  0.3806
13882TIP3    H163061   2.481   4.258  13.065 -0.9541  2.9251 -2.7969
13882TIP3    H263062   2.452   4.125  12.999  2.3137  0.8297 -0.3155
13883TIP3   OH263063   2.195   1.274  13.607 -0.1614 -0.3073  0.4123
13883TIP3    H163064   2.186   1.181  13.588 -1.2017 -0.2901  0.7482
13883TIP3    H263065   2.241   1.278  13.691 -0.1409 -0.5201  0.4099
13884TIP3   OH263066   6.067   2.811  15.836 -0.3237 -0.2455  0.0421
13884TIP3    H163067   5.980   2.774  15.821 -0.3899  0.0411 -0.3031
13884TIP3    H263068   6.122   2.737  15.859  0.0141 -0.8874 -2.5506
13885TIP3   OH263069   4.837   2.322   1.712  0.5239  0.3128  0.1074
13885TIP3    H163070   4.861   2.403   1.667 -0.3387  0.4408 -0.1419
13885TIP3    H263071   4.920   2.284   1.738  1.0592  0.3037 -1.4872
13886TIP3   OH263072   0.547   1.662   3.818 -0.2076 -0.2482  0.4096
13886TIP3    H163073   0.484   1.662   3.890 -0.9803  0.2336 -0.2514
13886TIP3    H263074   0.504   1.615   3.748  0.0766  0.2823 -0.1316
13887TIP3   OH263075   4.849   2.904   6.164  0.0321  0.5825  0.4224
13887TIP3    H163076   4.796   2.982   6.178  0.3704  1.5200 -2.7392
13887TIP3    H263077   4.928   2.936   6.121  0.2911 -1.4515 -0.7581
13888TIP3   OH263078   5.233   0.729   2.811 -0.6375 -0.4854 -0.3174
13888TIP3    H163079   5.270   0.705   2.726 -0.8369 -0.4961 -0.4023
13888TIP3    H263080   5.147   0.766   2.790 -0.7101 -0.5386 -0.1175
13889TIP3   OH263081   5.210   2.659   2.677  0.1563 -0.2275  0.2104
13889TIP3    H163082   5.295   2.649   2.635  0.5064 -3.2993  1.3854
13889TIP3    H263083   5.148   2.668   2.605  1.2696 -0.0173 -0.7395
13890TIP3   OH263084   0.381   6.746  13.390 -0.6481  0.1672 -0.9077
13890TIP3    H163085   0.440   6.768  13.318 -0.7975 -1.1015 -1.4466
13890TIP3    H263086   0.336   6.666  13.361  0.7800 -1.6138  1.4035
13891TIP3   OH263087   2.418   4.427  16.593 -0.2197 -0.3185 -0.3613
13891TIP3    H163088   2.388   4.364  16.527 -1.3275 -0.0741 -0.1171
13891TIP3    H263089   2.361   4.412  16.669 -0.5604  0.9980 -0.3189
13892TIP3   OH263090   6.511   5.017  12.852  0.0663 -0.3327 -0.2559
13892TIP3    H163091   6.446   5.051  12.791  2.1527  0.5809 -2.1163
13892TIP3    H263092   6.577   4.975  12.797  0.5833 -2.1736  1.6154
13893TIP3   OH263093   5.264   1.298   1.545 -0.2258  0.0578 -0.5501
13893TIP3    H163094   5.304   1.242   1.479 -0.4755  0.1405 -0.7745
13893TIP3    H263095   5.330   1.366   1.562  0.1546 -0.4128 -0.1344
13894TIP3   OH263096   6.572   4.103   4.081 -0.0348 -0.2178 -0.0487
13894TIP3    H163097   6.655   4.147   4.101 -0.3735  0.6695 -0.5262
13894TIP3    H263098   6.591   4.010   4.090  1.3786 -0.0938 -1.4531
13895TIP3   OH263099   2.890   0.512   5.854 -0.2180  0.1692  0.6358
13895TIP3    H163100   2.929   0.472   5.932  1.0513  2.8355  1.4902
13895TIP3    H263101   2.870   0.602   5.880 -1.9942  0.4767 -1.4500
13896TIP3   OH263102   1.765   2.196  15.923 -0.2390 -0.0387  0.1557
13896TIP3    H163103   1.782   2.107  15.891 -0.6897 -0.4813  1.0979
13896TIP3    H263104   1.763   2.187  16.019 -2.0270  0.6633  0.2232
13897TIP3   OH263105   0.925   0.302   3.676  0.6321 -0.0461 -0.0678
13897TIP3    H163106   0.931   0.207   3.680  1.7683  0.0111 -0.2052
13897TIP3    H263107   0.969   0.326   3.594 -0.4236  0.5481 -0.4917
13898TIP3   OH263108   1.219   6.398   3.788  0.3438 -0.1089 -0.4971
13898TIP3    H163109   1.152   6.437   3.844  0.1493 -0.1080 -0.7269
13898TIP3    H263110   1.192   6.422   3.699  1.2567  0.8389 -0.5345
13899TIP3   OH263111   5.258   3.901   1.802  0.2518  0.2986 -0.1783
13899TIP3    H163112   5.348   3.893   1.834 -0.1688  0.0730  1.0102
13899TIP3    H263113   5.214   3.952   1.870 -1.1934 -1.9564  0.6702
13900TIP3   OH263114   5.782   5.997   4.035 -0.4096  0.0115  0.5189
13900TIP3    H163115   5.731   6.032   3.963  1.0831  1.6566  0.2144
13900TIP3    H263116   5.864   5.967   3.995 -0.7426 -1.8787  1.1131
13901TIP3   OH263117   3.539   1.512   5.868  0.0770 -0.2627  0.8689
13901TIP3    H163118   3.594   1.580   5.906  1.2934 -0.7314  0.0225
13901TIP3    H263119   3.598   1.463   5.810 -1.2895 -0.6412 -0.2649
13902TIP3   OH263120   2.612   0.709   1.057 -0.0960 -0.2578  0.1254
13902TIP3    H163121   2.619   0.803   1.043 -1.7979 -0.0494  0.5427
13902TIP3    H263122   2.567   0.700   1.140  1.1326 -1.4677  0.7035
13903TIP3   OH263123   4.149   2.133  16.893  0.5157  0.3660 -0.1052
13903TIP3    H163124   4.129   2.110  16.802  2.3219 -0.3580 -0.3750
13903TIP3    H263125   4.245   2.130  16.898  0.4682  0.5352  1.7903
13904TIP3   OH263126   3.123   5.504   2.579 -0.0206 -0.0550  0.2429
13904TIP3    H163127   3.162   5.517   2.665  1.9411  2.2936 -0.8768
13904TIP3    H263128   3.122   5.591   2.539 -1.9800 -0.8588 -1.6816
13905TIP3   OH263129   6.002   3.104   0.848 -0.1105  0.1683 -0.0967
13905TIP3    H163130   6.085   3.148   0.868  0.0218  0.2122 -0.7175
13905TIP3    H263131   5.998   3.102   0.753 -0.0316 -1.3151 -0.1014
13906TIP3   OH263132   2.848   4.728   1.112  0.0912 -0.2104  0.0785
13906TIP3    H163133   2.782   4.675   1.157  1.2640  0.3178  2.5756
13906TIP3    H263134   2.821   4.818   1.128  0.1302  0.0052 -0.9892
13907TIP3   OH263135   4.052   0.267   0.327  0.2494  0.2944  0.8861
13907TIP3    H163136   4.060   0.172   0.317  1.0873  0.1970  2.2328
13907TIP3    H263137   4.019   0.297   0.242 -0.1557 -1.2069  0.4786
13908TIP3   OH263138   2.611   3.687   0.168  1.0569 -0.0697 -0.0271
13908TIP3    H163139   2.546   3.618   0.178  1.2812 -0.4225 -0.8635
13908TIP3    H263140   2.695   3.641   0.176  1.2098  0.3062  0.5958
13909TIP3   OH263141   5.594   1.186   2.397 -0.2319 -0.8024  0.0035
13909TIP3    H163142   5.561   1.164   2.310 -0.0822 -2.3580  0.3121
13909TIP3    H263143   5.631   1.273   2.387  0.2566 -1.1651 -1.6361
13910TIP3   OH263144   1.688   1.189   0.508 -0.1756  0.5024  0.2355
13910TIP3    H163145   1.660   1.198   0.600 -2.7746  1.8220 -0.5891
13910TIP3    H263146   1.759   1.126   0.511 -0.9866 -0.4320  3.0309
13911TIP3   OH263147   2.419   4.979   3.599  0.3802 -0.0794  0.3686
13911TIP3    H163148   2.492   4.922   3.623  0.3704  1.0030  3.3569
13911TIP3    H263149   2.341   4.926   3.619  0.3757  0.3187  1.4573
13912TIP3   OH263150   6.343   1.060  14.278 -0.0407  0.1089  0.8470
13912TIP3    H163151   6.287   1.050  14.201 -0.1092  2.2429  0.5540
13912TIP3    H263152   6.429   1.083  14.242  0.1643  0.1950  1.3749
13913TIP3   OH263153   4.753   2.615   0.529 -0.2212  0.6487 -0.3859
13913TIP3    H163154   4.806   2.638   0.606 -1.3549  1.4939  0.1639
13913TIP3    H263155   4.733   2.699   0.488  0.6088  0.2001 -1.8129
13914TIP3   OH263156   5.375   1.340   0.130  0.5971 -0.5650  0.3436
13914TIP3    H163157   5.369   1.282   0.206 -0.9309 -0.5896  0.2464
13914TIP3    H263158   5.311   1.409   0.148  1.5798  0.4639 -0.0699
13915TIP3   OH263159   5.031   0.816   1.386  0.0484  0.3942  0.7925
13915TIP3    H163160   5.108   0.771   1.421 -0.0305 -0.2302  0.1957
13915TIP3    H263161   5.051   0.909   1.395  0.9170  0.2391  0.5438
13916TIP3   OH263162   4.900   1.073   4.172  0.3444  0.0731  0.0431
13916TIP3    H163163   4.944   0.988   4.168  1.6409  0.7455 -0.7669
13916TIP3    H263164   4.967   1.136   4.146 -0.9062  1.2452 -0.4804
13917TIP3   OH263165   6.672   0.571  14.099 -0.1296  0.6564  0.2584
13917TIP3    H163166   6.661   0.645  14.039  0.6051  1.2538  0.8354
13917TIP3    H263167   6.592   0.520  14.090  0.2981  0.2928 -1.8205
13918TIP3   OH263168   0.215   0.736   5.007  0.2485  0.4489 -0.1278
13918TIP3    H163169   0.291   0.795   5.014 -0.8955  1.8719  0.8066
13918TIP3    H263170   0.247   0.653   5.042  1.2313  1.1818  0.7980
13919TIP3   OH263171   4.533   3.622   5.145  0.1347 -0.2160  0.6404
13919TIP3    H163172   4.610   3.579   5.109  0.1787 -0.9408  1.5726
13919TIP3    H263173   4.544   3.714   5.120 -0.1218 -0.7435 -1.6383
13920TIP3   OH263174   3.706   4.852  16.652  0.1491 -0.5065  0.0348
13920TIP3    H163175   3.641   4.885  16.590  1.9262  0.5586 -1.3587
13920TIP3    H263176   3.715   4.922  16.717 -1.0423 -1.2388  1.0423
13921TIP3   OH263177   3.182   5.583  12.564 -0.0140 -0.6598 -0.5959
13921TIP3    H163178   3.231   5.618  12.638  0.5341 -1.9687 -0.3201
13921TIP3    H263179   3.123   5.519  12.602 -1.6603  0.5584 -0.9906
13922TIP3   OH263180   1.854   5.561   4.853  0.4624 -0.0778 -0.3606
13922TIP3    H163181   1.780   5.615   4.881  2.1754  2.2050  0.1012
13922TIP3    H263182   1.930   5.619   4.862  2.4492 -2.6024  0.0637
13923TIP3   OH263183   3.551   6.094  15.681  0.3531 -0.0350 -0.1283
13923TIP3    H163184   3.626   6.153  15.672  0.4128  0.4436  2.6558
13923TIP3    H263185   3.481   6.137  15.631  1.0593  1.1842 -0.1205
13924TIP3   OH263186   1.460   2.772   1.347  0.7542  0.3735  0.2049
13924TIP3    H163187   1.452   2.802   1.438 -0.8923 -1.0915  0.5954
13924TIP3    H263188   1.462   2.677   1.353  0.7761  0.2523 -1.3070
13925TIP3   OH263189   1.010   1.394  14.860 -0.0209  0.1661 -0.0526
13925TIP3    H163190   0.990   1.343  14.781  3.6363 -0.7182 -0.5967
13925TIP3    H263191   0.999   1.332  14.932  0.1029 -0.1050 -0.2611
13926TIP3   OH263192   0.517   2.254  16.563  0.4652  0.0011 -0.1364
13926TIP3    H163193   0.454   2.320  16.592 -0.8192  0.8191 -4.1228
13926TIP3    H263194   0.477   2.171  16.586 -0.9020  0.5603 -0.4108
13927TIP3   OH263195   0.867   1.061  13.401 -0.0464 -0.5736  0.3355
13927TIP3    H163196   0.868   1.013  13.484 -1.6463 -1.1192  0.0925
13927TIP3    H263197   0.780   1.101  13.398 -0.9251 -2.3739 -2.0201
13928TIP3   OH263198   1.051   2.398   4.000 -0.0927 -0.3379 -0.4150
13928TIP3    H163199   1.065   2.320   3.946 -0.1173 -0.5311 -0.1458
13928TIP3    H263200   1.139   2.426   4.025 -0.1057 -0.5536 -0.1268
13929TIP3   OH263201   1.596   2.174  12.379  0.1270 -0.0795 -0.1889
13929TIP3    H163202   1.615   2.080  12.384 -0.8256 -0.2128  3.3039
13929TIP3    H263203   1.501   2.180  12.379  0.1574  0.8676  1.3005
13930TIP3   OH263204   5.264   1.102   1.769 -0.0381 -0.4897  0.7288
13930TIP3    H163205   5.350   1.100   1.810 -0.9581  0.5021  2.8969
13930TIP3    H263206   5.271   1.169   1.701  0.5918  0.4845  1.7170
13931TIP3   OH263207   1.846   5.680  13.268  0.6204  0.6848 -0.4626
13931TIP3    H163208   1.859   5.597  13.221  0.4633  1.0911 -1.2316
13931TIP3    H263209   1.907   5.741  13.228  0.0658  1.1939 -0.5484
13932TIP3   OH263210   1.032   5.692  13.702 -0.4083  0.2882  0.7477
13932TIP3    H163211   1.075   5.719  13.784  1.2596 -1.8258  0.6477
13932TIP3    H263212   1.102   5.695  13.637 -0.6004 -2.1813  0.3409
13933TIP3   OH263213   2.266   5.849   3.555 -0.8043  0.1207 -0.0760
13933TIP3    H163214   2.175   5.862   3.582 -0.9489 -1.3377  0.2182
13933TIP3    H263215   2.313   5.924   3.592 -1.4752 -0.3846  1.9507
13934TIP3   OH263216   2.436   3.165  13.198 -0.5446 -1.2264 -0.3425
13934TIP3    H163217   2.397   3.107  13.133  1.2958 -2.2614 -0.5893
13934TIP3    H263218   2.394   3.141  13.281 -2.7217 -0.0723 -1.0178
13935TIP3   OH263219   0.731   3.005  17.016  0.1122 -0.2518 -0.0066
13935TIP3    H163220   0.769   3.038  16.934  0.1844 -0.9149 -0.2516
13935TIP3    H263221   0.743   2.910  17.011  0.9266 -0.2353  1.1794
13936TIP3   OH263222   2.724   3.579   0.593 -0.2423 -0.3895  0.7996
13936TIP3    H163223   2.763   3.666   0.604 -1.5177  0.4642 -0.9912
13936TIP3    H263224   2.783   3.534   0.532 -0.2467 -0.3256  0.7478
13937TIP3   OH263225   4.320   3.334  13.311  0.7634 -0.7008  0.2504
13937TIP3    H163226   4.381   3.319  13.384 -0.5384  0.7449  1.7204
13937TIP3    H263227   4.235   3.305  13.344 -0.1072  1.2296 -0.1193
13938TIP3   OH263228   4.229   0.497   1.597 -1.0186  0.2367  0.1475
13938TIP3    H163229   4.262   0.529   1.513 -0.0970  0.0384  0.4234
13938TIP3    H263230   4.142   0.536   1.605 -0.3892  1.7585 -0.0528
13939TIP3   OH263231   1.005   3.914   1.492 -0.3500  0.6199  0.0826
13939TIP3    H163232   1.068   3.972   1.450 -0.5583  3.1666  2.8986
13939TIP3    H263233   0.920   3.954   1.474 -0.9514 -1.0694 -1.1208
13940TIP3   OH263234   1.868   1.558   3.015  0.2528  0.0684  0.5394
13940TIP3    H163235   1.858   1.605   2.933 -0.9683 -1.2267 -0.0888
13940TIP3    H263236   1.875   1.627   3.082 -0.3337  1.1265 -0.4570
13941TIP3   OH263237   2.523   1.842   1.554 -0.2073  0.5103 -0.0706
13941TIP3    H163238   2.585   1.862   1.624 -0.3554  2.0455 -0.3475
13941TIP3    H263239   2.579   1.815   1.481 -0.0785 -1.7591  0.7729
13942TIP3   OH263240   3.688   3.862   4.108  0.7246  0.1125 -0.1328
13942TIP3    H163241   3.649   3.857   4.021  0.4854  2.7226 -0.2763
13942TIP3    H263242   3.731   3.948   4.109  0.3122  0.3670  2.4684
13943TIP3   OH263243   0.407   1.246   0.391 -0.4907  0.2440 -0.5389
13943TIP3    H163244   0.347   1.179   0.357  0.5972 -1.7920  1.2614
13943TIP3    H263245   0.470   1.260   0.321  0.1449 -1.8403 -0.4665
13944TIP3   OH263246   1.048   5.329   3.640 -0.0660  0.6159  0.4360
13944TIP3    H163247   0.980   5.274   3.601 -0.3511  0.6724  0.8474
13944TIP3    H263248   1.056   5.403   3.579  0.6112 -0.0754 -0.3305
13945TIP3   OH263249   5.228   3.608  15.498  0.1073  0.1035  0.0421
13945TIP3    H163250   5.281   3.536  15.463  2.6642  3.0224 -2.8204
13945TIP3    H263251   5.178   3.639  15.423 -1.8499  0.6790  1.4949
13946TIP3   OH263252   1.584   5.499  11.652 -0.1426 -0.0344 -0.0299
13946TIP3    H163253   1.512   5.559  11.635  0.0724  0.1250 -0.3793
13946TIP3    H263254   1.663   5.554  11.648  0.2769 -0.7037 -2.6595
13947TIP3   OH263255   0.624   2.861   1.537  0.0863  0.0200  0.0719
13947TIP3    H163256   0.572   2.782   1.523  0.2667  0.0827 -1.0798
13947TIP3    H263257   0.678   2.842   1.614 -0.3186 -0.7375  0.1724
13948TIP3   OH263258   2.138   2.426  16.035  0.3964 -0.0870 -0.0637
13948TIP3    H163259   2.094   2.375  16.103  1.6921 -0.2293  0.7095
13948TIP3    H263260   2.162   2.508  16.079 -1.4770  1.1627 -1.2285
13949TIP3   OH263261   4.352   5.694   3.869  0.2639 -0.6397 -0.7899
13949TIP3    H163262   4.430   5.696   3.924  0.8241  0.9562 -1.6009
13949TIP3    H263263   4.384   5.686   3.780 -0.4758 -0.0036 -1.1332
13950TIP3   OH263264   0.622   0.138  13.080 -0.1252 -0.6570 -0.0670
13950TIP3    H163265   0.704   0.109  13.040 -1.0905 -1.8290 -1.2776
13950TIP3    H263266   0.585   0.200  13.017 -0.5757 -0.7793  0.0727
13951TIP3   OH263267   5.141   5.036   1.656  0.0990  0.4085  0.5741
13951TIP3    H163268   5.085   4.998   1.589  0.8124  0.6121 -0.1558
13951TIP3    H263269   5.216   4.976   1.661  0.4869  0.8838  0.5270
13952TIP3   OH263270   4.938   0.652   4.799 -0.4497 -0.4338  0.3345
13952TIP3    H163271   4.851   0.625   4.772  0.1748 -2.9090  0.5680
13952TIP3    H263272   4.929   0.675   4.892 -0.8392 -0.6778  0.3558
13953TIP3   OH263273   6.420   4.972   2.350 -0.0829  0.2535 -0.1097
13953TIP3    H163274   6.432   4.961   2.255 -0.5320 -0.3624 -0.1074
13953TIP3    H263275   6.450   4.888   2.387 -1.5762 -0.1957  0.1317
13954TIP3   OH263276   5.300   6.411  12.117 -0.1416 -0.0547 -0.5863
13954TIP3    H163277   5.265   6.429  12.029  0.8547 -0.8084 -1.1431
13954TIP3    H263278   5.271   6.487  12.169  0.3867  1.0782 -1.8752
13955TIP3   OH263279   1.050   4.572  14.982  0.3373  0.2325 -0.2710
13955TIP3    H163280   1.080   4.534  14.899  2.1003  1.4441 -0.2406
13955TIP3    H263281   1.097   4.523  15.049  0.8480  0.9222 -0.1215
13956TIP3   OH263282   4.987   3.520  15.175  0.6272 -0.1991 -0.0948
13956TIP3    H163283   5.044   3.446  15.152 -0.5441 -1.7316  1.5831
13956TIP3    H263284   4.898   3.488  15.157  0.1130  0.9315  0.3407
13957TIP3   OH263285   3.508   4.047  11.760 -0.1803  0.2967 -0.0149
13957TIP3    H163286   3.483   4.112  11.825 -1.8388  1.2573 -1.5062
13957TIP3    H263287   3.599   4.068  11.739  0.0045  0.6951  1.1490
13958TIP3   OH263288   1.996   5.470  12.357 -0.0432  0.0363  0.0816
13958TIP3    H163289   1.975   5.394  12.302 -2.4191  1.1295 -0.6614
13958TIP3    H263290   1.980   5.439  12.447 -0.0660 -0.6223 -0.1430
13959TIP3   OH263291   0.687   5.468  16.159  0.1931  0.0253  0.1170
13959TIP3    H163292   0.602   5.480  16.201 -0.2956 -1.3616 -0.4095
13959TIP3    H263293   0.728   5.555  16.161 -0.9265  0.5578  1.0122
13960TIP3   OH263294   5.668   4.772  10.718  0.8844 -1.1029  0.2116
13960TIP3    H163295   5.701   4.860  10.700 -0.9059 -0.8011 -1.9322
13960TIP3    H263296   5.584   4.786  10.763  0.0815 -1.6459 -1.0570
13961TIP3   OH263297   1.997   0.525  13.011  0.0994 -0.1204  0.3474
13961TIP3    H163298   1.980   0.431  13.003 -1.9498  0.3369 -1.6514
13961TIP3    H263299   1.929   0.557  13.071 -0.1715  0.3023 -0.1781
13962TIP3   OH263300   5.382   5.001   2.406 -0.1673  0.0391 -0.1203
13962TIP3    H163301   5.323   4.926   2.399  0.0066  0.0315 -4.1485
13962TIP3    H263302   5.377   5.042   2.319  1.3295  3.4917  1.2771
13963TIP3   OH263303   5.208   0.806  15.839 -0.2115 -0.1106  0.2496
13963TIP3    H163304   5.204   0.902  15.849 -1.1888 -0.0182 -0.7883
13963TIP3    H263305   5.202   0.772  15.928  1.5722  0.8038  0.7808
13964TIP3   OH263306   5.722   2.781   1.548 -0.4044  0.1914 -0.2287
13964TIP3    H163307   5.805   2.782   1.501 -0.5251  0.6064 -0.4361
13964TIP3    H263308   5.697   2.689   1.552  0.3460  0.0013  0.3313
13965TIP3   OH263309   3.729   6.103  14.130  0.0163 -0.1446 -0.5983
13965TIP3    H163310   3.644   6.063  14.151 -0.5431  1.1903 -0.2181
13965TIP3    H263311   3.747   6.075  14.040 -1.9079  1.2758 -1.4949
13966TIP3   OH263312   0.605   3.891  14.227 -0.4003  0.0831 -0.2182
13966TIP3    H163313   0.663   3.834  14.277 -0.9655  0.2144  0.5916
13966TIP3    H263314   0.532   3.835  14.200 -0.6753  0.2886  0.0974
13967TIP3   OH263315   1.480   4.117  14.155 -0.2236  0.3527 -0.7122
13967TIP3    H163316   1.561   4.116  14.104 -0.0733 -1.8735 -0.5408
13967TIP3    H263317   1.499   4.061  14.231 -0.9305  2.3675  1.0486
13968TIP3   OH263318   3.324   1.354  13.741  0.0720  0.0619 -0.1245
13968TIP3    H163319   3.370   1.437  13.756  0.4063 -0.1663  0.1456
13968TIP3    H263320   3.394   1.289  13.737 -0.2656 -0.3660  0.8145
13969TIP3   OH263321   6.456   6.309  17.007  0.8811 -0.3378 -0.4063
13969TIP3    H163322   6.393   6.268  16.949  0.5958 -0.2234 -0.1776
13969TIP3    H263323   6.474   6.394  16.967  2.2425 -1.0627 -1.4343
13970TIP3   OH263324   1.675   5.193  16.658  0.2703  0.7368  0.5449
13970TIP3    H163325   1.742   5.144  16.705  0.1067  0.9239  0.9793
13970TIP3    H263326   1.719   5.228  16.581  0.5967  0.6091  0.6740
13971TIP3   OH263327   0.449   6.767  14.351  0.1458  0.5734 -0.0628
13971TIP3    H163328   0.457   6.810  14.436  1.0620  1.8385 -0.7630
13971TIP3    H263329   0.480   6.678  14.366 -1.6041  0.1512  1.3709
13972TIP3   OH263330   5.532   4.972   3.122  0.7162 -0.1696  0.5636
13972TIP3    H163331   5.514   5.051   3.173 -3.6583 -1.2765  1.0829
13972TIP3    H263332   5.577   4.914   3.184  0.1937  0.3943  1.5040
13973TIP3   OH263333   5.808   2.626   5.935  0.5477  0.0902 -0.6644
13973TIP3    H163334   5.844   2.700   5.984  0.4895 -0.6610  0.5214
13973TIP3    H263335   5.723   2.658   5.904  0.4494  0.4759 -0.0180
13974TIP3   OH263336   4.194   2.738  11.597 -0.1571  0.7560 -0.3714
13974TIP3    H163337   4.265   2.685  11.562 -0.8957  0.1521 -1.0008
13974TIP3    H263338   4.232   2.783  11.672  1.0648  0.9656 -1.0942
13975TIP3   OH263339   6.463   0.060  15.956 -0.1067 -0.0073 -0.6211
13975TIP3    H163340   6.534   0.081  15.896  0.4336 -0.3265 -0.1083
13975TIP3    H263341   6.406   0.137  15.956  1.8763  1.5678  1.3106
13976TIP3   OH263342   2.856   3.230   0.243  0.6671 -0.7708 -0.0951
13976TIP3    H163343   2.786   3.208   0.182  1.8064 -0.4974 -1.5494
13976TIP3    H263344   2.889   3.145   0.274  0.9724 -0.9641 -0.9235
13977TIP3   OH263345   3.308   6.205   6.408 -0.6619  0.0874 -0.3290
13977TIP3    H163346   3.315   6.295   6.439 -1.3322  0.3731 -0.9627
13977TIP3    H263347   3.225   6.203   6.359 -0.5879 -0.8363 -0.4344
13978TIP3   OH263348   1.161   3.733  15.482  0.3296 -0.3999 -0.1970
13978TIP3    H163349   1.189   3.642  15.479 -1.0773 -0.8717  0.0217
13978TIP3    H263350   1.099   3.742  15.409 -0.5860 -0.0137  0.5982
13979TIP3   OH263351   0.529   1.901   4.588  0.0728  0.2936 -0.0699
13979TIP3    H163352   0.549   1.841   4.660 -1.1740  1.9233  1.7496
13979TIP3    H263353   0.610   1.950   4.574  0.4756 -0.3818 -0.1662
13980TIP3   OH263354   0.038   2.251  15.941 -0.0940  0.3998  0.0146
13980TIP3    H163355  -0.054   2.278  15.948 -0.5151 -0.6125 -1.2465
13980TIP3    H263356   0.071   2.255  16.031 -1.7226 -0.4191  0.6892
13981TIP3   OH263357   1.444   2.064   1.997 -0.4971  0.2193 -0.0238
13981TIP3    H163358   1.508   2.039   2.063 -1.4195  0.1676  0.8662
13981TIP3    H263359   1.372   2.103   2.046 -1.1602  0.2662 -1.0045
13982TIP3   OH263360   4.093   6.725  15.648 -0.0468  0.5561 -0.4361
13982TIP3    H163361   4.053   6.733  15.562  2.4250  1.7125 -1.5849
13982TIP3    H263362   4.137   6.639  15.647 -1.1371 -0.0344  0.2358
13983TIP3   OH263363   5.577   1.830  15.706 -0.0379 -0.4183  0.6609
13983TIP3    H163364   5.495   1.800  15.666  0.4184 -1.9782  0.8563
13983TIP3    H263365   5.608   1.755  15.757  1.7185  0.0173  0.2849
13984TIP3   OH263366   4.433   4.246  16.127  0.0719 -0.2814 -0.2081
13984TIP3    H163367   4.481   4.301  16.066  0.8916 -0.0954  0.5848
13984TIP3    H263368   4.392   4.179  16.072  2.1783 -1.1444 -0.8233
13985TIP3   OH263369   2.085   4.007   3.817  0.7738 -0.0884 -0.3112
13985TIP3    H163370   2.139   4.068   3.868 -1.0384  0.4219  1.1102
13985TIP3    H263371   1.997   4.014   3.856 -0.8692  0.6587 -3.8134
13986TIP3   OH263372   5.524   0.482  15.520 -0.0800 -0.2146  0.3055
13986TIP3    H163373   5.535   0.495  15.614  1.3015  0.1483  0.1204
13986TIP3    H263374   5.575   0.404  15.500 -1.5257 -1.1475  0.0488
13987TIP3   OH263375   5.458   0.507   1.630 -0.4455 -0.4807 -0.2295
13987TIP3    H163376   5.402   0.452   1.575  0.8592 -2.3316  0.2096
13987TIP3    H263377   5.514   0.554   1.568 -0.2862 -1.0901 -0.5566
13988TIP3   OH263378   3.243   5.810   3.296  0.0328 -0.1702 -0.2626
13988TIP3    H163379   3.278   5.893   3.330 -4.1318  2.0752 -0.6892
13988TIP3    H263380   3.218   5.831   3.206 -0.7441 -2.0497 -0.5171
13989TIP3   OH263381   6.766   1.289  10.513 -0.5040  0.0532  0.3475
13989TIP3    H163382   6.790   1.322  10.426  0.7385  0.3898  0.8100
13989TIP3    H263383   6.725   1.364  10.556 -0.6314  0.0423  0.2468
13990TIP3   OH263384   5.415   2.118  13.634 -0.4293  0.0685 -0.6833
13990TIP3    H163385   5.393   2.138  13.543 -0.2543 -0.2837 -0.8082
13990TIP3    H263386   5.500   2.159  13.648 -1.7134  2.6618  0.2349
13991TIP3   OH263387   0.945   3.535   2.617  0.8782 -0.3064 -0.1431
13991TIP3    H163388   0.955   3.622   2.579  2.0623  0.4161  1.6754
13991TIP3    H263389   1.033   3.497   2.612  0.6618 -0.8733  0.2927
13992TIP3   OH263390   3.592   0.495  15.173 -0.0798  0.3580 -0.3123
13992TIP3    H163391   3.659   0.516  15.238 -0.6797  3.0228 -0.4574
13992TIP3    H263392   3.634   0.514  15.089 -0.2142 -0.4211 -0.5650
13993TIP3   OH263393   3.482   4.755  13.113 -0.3251 -0.0150 -0.6532
13993TIP3    H163394   3.457   4.669  13.081  2.9266 -1.2771 -0.2299
13993TIP3    H263395   3.500   4.742  13.206 -2.9156  1.9694  0.2322
13994TIP3   OH263396   5.375   0.729   5.832 -0.9384 -0.1039 -0.2203
13994TIP3    H163397   5.407   0.677   5.758  1.1407  2.1410 -1.0864
13994TIP3    H263398   5.361   0.666   5.902  0.8675 -1.8934 -1.3504
13995TIP3   OH263399   5.909   0.765   2.796  0.0458  0.2512 -1.0960
13995TIP3    H163400   5.968   0.801   2.862 -0.9342 -1.5986  0.8710
13995TIP3    H263401   5.907   0.833   2.728  1.3427  2.1026  0.5772
13996TIP3   OH263402   6.729   3.433  11.267  0.7601 -0.6912 -0.5459
13996TIP3    H163403   6.722   3.349  11.221  0.0818 -0.7167 -0.4117
13996TIP3    H263404   6.638   3.458  11.283  0.9802 -0.2810  0.0573
13997TIP3   OH263405   1.730   2.389  14.099  0.4198  0.2337 -0.3814
13997TIP3    H163406   1.746   2.460  14.036 -0.2119 -0.8713 -1.8500
13997TIP3    H263407   1.809   2.335  14.095  1.6250  1.6778  1.9764
13998TIP3   OH263408   1.803   0.411  11.759  0.2646 -0.1434 -0.0645
13998TIP3    H163409   1.795   0.482  11.823 -0.1004  0.1310 -0.4123
13998TIP3    H263410   1.880   0.434  11.707 -0.2297  0.3528 -0.6019
13999TIP3   OH263411   0.311   1.857   1.089 -0.2808  0.2325  0.2490
13999TIP3    H163412   0.262   1.776   1.076  1.1498 -0.4356 -1.3480
13999TIP3    H263413   0.389   1.830   1.138  0.2771  0.5900 -0.4224
14000TIP3   OH263414   5.675   3.103   6.357 -0.2587  0.3451 -0.2588
14000TIP3    H163415   5.729   3.085   6.280  0.4529  0.0780  0.2914
14000TIP3    H263416   5.680   3.198   6.368  0.3144  0.2945 -0.0609
14001TIP3   OH263417   3.081   0.517   5.062 -0.1885  0.3647  0.3614
14001TIP3    H163418   3.172   0.545   5.054 -0.1126  0.1079  0.3125
14001TIP3    H263419   3.050   0.512   4.971 -0.7383  2.0151  0.4201
14002TIP3   OH263420   0.212   6.558   3.812  0.1359  0.0212  0.2650
14002TIP3    H163421   0.293   6.510   3.830 -1.6927 -2.7324  2.1341
14002TIP3    H263422   0.171   6.508   3.741 -0.8979  0.0039  0.8635
14003TIP3   OH263423   0.667   2.076   5.997 -0.3860 -0.2237 -0.1938
14003TIP3    H163424   0.671   2.070   6.092  1.3161  0.7789 -0.1632
14003TIP3    H263425   0.735   2.017   5.965 -0.6348 -0.2119 -0.7741
14004TIP3   OH263426   1.047   2.731  16.516  0.0482  0.3862  0.1136
14004TIP3    H163427   0.965   2.742  16.563  1.0679 -1.5793  2.5724
14004TIP3    H263428   1.024   2.679  16.439 -0.7232 -2.6678  2.2403
14005TIP3   OH263429   4.052   6.145   1.814  0.7112 -0.2392 -0.2167
14005TIP3    H163430   4.114   6.075   1.792 -0.0978 -0.5101 -1.7950
14005TIP3    H263431   4.006   6.163   1.732 -2.0334 -0.7852  1.0929
14006TIP3   OH263432   5.233   5.660   6.041  0.6125 -0.4821  0.0801
14006TIP3    H163433   5.237   5.643   6.135  1.3595  1.0713  0.3602
14006TIP3    H263434   5.260   5.751   6.032  0.3847 -0.5509 -1.6349
14007TIP3   OH263435   4.547   1.123  15.769  0.5953  0.4675 -0.6081
14007TIP3    H163436   4.620   1.073  15.731  0.9547  1.1540 -0.8261
14007TIP3    H263437   4.495   1.150  15.693  2.1151  3.1210 -0.8228
14008TIP3   OH263438   6.408   0.178  11.388  0.3628  0.1189 -0.3413
14008TIP3    H163439   6.366   0.227  11.317  0.2208  1.2074  0.4587
14008TIP3    H263440   6.488   0.228  11.406  1.3970 -1.2424 -1.0174
14009TIP3   OH263441   6.353   1.322  13.394 -0.0131 -0.7767 -0.2482
14009TIP3    H163442   6.440   1.350  13.366  0.5698 -1.5307  0.7587
14009TIP3    H263443   6.296   1.346  13.321  1.2589 -1.6209 -1.5760
14010TIP3   OH263444   2.210   6.142  16.430  0.4387 -0.1375  0.1149
14010TIP3    H163445   2.137   6.192  16.466  1.1745  1.2730 -0.2713
14010TIP3    H263446   2.169   6.070  16.382 -0.6301 -0.2451  1.1433
14011TIP3   OH263447   4.800   2.443  16.406 -0.2656 -0.0963  0.0985
14011TIP3    H163448   4.880   2.454  16.456  0.0269 -1.7519  0.0417
14011TIP3    H263449   4.794   2.522  16.352  1.3441  0.0200  0.0627
14012TIP3   OH263450   4.300   1.923   4.488 -0.3903 -0.3500  0.8078
14012TIP3    H163451   4.261   2.010   4.483  1.3634  0.4188 -0.2598
14012TIP3    H263452   4.285   1.885   4.402  1.0963 -0.0716  0.4044
14013TIP3   OH263453   4.155   1.777   5.658 -0.5166  0.7405  0.5900
14013TIP3    H163454   4.101   1.846   5.695  0.9986  1.7611  0.9888
14013TIP3    H263455   4.180   1.810   5.571 -1.6512 -0.3464 -0.1821
14014TIP3   OH263456   2.921   1.988   3.254 -0.4387  0.2258 -0.1730
14014TIP3    H163457   2.965   1.960   3.173  0.9807  1.7889  0.0195
14014TIP3    H263458   2.883   1.907   3.289  1.9163 -1.1675 -0.5811
14015TIP3   OH263459   6.304   0.437   1.496  0.3273  0.1310  0.1742
14015TIP3    H163460   6.318   0.400   1.409 -1.5521  3.1972 -1.5751
14015TIP3    H263461   6.392   0.450   1.531  1.1396 -0.8076 -1.4092
14016TIP3   OH263462   5.028   5.007   5.042 -0.2873 -0.0632  0.1068
14016TIP3    H163463   5.085   5.043   5.110  0.8375  1.0935 -1.3628
14016TIP3    H263464   5.084   4.945   4.995 -0.6540  0.0720 -0.5217
14017TIP3   OH263465   1.688   5.915  14.365 -0.5860  0.1565  0.6387
14017TIP3    H163466   1.706   5.907  14.272  1.6427 -0.4510  1.0468
14017TIP3    H263467   1.702   6.007  14.385  1.6970 -0.1583  0.7923
14018TIP3   OH263468   4.503   6.549  11.483 -0.1652 -0.0028  0.4034
14018TIP3    H163469   4.435   6.605  11.447 -0.2068 -0.1618  0.2389
14018TIP3    H263470   4.465   6.462  11.484  0.4272 -0.2942 -0.7380
14019TIP3   OH263471   6.298   1.620  13.060  0.3491  0.3274 -0.1725
14019TIP3    H163472   6.301   1.678  13.137 -0.0068  0.0730  0.0365
14019TIP3    H263473   6.298   1.532  13.097 -1.5753  0.1957 -0.3705
14020TIP3   OH263474   1.127   3.000   5.219  0.1909 -0.6281 -0.0570
14020TIP3    H163475   1.163   3.086   5.243 -0.3161 -0.1217 -1.0376
14020TIP3    H263476   1.051   3.020   5.164 -0.2490 -1.7063  0.1300
14021TIP3   OH263477   1.085   2.744   5.352 -0.1404 -0.3183 -1.1448
14021TIP3    H163478   0.992   2.726   5.337 -0.1591 -1.7755  0.4046
14021TIP3    H263479   1.099   2.830   5.313 -1.9819 -0.3352 -1.9799
14022TIP3   OH263480   6.137   2.290   0.611 -0.3414 -0.1170 -0.2311
14022TIP3    H163481   6.130   2.308   0.518  1.4773 -0.6649 -0.5092
14022TIP3    H263482   6.213   2.341   0.640 -0.1598 -0.8713  0.6780
14023TIP3   OH263483   4.019   0.780  14.914  0.0400  0.2567  0.2785
14023TIP3    H163484   3.964   0.818  14.982 -1.3538  1.0418 -1.2392
14023TIP3    H263485   4.009   0.686  14.925 -1.8590  0.3821 -0.1331
14024TIP3   OH263486   0.401   4.641  13.973 -0.3101 -0.2557  0.1714
14024TIP3    H163487   0.370   4.633  14.063  1.7676 -1.0091  0.8950
14024TIP3    H263488   0.330   4.608  13.919 -2.1450  1.4584  1.3887
14025TIP3   OH263489   5.863   5.045  16.900  0.8063  0.4760 -0.2298
14025TIP3    H163490   5.935   5.088  16.854  0.1589  1.1093 -0.6670
14025TIP3    H263491   5.789   5.052  16.840  0.3995 -0.2569  0.1747
14026TIP3   OH263492   4.649   5.296  13.609 -0.0004 -1.2103 -0.0860
14026TIP3    H163493   4.634   5.315  13.516 -1.0547 -1.5911 -0.0061
14026TIP3    H263494   4.743   5.281  13.615  0.0077 -1.7607 -1.2196
14027TIP3   OH263495   4.265   2.371  11.798 -0.0713  0.6227 -0.0616
14027TIP3    H163496   4.359   2.367  11.811 -0.0395 -0.4378 -0.5146
14027TIP3    H263497   4.253   2.352  11.705 -0.6395  2.3152 -0.3646
14028TIP3   OH263498   2.062   0.559  13.309  0.1443 -0.4230 -0.0047
14028TIP3    H163499   2.069   0.534  13.401  0.4829 -0.1756  0.0350
14028TIP3    H263500   1.978   0.521  13.281 -1.1136  1.4441  1.0183
14029TIP3   OH263501   5.882   5.531   1.041  0.1060 -0.3315  0.5377
14029TIP3    H163502   5.969   5.567   1.056  1.2928 -2.4078 -0.9102
14029TIP3    H263503   5.894   5.436   1.046 -1.6200 -0.7614 -1.7463
14030TIP3   OH263504   4.382   4.433  16.549  0.1949 -0.0960 -0.6335
14030TIP3    H163505   4.375   4.409  16.642 -1.0327 -1.0819 -0.9636
14030TIP3    H263506   4.430   4.361  16.509  0.0210 -0.0529 -0.9200
14031TIP3   OH263507   3.918   5.995  14.340  0.9446 -0.3628  0.4333
14031TIP3    H163508   3.846   5.936  14.364  0.0446  1.1351  1.6292
14031TIP3    H263509   3.883   6.048  14.269 -0.0343  1.8483  2.4296
14032TIP3   OH263510   2.510   2.307  15.343  0.4190 -1.0623 -0.3704
14032TIP3    H163511   2.555   2.231  15.304  0.1047 -2.0542  1.1283
14032TIP3    H263512   2.577   2.351  15.394  0.6365 -0.2009 -1.3519
14033TIP3   OH263513   6.403   0.548  11.435 -0.1382 -0.1739 -0.1067
14033TIP3    H163514   6.436   0.494  11.506  1.6914 -0.7512 -1.3307
14033TIP3    H263515   6.390   0.634  11.475 -0.5211 -0.8163  1.2322
14034TIP3   OH263516   6.607   1.537  15.854  0.0791 -0.4002 -0.1231
14034TIP3    H163517   6.588   1.565  15.943 -0.2605  0.5509 -0.4792
14034TIP3    H263518   6.586   1.614  15.800 -1.2604 -1.4717 -1.1785
14035TIP3   OH263519   4.889   5.321  12.962 -0.3250 -0.1636 -0.8099
14035TIP3    H163520   4.920   5.402  12.921  0.2110  0.2739  0.4109
14035TIP3    H263521   4.966   5.264  12.965  0.3067  0.6830  1.6361
14036TIP3   OH263522   2.332   3.529  13.225  0.4420  0.2483  0.4719
14036TIP3    H163523   2.269   3.480  13.278  0.2758  0.0065  0.0544
14036TIP3    H263524   2.323   3.492  13.137  0.2169  1.1250  0.1209
14037TIP3   OH263525   2.586   1.989  11.139 -0.0220  0.2768  0.6457
14037TIP3    H163526   2.559   1.906  11.101 -0.2654 -0.7931  3.0309
14037TIP3    H263527   2.504   2.037  11.154  0.1565  1.3568 -1.4471
14038TIP3   OH263528   1.840   0.021  13.253 -0.7617 -0.2843 -0.7278
14038TIP3    H163529   1.796   0.106  13.244  0.0746  0.2764  0.3347
14038TIP3    H263530   1.810  -0.029  13.177 -0.8792  1.1325 -1.6495
14039TIP3   OH263531   1.767   4.684  16.356  0.3817 -0.3289 -0.1412
14039TIP3    H163532   1.814   4.655  16.434  1.1884  0.0035 -0.4912
14039TIP3    H263533   1.779   4.613  16.293  1.3274  0.2246 -0.5907
14040TIP3   OH263534   3.810   0.057  15.360 -0.0102  0.2127 -0.0422
14040TIP3    H163535   3.779   0.130  15.414  0.3429 -0.0482  0.5256
14040TIP3    H263536   3.744  -0.012  15.373  0.2697  0.0133  0.3767
14041TIP3   OH263537   2.327   0.522   1.056 -0.1708  0.2274  0.0043
14041TIP3    H163538   2.352   0.430   1.054  1.7870  0.7072 -0.7865
14041TIP3    H263539   2.290   0.539   0.970 -0.3840  0.2164  0.0936
14042TIP3   OH263540   5.765   3.874   5.835 -0.0044 -0.3147  0.2457
14042TIP3    H163541   5.702   3.900   5.902  0.6627 -2.7990  1.9832
14042TIP3    H263542   5.725   3.798   5.793 -0.8376  1.7096 -2.9817
14043TIP3   OH263543   1.059   2.259  15.676 -0.0231 -0.2835 -0.9266
14043TIP3    H163544   1.016   2.329  15.725  0.4573 -0.3655 -0.3668
14043TIP3    H263545   0.998   2.186  15.680 -0.2424 -0.1033 -0.9526
14044TIP3   OH263546   3.709   1.366  11.734  0.0689  0.4257  0.1639
14044TIP3    H163547   3.696   1.272  11.723 -2.0421  0.9199 -2.3438
14044TIP3    H263548   3.650   1.391  11.805 -0.0111  0.0192  0.2405
14045TIP3   OH263549   4.072   1.606  14.119  0.0700 -0.4629 -0.1614
14045TIP3    H163550   4.012   1.679  14.134  0.8052  0.0347  0.5034
14045TIP3    H263551   4.064   1.552  14.198  0.2075 -0.6024 -0.2415
14046TIP3   OH263552   0.858   6.593   6.126  0.7285  0.3650 -0.3006
14046TIP3    H163553   0.881   6.633   6.210 -0.1006  0.8237 -0.2833
14046TIP3    H263554   0.789   6.648   6.091 -3.1882 -2.9111  1.4036
14047TIP3   OH263555   3.201   0.076  12.201  0.0183 -0.6183 -0.2173
14047TIP3    H163556   3.231   0.132  12.128  0.7124 -0.5093  0.1445
14047TIP3    H263557   3.169   0.138  12.267  1.1752 -0.6088  0.3572
14048TIP3   OH263558   2.209   2.607  14.233  0.8713  0.3686 -0.1532
14048TIP3    H163559   2.202   2.544  14.305  4.4884  0.3066  0.2931
14048TIP3    H263560   2.217   2.692  14.276 -0.3881  0.7800 -0.6649
14049TIP3   OH263561   1.510   3.036  13.332  0.4285 -0.4848  0.0423
14049TIP3    H163562   1.511   3.106  13.397 -0.3902  0.0426 -0.4954
14049TIP3    H263563   1.562   2.966  13.371  0.7834  0.2003  0.8335
14050TIP3   OH263564   3.374   6.058   3.115 -0.4712  0.0774  0.0470
14050TIP3    H163565   3.423   6.062   3.197 -1.7169 -0.8220  0.8680
14050TIP3    H263566   3.440   6.035   3.049  0.3492 -0.3756  0.9958
14051TIP3   OH263567   6.651   3.062  12.453 -0.3231 -0.0628 -0.0065
14051TIP3    H163568   6.742   3.042  12.474 -0.8383 -0.7467  1.7662
14051TIP3    H263569   6.655   3.102  12.366  1.8555  1.5118  0.7162
14052TIP3   OH263570   3.261   2.721   5.621 -0.3647 -0.0524 -0.6577
14052TIP3    H163571   3.259   2.727   5.716  0.0963  0.1000 -0.6547
14052TIP3    H263572   3.344   2.761   5.596 -0.6404  0.2306 -1.1469
14053TIP3   OH263573   1.797   0.215  14.515  0.3858 -0.2478 -0.1057
14053TIP3    H163574   1.757   0.266  14.585  0.0298  0.7609 -1.0134
14053TIP3    H263575   1.862   0.160  14.559 -0.0978  0.0773  1.0524
14054TIP3   OH263576   4.411   4.853   1.311  0.0667  0.2658 -0.3927
14054TIP3    H163577   4.401   4.801   1.231  0.4116  0.3372 -0.4843
14054TIP3    H263578   4.362   4.933   1.293 -0.1123  0.1515 -0.4141
14055TIP3   OH263579   4.761   0.381   6.053  0.0010 -0.0176  0.3976
14055TIP3    H163580   4.850   0.407   6.029 -0.0037 -0.6644 -0.3715
14055TIP3    H263581   4.737   0.440   6.124  0.3972  1.3189 -0.5488
14056TIP3   OH263582   5.006   5.547  12.820  0.0236 -0.2644 -0.8169
14056TIP3    H163583   4.956   5.626  12.841 -2.2268 -1.5959 -0.9070
14056TIP3    H263584   5.091   5.561  12.862 -0.1191  2.3753 -1.2279
14057TIP3   OH263585   5.505   1.867  12.635  0.1427  0.1236  0.2588
14057TIP3    H163586   5.509   1.958  12.607 -0.3042  0.1473  0.2582
14057TIP3    H263587   5.578   1.824  12.590  0.6004  0.5633  0.5793
14058TIP3   OH263588   2.866   3.248  12.763  0.2940  0.3229 -0.6536
14058TIP3    H163589   2.936   3.188  12.736 -0.0481 -0.5491  0.3049
14058TIP3    H263590   2.832   3.209  12.844  0.0157  1.7939 -0.0369
14059TIP3   OH263591   4.198   3.685  17.291 -0.2997 -0.2086 -0.5890
14059TIP3    H163592   4.289   3.666  17.317 -0.8545 -0.5027  1.2556
14059TIP3    H263593   4.203   3.769  17.246  0.8172  0.0256 -0.0665
14060TIP3   OH263594   6.457   3.292  16.222  0.6359 -0.1584 -0.4495
14060TIP3    H163595   6.512   3.306  16.299  0.7715 -0.7268 -0.4439
14060TIP3    H263596   6.429   3.201  16.228 -1.2920  0.4219  0.1917
14061TIP3   OH263597   0.329   5.411  16.041 -0.1450  0.7800  0.2907
14061TIP3    H163598   0.343   5.396  16.134 -2.7031  1.1279  0.7964
14061TIP3    H263599   0.273   5.339  16.012  0.9323  0.4463 -1.1061
14062TIP3   OH263600   4.294   1.283  16.879 -0.2683 -0.1293  0.1325
14062TIP3    H163601   4.389   1.288  16.886 -0.1253 -2.8694  1.0781
14062TIP3    H263602   4.278   1.218  16.811 -1.4789 -0.1592  0.4230
14063TIP3   OH263603   6.359   5.575   5.715 -0.2036 -0.3499  0.0985
14063TIP3    H163604   6.285   5.569   5.775 -0.3833 -2.5481 -0.2846
14063TIP3    H263605   6.387   5.667   5.721 -3.4854  0.8106 -0.4509
14064TIP3   OH263606   1.340   3.021   7.015 -0.1723  0.3623  0.5857
14064TIP3    H163607   1.424   3.065   7.028  0.4984 -0.6184 -0.2680
14064TIP3    H263608   1.298   3.071   6.944  1.0505 -0.9227 -1.1346
14065TIP3   OH263609   0.450   3.815   1.009  1.2457  0.1717 -0.6444
14065TIP3    H163610   0.412   3.861   1.084  0.2047 -0.6632 -0.6262
14065TIP3    H263611   0.377   3.805   0.948  1.2642 -1.9278 -0.3954
14066TIP3   OH263612   4.734   5.965  14.102  0.3287  0.0357 -0.0790
14066TIP3    H163613   4.705   6.049  14.138  0.5636 -0.0134  0.2279
14066TIP3    H263614   4.675   5.949  14.029 -1.5582 -0.8768  1.5430
14067TIP3   OH263615   2.323   4.535   3.177  0.3648  0.1341  0.4243
14067TIP3    H163616   2.355   4.487   3.101  1.0632  1.6205 -0.2734
14067TIP3    H263617   2.235   4.564   3.151  0.7572  0.9852 -0.0208
14068TIP3   OH263618   4.007   0.676  15.403  0.2235  0.2643 -0.2431
14068TIP3    H163619   3.978   0.726  15.326 -0.0533 -1.3725 -1.2421
14068TIP3    H263620   4.084   0.724  15.435  1.1896  0.2535 -2.3809
14069TIP3   OH263621   6.440   0.041   5.489  0.0064  0.1393 -0.1884
14069TIP3    H163622   6.415  -0.013   5.564  1.5125 -2.1584 -1.2165
14069TIP3    H263623   6.381   0.014   5.419  0.8278 -0.2780 -0.7385
14070TIP3   OH263624   5.559   6.019   5.273 -0.2737  0.3985  0.0447
14070TIP3    H163625   5.481   6.062   5.240  0.6043  1.4317 -0.7508
14070TIP3    H263626   5.590   6.077   5.343 -1.4665 -1.1760  1.9888
14071TIP3   OH263627   4.093   3.870  13.826  0.0064  0.2588 -0.1306
14071TIP3    H163628   4.154   3.910  13.888  0.0483 -0.3193  0.2057
14071TIP3    H263629   4.142   3.800  13.785 -1.1108 -1.9119  1.9711
14072TIP3   OH263630   2.019   6.554  16.560  0.1073 -0.2206  0.0836
14072TIP3    H163631   1.947   6.599  16.605 -0.1659 -0.5019 -0.0684
14072TIP3    H263632   2.057   6.620  16.503  0.1376  0.0022  0.3603
14073TIP3   OH263633   2.616   4.772   5.437  0.2664 -0.3233  0.2189
14073TIP3    H163634   2.663   4.692   5.458 -1.1784 -1.3667 -0.3913
14073TIP3    H263635   2.596   4.765   5.344  1.9842  1.7751 -0.3859
14074TIP3   OH263636   5.069   0.033   3.997 -0.3708  0.4410  0.2426
14074TIP3    H163637   5.001   0.054   3.932  0.7622 -1.3187 -1.6439
14074TIP3    H263638   5.072  -0.062   3.999  3.9278  0.2681 -2.0725
14075TIP3   OH263639   2.868   3.308   2.116  0.2606  0.4883 -0.0246
14075TIP3    H163640   2.856   3.300   2.021  2.0786 -0.7613 -0.1922
14075TIP3    H263641   2.928   3.238   2.139  0.8277  1.5242  1.8719
14076TIP3   OH263642   3.273   6.522  13.467 -0.2918  0.1180  0.1506
14076TIP3    H163643   3.332   6.530  13.392 -1.8977 -0.0263 -1.1727
14076TIP3    H263644   3.246   6.431  13.467  0.7687 -0.2550  1.8153
14077TIP3   OH263645   5.259   4.813   0.893 -0.4693  0.0173 -0.2265
14077TIP3    H163646   5.341   4.817   0.845 -1.4401 -0.2723 -2.0032
14077TIP3    H263647   5.193   4.843   0.831 -1.7323  0.1972  1.1275
14078TIP3   OH263648   4.247   4.021  10.620  0.3561  0.1156  0.6860
14078TIP3    H163649   4.158   4.046  10.593 -0.0077  0.8785  2.4304
14078TIP3    H263650   4.254   3.929  10.595 -0.1390  0.5710 -1.3450
14079TIP3   OH263651   5.964   3.029  15.725  0.3192 -0.1133 -1.2160
14079TIP3    H163652   5.993   2.953  15.774  0.5318  0.9247  0.3572
14079TIP3    H263653   6.043   3.081  15.712 -0.0153  0.4129 -1.1778
14080TIP3   OH263654   0.547   1.999  15.489 -0.4675  1.0395  0.5776
14080TIP3    H163655   0.627   2.037  15.452  0.6088 -0.9128  0.7847
14080TIP3    H263656   0.518   1.936  15.424 -0.6991  0.2991  1.3782
14081TIP3   OH263657   0.120   3.948  12.003 -0.6424 -0.4522  0.2894
14081TIP3    H163658   0.086   3.940  11.914  0.7293 -0.3296 -0.2643
14081TIP3    H263659   0.128   4.042  12.017  2.2553 -0.4631 -0.7323
14082TIP3   OH263660   1.750   4.889   6.494 -0.8276  0.4566  0.2659
14082TIP3    H163661   1.676   4.861   6.441 -0.2354 -0.8805  0.0935
14082TIP3    H263662   1.750   4.828   6.568  0.0148  0.5055  0.3180
14083TIP3   OH263663   0.914   3.163   3.469 -0.4821 -0.3202 -0.2218
14083TIP3    H163664   0.978   3.146   3.538  2.0343  0.2258 -2.2872
14083TIP3    H263665   0.928   3.092   3.407 -0.0249  1.2120 -1.9400
14084TIP3   OH263666   1.622   3.892   4.329 -0.0176  0.7561  0.5462
14084TIP3    H163667   1.625   3.832   4.255 -0.6224  1.5917 -0.1964
14084TIP3    H263668   1.567   3.848   4.394 -1.3251  0.9062 -0.4019
14085TIP3   OH263669   5.563   5.470  14.473 -0.9997  0.2660  0.3856
14085TIP3    H163670   5.601   5.437  14.391 -0.5672  0.8643  0.3350
14085TIP3    H263671   5.500   5.536  14.445 -0.0955  1.2235  0.5596
14086TIP3   OH263672   4.992   2.094  12.291  0.4749 -0.3817  0.5228
14086TIP3    H163673   4.991   2.132  12.378 -0.3628  0.3194  0.2253
14086TIP3    H263674   5.080   2.110  12.257  0.7023 -0.3806  1.1118
14087TIP3   OH263675   5.511   4.510  14.974  0.0054 -0.0476 -0.2653
14087TIP3    H163676   5.493   4.465  15.057 -0.0772  0.3977 -0.0389
14087TIP3    H263677   5.479   4.450  14.907 -0.7436 -0.0252  0.0610
14088TIP3   OH263678   3.021   4.771  12.787 -0.1203  0.6799  0.1122
14088TIP3    H163679   3.082   4.821  12.841 -0.0262 -0.1702  0.8259
14088TIP3    H263680   2.977   4.712  12.849 -0.6786  0.3260 -0.6037
14089TIP3   OH263681   2.541   5.305   3.976 -0.2527  0.8870 -0.4869
14089TIP3    H163682   2.593   5.225   3.986 -2.1388 -0.4441 -0.6524
14089TIP3    H263683   2.508   5.322   4.064  1.3031  2.3870 -0.1487
14090TIP3   OH263684   6.164   4.201  12.895 -1.0194 -0.3797 -0.1164
14090TIP3    H163685   6.257   4.184  12.910 -1.3237 -0.7961  1.5051
14090TIP3    H263686   6.133   4.123  12.850 -0.6848 -0.4705 -0.1951
14091TIP3   OH263687   2.735   2.543   2.743  0.3445  0.1084 -0.1456
14091TIP3    H163688   2.808   2.532   2.683 -0.2849  1.5970 -1.2476
14091TIP3    H263689   2.698   2.456   2.753  3.0367 -0.9759  1.5340
14092TIP3   OH263690   2.423   2.039  14.681 -0.1826  0.7243  0.1121
14092TIP3    H163691   2.515   2.057  14.699  0.3186 -0.8308 -0.6934
14092TIP3    H263692   2.417   1.944  14.679 -1.3909  0.7759 -1.8291
14093TIP3   OH263693   5.562   5.095   1.894 -0.2335 -0.1154  0.8402
14093TIP3    H163694   5.553   5.149   1.973  0.3382  0.6737  0.3747
14093TIP3    H263695   5.566   5.158   1.822 -1.6044 -0.8380  0.0750
14094TIP3   OH263696   4.609   5.921   1.988  0.0776  0.2986 -0.0279
14094TIP3    H163697   4.700   5.941   1.963  1.5827 -3.3019  1.7741
14094TIP3    H263698   4.614   5.900   2.081 -2.6250 -0.0915  0.1022
14095TIP3   OH263699   1.800   1.065  11.609  0.8492 -0.1424  0.2575
14095TIP3    H163700   1.739   1.074  11.683  0.4642 -1.4460  0.1253
14095TIP3    H263701   1.823   0.972  11.608  2.5718  0.2463  0.0710
14096TIP3   OH263702   2.305   5.332   0.201 -0.5581  0.2677  0.8195
14096TIP3    H163703   2.219   5.293   0.215 -0.4700  0.4952  2.1293
14096TIP3    H263704   2.286   5.420   0.168 -0.7544 -0.8029 -2.2815
14097TIP3   OH263705   4.686   2.781  12.519  0.0243  0.5108  0.4635
14097TIP3    H163706   4.728   2.747  12.441  1.6479 -1.3564  2.0344
14097TIP3    H263707   4.758   2.796  12.581 -0.9955  3.6238  1.0795
14098TIP3   OH263708   3.738   5.042   5.559  0.1853  0.0507 -0.1716
14098TIP3    H163709   3.744   4.948   5.576 -0.7671 -0.3600 -1.8801
14098TIP3    H263710   3.785   5.055   5.477 -0.1380  0.9877 -0.2168
14099TIP3   OH263711   2.425   4.014   5.321 -0.6993  0.2061  0.4475
14099TIP3    H163712   2.488   4.001   5.251 -0.0728 -1.4026  1.2613
14099TIP3    H263713   2.442   4.103   5.352  0.9126 -0.0517  0.3888
14100TIP3   OH263714   5.078   5.787  11.278 -0.7292  0.0763  0.3424
14100TIP3    H163715   5.106   5.699  11.253  0.0984  0.4930 -0.2619
14100TIP3    H263716   4.994   5.774  11.321 -1.7440 -0.7962 -1.7818
14101TIP3   OH263717   0.968   4.162  15.978 -0.4502 -0.2402 -0.1381
14101TIP3    H163718   0.906   4.136  15.910 -1.1849 -0.2257  0.5150
14101TIP3    H263719   0.914   4.182  16.054  0.1559  2.1154 -0.2546
14102TIP3   OH263720   2.103   2.662   2.985 -0.5744  0.2642 -0.3123
14102TIP3    H163721   2.194   2.666   2.958 -0.4003  2.3075  0.4039
14102TIP3    H263722   2.059   2.611   2.916  0.7948  0.6822 -1.5320
14103TIP3   OH263723   4.587   1.849  12.879 -0.1849 -0.2562 -0.4214
14103TIP3    H163724   4.638   1.778  12.918  2.0898  2.1234  1.2655
14103TIP3    H263725   4.500   1.841  12.919 -0.7558 -3.3359 -1.9979
14104TIP3   OH263726   1.432   3.192   2.255 -0.1021 -0.0159 -0.2742
14104TIP3    H163727   1.474   3.162   2.336 -1.2442 -0.4962  0.1617
14104TIP3    H263728   1.353   3.237   2.284 -0.5555 -0.2416 -1.1267
14105TIP3   OH263729   0.119   0.298   3.338 -0.0436  0.4190 -0.1661
14105TIP3    H163730   0.057   0.353   3.290  0.6756  0.6557 -0.8550
14105TIP3    H263731   0.118   0.332   3.427 -0.4278  0.8279 -0.3235
14106TIP3   OH263732   6.668   4.880   3.353 -0.0630  0.3437 -0.2400
14106TIP3    H163733   6.757   4.857   3.377  0.0915  0.4491 -0.7141
14106TIP3    H263734   6.615   4.807   3.385 -0.0245  1.0323  1.5493
14107TIP3   OH263735   0.727   4.810  16.167 -0.2369  0.0695  0.0761
14107TIP3    H163736   0.654   4.863  16.199  0.1929  0.6025  0.1908
14107TIP3    H263737   0.805   4.865  16.181 -0.0674  0.5728 -2.2993
14108TIP3   OH263738   3.527   4.858   3.645  1.1916 -0.6445  0.2896
14108TIP3    H163739   3.533   4.843   3.739  0.0258 -2.1036  0.1638
14108TIP3    H263740   3.480   4.782   3.611 -0.0051  0.6941 -1.2257
14109TIP3   OH263741   3.683   0.526   1.693  0.0451  0.3529 -0.0621
14109TIP3    H163742   3.713   0.493   1.777  2.5133  1.1574 -0.5522
14109TIP3    H263743   3.590   0.543   1.706  0.5999  1.6960  2.9117
14110TIP3   OH263744   2.174   2.139  11.572 -0.0557 -0.1854 -0.1985
14110TIP3    H163745   2.127   2.207  11.524 -0.0308 -0.1418 -0.1620
14110TIP3    H263746   2.229   2.096  11.507  1.8755  1.4917  0.2198
14111TIP3   OH263747   5.004   0.358  14.997  0.4644 -0.3830  0.1774
14111TIP3    H163748   4.963   0.301  14.932 -1.0446 -1.0838  1.6629
14111TIP3    H263749   5.055   0.298  15.053  0.7770  0.0488  0.3638
14112TIP3   OH263750   1.884   5.454   2.261  0.3099  0.3621 -0.0785
14112TIP3    H163751   1.857   5.449   2.353 -0.4996 -1.6153 -0.3800
14112TIP3    H263752   1.803   5.473   2.213  0.5490  0.3529 -0.4890
14113TIP3   OH263753   3.494   2.135   6.290  0.3268  0.4426 -0.2103
14113TIP3    H163754   3.524   2.214   6.334 -0.5648  0.4111  0.4881
14113TIP3    H263755   3.510   2.065   6.353  1.1975  0.0383 -0.8614
14114TIP3   OH263756   6.271   1.326  12.652  0.3428 -0.3669  0.2306
14114TIP3    H163757   6.289   1.303  12.743  0.4043 -2.9011 -0.3568
14114TIP3    H263758   6.343   1.287  12.603  0.5504  1.3371 -0.9080
14115TIP3   OH263759   2.618   6.568   1.081  0.1760 -0.6584  0.2137
14115TIP3    H163760   2.537   6.568   1.030 -0.1911  2.8575  0.5188
14115TIP3    H263761   2.686   6.595   1.019  0.4095 -0.0707  0.7022
14116TIP3   OH263762   5.170   2.769  12.058  0.1956  0.6114 -0.6327
14116TIP3    H163763   5.108   2.711  12.014  0.9311 -1.4333  0.8213
14116TIP3    H263764   5.227   2.801  11.989 -1.7271  1.5999 -1.8270
14117TIP3   OH263765   5.569   1.462  12.204  0.1575 -0.2128 -1.0843
14117TIP3    H163766   5.647   1.471  12.150 -0.2500  1.1100 -1.4837
14117TIP3    H263767   5.505   1.419  12.147  0.2845 -0.4056 -1.0808
14118TIP3   OH263768   4.401   2.983   2.798  0.0509  0.8898  0.5736
14118TIP3    H163769   4.398   3.005   2.891 -0.5126 -0.0077  0.7756
14118TIP3    H263770   4.470   2.917   2.791  0.4694  1.3533  0.2612
14119TIP3   OH263771   2.151   1.247  14.179 -0.3217  0.1213 -0.2954
14119TIP3    H163772   2.118   1.161  14.150  1.6515 -1.0170  0.6734
14119TIP3    H263773   2.072   1.294  14.207 -1.2851 -2.0547  0.8882
14120TIP3   OH263774   5.548   3.007  14.929 -0.1135 -0.0103 -0.1084
14120TIP3    H163775   5.489   2.963  14.990 -0.0275 -0.0685 -0.0665
14120TIP3    H263776   5.635   2.981  14.957  0.1051  2.0779  1.4111
14121TIP3   OH263777   1.607   5.504  15.083 -0.4064  0.2917  0.0637
14121TIP3    H163778   1.531   5.477  15.032  1.0754 -0.0973 -2.0351
14121TIP3    H263779   1.626   5.428  15.139 -0.9375 -0.0023 -0.1453
14122TIP3   OH263780   5.068   5.231   4.094  0.3007 -0.1105  0.3141
14122TIP3    H163781   5.110   5.312   4.125 -0.0254  1.5524 -3.0643
14122TIP3    H263782   5.004   5.261   4.029 -0.7765 -3.0368 -0.1141
14123TIP3   OH263783   1.626   5.641   1.286  0.4905 -0.3743  0.6052
14123TIP3    H163784   1.589   5.554   1.268  0.9811 -0.6668  0.9864
14123TIP3    H263785   1.599   5.660   1.376 -1.2622  0.7244 -0.0895
14124TIP3   OH263786   3.220   4.370  14.702 -0.6641 -0.5322 -0.0841
14124TIP3    H163787   3.150   4.365  14.637 -0.6249 -2.0655 -0.0262
14124TIP3    H263788   3.280   4.436  14.666 -1.2882 -0.4288 -0.9715
14125TIP3   OH263789   0.225   2.686   0.053  0.3935 -0.0416 -0.7349
14125TIP3    H163790   0.184   2.614   0.005  2.7209 -1.4044 -0.8136
14125TIP3    H263791   0.310   2.698   0.011  0.4886  2.1086 -0.0574
14126TIP3   OH263792   1.872   3.232  15.702  0.0597  0.3006 -0.1261
14126TIP3    H163793   1.778   3.246  15.701 -0.2711 -1.6159 -0.5227
14126TIP3    H263794   1.895   3.225  15.795 -0.4460 -0.6086 -0.0611
14127TIP3   OH263795   2.378   3.918   2.774 -0.0179 -0.7751 -0.2806
14127TIP3    H163796   2.458   3.972   2.772 -0.5772  0.0567 -1.7721
14127TIP3    H263797   2.351   3.920   2.866  1.8699 -1.4060  0.3402
14128TIP3   OH263798   5.339   4.444   6.378  0.2988  0.7562 -0.1254
14128TIP3    H163799   5.262   4.424   6.323 -0.1040  1.0832  0.3143
14128TIP3    H263800   5.314   4.523   6.426 -0.7880 -1.3646  3.1658
14129TIP3   OH263801   4.242   1.674  15.652 -0.0906 -0.5401  0.4003
14129TIP3    H163802   4.148   1.690  15.664 -0.4572 -2.7188  0.8884
14129TIP3    H263803   4.248   1.629  15.568  0.6741  0.4864 -0.1240
14130TIP3   OH263804   1.700   0.547  13.809  0.2086  0.6829  0.4375
14130TIP3    H163805   1.726   0.511  13.894 -1.4043  1.2431  1.1976
14130TIP3    H263806   1.732   0.483  13.745  0.8858 -0.0652  1.4986
14131TIP3   OH263807   1.253   2.018   1.809 -0.2343 -0.2555  0.3972
14131TIP3    H163808   1.304   1.974   1.742 -0.5412  1.0375 -0.7400
14131TIP3    H263809   1.318   2.057   1.868  0.2137  1.8208 -1.3218
14132TIP3   OH263810   0.090   2.721  13.897 -0.0114 -0.5107  0.0239
14132TIP3    H163811   0.066   2.630  13.879 -2.4910  0.0039  0.3227
14132TIP3    H263812   0.007   2.765  13.915  1.0025  2.0266 -0.9378
14133TIP3   OH263813   2.407   6.265  13.028 -0.7188 -0.0526 -0.7860
14133TIP3    H163814   2.435   6.177  13.005  1.1988  0.1065  0.7049
14133TIP3    H263815   2.413   6.268  13.124 -1.9212  1.3471 -0.7072
14134TIP3   OH263816   3.041   3.957  17.322  0.1286  0.0327 -0.3523
14134TIP3    H163817   3.049   3.872  17.364  0.3040 -1.4046 -3.0596
14134TIP3    H263818   3.113   4.009  17.358 -0.2410 -0.7453  1.6598
14135TIP3   OH263819   2.872   1.135   2.359 -0.5158  0.0536 -0.5139
14135TIP3    H163820   2.947   1.194   2.349 -0.5247 -0.1297 -1.8511
14135TIP3    H263821   2.811   1.162   2.291 -0.6098 -1.3600 -1.0208
14136TIP3   OH263822   5.611   0.056  17.103 -0.3658 -0.1020 -0.3877
14136TIP3    H163823   5.695   0.025  17.069  1.4722  1.4371  2.3967
14136TIP3    H263824   5.606   0.020  17.191 -2.6886 -0.1194 -0.4608
14137TIP3   OH263825   1.482   1.837  14.298  0.1605 -0.2394  0.0384
14137TIP3    H163826   1.538   1.799  14.231 -1.1874  0.1382 -1.3486
14137TIP3    H263827   1.439   1.911  14.255  0.0143  0.6405  1.6226
14138TIP3   OH263828   1.088   0.118   1.050 -0.2690 -0.5494 -0.4833
14138TIP3    H163829   1.105   0.027   1.073  1.4326 -0.2935 -0.5691
14138TIP3    H263830   1.024   0.148   1.114  0.5277 -1.2984  0.6947
14139TIP3   OH263831   6.328   0.697  15.665  0.4544  0.1880 -0.2858
14139TIP3    H163832   6.303   0.754  15.739  1.3791  1.0400 -0.6064
14139TIP3    H263833   6.305   0.748  15.588  0.2151 -0.3751 -0.5878
14140TIP3   OH263834   5.790   4.568  16.438  0.0177  0.3712  0.3192
14140TIP3    H163835   5.781   4.525  16.523  1.0773 -1.1958 -0.3218
14140TIP3    H263836   5.728   4.641  16.442 -1.1659 -0.6513  1.8001
14141TIP3   OH263837   4.229   3.431   4.649  0.2515 -0.2610 -0.2586
14141TIP3    H163838   4.293   3.493   4.614  0.2825 -0.1826 -0.0653
14141TIP3    H263839   4.151   3.443   4.594  0.0753  0.3234  0.1017
14142TIP3   OH263840   5.709   2.705  15.513 -0.5020 -0.2266 -0.0293
14142TIP3    H163841   5.728   2.719  15.606 -1.0247  0.8676 -0.0662
14142TIP3    H263842   5.647   2.633  15.511 -0.2522 -0.4586  0.4473
14143TIP3   OH263843   6.700   0.845  14.858 -0.3131  0.7515  0.1960
14143TIP3    H163844   6.795   0.842  14.842 -0.3700 -0.6440  0.0124
14143TIP3    H263845   6.685   0.780  14.927 -1.2038  0.5998 -0.1262
14144TIP3   OH263846   6.273   2.695   0.448  0.3729 -0.0505 -0.2407
14144TIP3    H163847   6.334   2.659   0.513 -0.3002  1.5267  1.3077
14144TIP3    H263848   6.252   2.783   0.480 -2.0031 -0.1963 -1.2162
14145TIP3   OH263849   3.526   0.960  13.186  0.6825 -0.0949  0.0494
14145TIP3    H163850   3.503   0.867  13.177  1.8265 -0.2283 -2.1190
14145TIP3    H263851   3.500   0.999  13.103  2.4714  1.0103 -0.0320
14146TIP3   OH263852   6.307   1.326   2.731 -0.0012  0.1876 -0.5840
14146TIP3    H163853   6.282   1.282   2.813 -0.1590 -0.7390 -1.1071
14146TIP3    H263854   6.376   1.271   2.695 -0.0360  0.5093 -1.1439
14147TIP3   OH263855   1.095   1.195   5.834 -0.0216  0.0103  0.0952
14147TIP3    H163856   1.041   1.246   5.774 -0.1927  0.9948  1.0506
14147TIP3    H263857   1.036   1.175   5.907  0.5439 -0.0096  0.5505
14148TIP3   OH263858   5.958   4.979  14.682  0.5849 -0.2608 -0.6404
14148TIP3    H163859   5.905   4.930  14.745  0.4164 -1.2673 -1.5371
14148TIP3    H263860   5.952   5.070  14.711 -0.3155 -0.5740  0.2018
14149TIP3   OH263861   3.524   4.126   1.901  0.0195  0.0653  0.3544
14149TIP3    H163862   3.429   4.121   1.915  0.0080 -0.4528  0.1340
14149TIP3    H263863   3.561   4.066   1.966  0.1313 -0.4210 -0.1467
14150TIP3   OH263864   4.338   1.398  13.225 -0.0372 -0.5738  0.3497
14150TIP3    H163865   4.350   1.306  13.199 -0.7707 -0.9294  1.2069
14150TIP3    H263866   4.387   1.406  13.306  0.4803 -0.0466 -0.0101
14151TIP3   OH263867   2.230   4.720   1.650  0.3599  0.2212  0.0028
14151TIP3    H163868   2.153   4.720   1.707  0.6723  1.0901  0.4490
14151TIP3    H263869   2.293   4.777   1.695  1.2071 -0.3464 -0.4316
14152TIP3   OH263870   4.025   4.134  12.399  0.4335 -0.0866 -0.5282
14152TIP3    H163871   3.961   4.063  12.385 -1.3691  0.9351  1.8800
14152TIP3    H263872   4.090   4.097  12.458  0.2721 -0.1681 -0.4001
14153TIP3   OH263873   0.465   1.908  11.850  0.2450 -0.2849  0.0617
14153TIP3    H163874   0.475   1.969  11.777  2.0833 -1.2390 -0.5342
14153TIP3    H263875   0.389   1.855  11.826 -1.8277  2.0761  0.9044
14154TIP3   OH263876   2.851   3.634   2.396  0.2105 -0.4082  0.0694
14154TIP3    H163877   2.885   3.647   2.307 -1.6541 -1.2759 -0.8166
14154TIP3    H263878   2.885   3.549   2.422 -0.1301 -0.6441 -0.2508
14155TIP3   OH263879   6.212   1.600   5.645  0.0510 -0.0331 -0.9271
14155TIP3    H163880   6.196   1.601   5.740  0.6658 -1.9177 -0.7586
14155TIP3    H263881   6.199   1.691   5.618 -1.4598  0.3147  0.7358
14156TIP3   OH263882   0.617   2.873   5.792 -0.4532  0.5499 -0.0870
14156TIP3    H163883   0.643   2.931   5.864  0.5337 -1.2931  1.1066
14156TIP3    H263884   0.621   2.785   5.829 -0.9051 -0.3801 -2.1260
14157TIP3   OH263885   6.643   1.732   1.718 -0.1116 -0.5336 -0.2766
14157TIP3    H163886   6.638   1.720   1.623  0.4225  0.6931 -0.4793
14157TIP3    H263887   6.652   1.826   1.729  0.5121 -0.7272  0.9742
14158TIP3   OH263888   3.130   6.002  16.890 -0.1868  0.1732 -0.2585
14158TIP3    H163889   3.220   5.969  16.887  0.3257  1.5161 -0.4455
14158TIP3    H263890   3.111   6.011  16.984 -0.1581 -0.1911 -0.2169
14159TIP3   OH263891   1.909   0.151  13.840  0.3812  0.3965 -0.3429
14159TIP3    H163892   1.895   0.059  13.816  2.2008 -0.2544  0.8474
14159TIP3    H263893   1.881   0.200  13.763  0.1117 -1.2071 -1.3161
14160TIP3   OH263894   0.160   3.255  13.666  0.1943 -0.1804  0.1770
14160TIP3    H163895   0.113   3.175  13.644  1.4901 -0.9120 -0.0796
14160TIP3    H263896   0.099   3.304  13.721  0.0382 -2.2658  2.0683
14161TIP3   OH263897   3.582   6.047   2.577 -0.0930 -0.3256 -0.1284
14161TIP3    H163898   3.632   6.000   2.644 -0.0503  0.3266  0.3012
14161TIP3    H263899   3.491   6.023   2.593  0.0609 -1.6147 -0.9868
14162TIP3   OH263900   3.935   2.626   4.320  0.6576 -0.1053 -0.1025
14162TIP3    H163901   3.971   2.548   4.363  2.4628  0.6946 -0.0683
14162TIP3    H263902   3.965   2.699   4.373 -1.5154  0.6266  0.2009
14163TIP3   OH263903   3.107   5.423  14.575  0.4733  0.4494  0.6066
14163TIP3    H163904   3.168   5.462  14.639 -0.2339  2.5157  0.1040
14163TIP3    H263905   3.034   5.391  14.629  0.2990  1.3578  0.9311
14164TIP3   OH263906   5.073   3.367  12.334  0.0187  0.2470 -0.2307
14164TIP3    H163907   5.041   3.452  12.363 -1.8975 -0.7269  0.7771
14164TIP3    H263908   5.074   3.313  12.414  2.9609 -0.2340 -0.4792
14165TIP3   OH263909   0.879   3.404  14.439 -0.5279 -0.1502 -0.2344
14165TIP3    H163910   0.962   3.411  14.486 -0.9531  2.0503  0.2900
14165TIP3    H263911   0.812   3.413  14.507 -1.1882 -0.2830 -0.8557
14166TIP3   OH263912   2.509   1.752  11.955 -0.3966 -0.0750  0.1280
14166TIP3    H163913   2.534   1.662  11.934  0.6636 -0.1694  1.6483
14166TIP3    H263914   2.447   1.743  12.028 -2.7602  0.3178 -1.7062
14167TIP3   OH263915   5.936   0.192   2.867  0.0832  0.1896  0.3202
14167TIP3    H163916   5.931   0.117   2.808  2.4163  1.0553 -1.1397
14167TIP3    H263917   5.869   0.252   2.835 -1.2086 -0.8668  0.9564
14168TIP3   OH263918   1.261   3.216   0.527  0.0148 -0.4735 -0.2674
14168TIP3    H163919   1.196   3.284   0.510  0.5086  0.0637 -0.0302
14168TIP3    H263920   1.282   3.181   0.440 -1.3178 -1.3635 -0.2743
14169TIP3   OH263921   3.501   5.439  17.058 -0.8289 -0.0982  0.2290
14169TIP3    H163922   3.490   5.497  17.134  0.5428  2.2828 -1.2597
14169TIP3    H263923   3.592   5.450  17.032 -0.7159 -2.4245 -0.6148
14170TIP3   OH263924   3.536   5.812   2.000 -0.2515  0.9072 -0.3190
14170TIP3    H163925   3.507   5.831   1.911  0.7524  1.0942 -0.6122
14170TIP3    H263926   3.550   5.717   2.002  0.0798  0.9536 -0.4645
14171TIP3   OH263927   6.185   2.589   2.417  0.3113  0.2387 -0.3043
14171TIP3    H163928   6.238   2.614   2.492  0.4563  0.3500 -0.4426
14171TIP3    H263929   6.245   2.538   2.362  0.0101 -0.4338 -0.0097
14172TIP3   OH263930   2.809   5.041  14.814 -0.2717 -0.2021  0.5574
14172TIP3    H163931   2.773   4.999  14.892  1.3344 -0.5336  1.1409
14172TIP3    H263932   2.868   4.976  14.776  1.4690  1.0919  0.9044
14173TIP3   OH263933   5.610   3.679   3.811  0.0520  0.2347  0.1554
14173TIP3    H163934   5.533   3.707   3.760 -0.9233 -1.2041  0.7811
14173TIP3    H263935   5.675   3.748   3.796 -1.8847  2.3390  0.8714
14174TIP3   OH263936   0.835   0.622  11.924 -0.0264  0.0989 -0.7194
14174TIP3    H163937   0.789   0.569  11.859  0.6303  0.2364 -1.2985
14174TIP3    H263938   0.927   0.598  11.914 -0.1063 -1.6356  1.7550
14175TIP3   OH263939   2.053   5.826  13.150  0.0941 -0.6992 -0.1392
14175TIP3    H163940   2.114   5.814  13.077 -1.3459 -0.0702 -1.5056
14175TIP3    H263941   2.049   5.921  13.162  0.9701 -0.8199  1.3799
14176TIP3   OH263942   2.650   6.640  12.126  0.0755  0.3117 -0.1426
14176TIP3    H163943   2.608   6.572  12.179 -1.9239 -0.5845 -2.6774
14176TIP3    H263944   2.607   6.721  12.154 -2.0500 -0.3382 -1.2805
14177TIP3   OH263945   5.845   6.492   3.334 -0.0501 -0.3015  0.0204
14177TIP3    H163946   5.885   6.505   3.420 -0.1993  1.9656 -0.1735
14177TIP3    H263947   5.754   6.518   3.346 -0.4142 -1.2823 -0.5315
14178TIP3   OH263948   4.909   1.236   2.155  0.0022 -0.5780  0.1693
14178TIP3    H163949   4.951   1.190   2.082 -0.4577 -0.5937 -0.0951
14178TIP3    H263950   4.867   1.312   2.114  1.5559  0.6293  0.7412
14179TIP3   OH263951   5.044   2.582   5.113 -0.2216  0.3299 -0.7802
14179TIP3    H163952   5.132   2.594   5.147 -0.2573 -1.9934  0.2639
14179TIP3    H263953   5.001   2.666   5.129  1.8000  1.5742 -1.4670
14180TIP3   OH263954   1.907   0.327  12.384  0.1145 -0.2302 -0.3625
14180TIP3    H163955   2.000   0.308  12.399  0.4850 -0.1063 -2.2864
14180TIP3    H263956   1.878   0.260  12.323 -0.9175  0.1056 -0.2608
14181TIP3   OH263957   3.743   6.225   2.703 -0.8589 -0.2117  0.5266
14181TIP3    H163958   3.714   6.142   2.665 -0.3506 -0.7930  1.3727
14181TIP3    H263959   3.813   6.255   2.646 -1.2244 -0.2329  0.0669
14182TIP3   OH263960   0.969   2.457  11.240  0.5705  0.5292 -0.8629
14182TIP3    H163961   1.062   2.450  11.215  0.9382  1.7739  0.0880
14182TIP3    H263962   0.930   2.376  11.207  2.0024 -0.0455 -1.2410
14183TIP3   OH263963   0.038   4.032  14.362  0.1293 -0.0089  0.0291
14183TIP3    H163964   0.089   4.080  14.428 -0.6221  0.0053  0.6071
14183TIP3    H263965   0.069   4.068  14.278  2.1195 -1.0083  0.2614
14184TIP3   OH263966   6.775   1.247   3.586 -0.2086 -0.1844  0.8415
14184TIP3    H163967   6.685   1.273   3.568  0.2499  2.5704  1.9522
14184TIP3    H263968   6.767   1.180   3.654 -1.4402 -1.4537 -0.4901
14185TIP3   OH263969   4.013   4.533   6.098  0.3652 -0.2199 -0.3361
14185TIP3    H163970   4.010   4.485   6.015 -1.7487  0.8790 -0.9520
14185TIP3    H263971   3.933   4.507   6.143  0.3883  0.8969  0.3721
14186TIP3   OH263972   5.997   5.944   0.147 -0.4686  0.0738 -0.2163
14186TIP3    H163973   6.010   5.967   0.055  1.3406 -0.6469 -0.1856
14186TIP3    H263974   6.014   6.025   0.195 -1.4709  0.4649 -0.5131
14187TIP3   OH263975   6.123   5.510  13.112 -0.1720 -0.1776 -0.4305
14187TIP3    H163976   6.138   5.603  13.126 -2.5015  0.6553 -2.7503
14187TIP3    H263977   6.153   5.468  13.193  0.9634  2.5330  0.6634
14188TIP3   OH263978   2.951   2.523  16.821  0.1361  0.3289  0.5063
14188TIP3    H163979   3.013   2.456  16.849 -2.1881 -1.4697  1.7582
14188TIP3    H263980   2.969   2.598  16.877  0.8865 -0.3180  1.1506
14189TIP3   OH263981   3.131   3.465   1.651  0.3996  0.2687  0.6341
14189TIP3    H163982   3.106   3.556   1.640 -1.6034 -0.2517  0.3497
14189TIP3    H263983   3.224   3.467   1.673  0.1838  2.4089  1.5542
14190TIP3   OH263984   0.273   6.304  12.804  0.3214 -0.2368  0.1632
14190TIP3    H163985   0.215   6.363  12.756  0.2201 -0.7095 -0.2952
14190TIP3    H263986   0.276   6.341  12.892 -1.3045 -0.6275  0.4187
14191TIP3   OH263987   5.604   1.403   4.981  0.0577  0.1503 -0.1562
14191TIP3    H163988   5.531   1.447   5.025  0.9094  0.0473  1.4641
14191TIP3    H263989   5.656   1.473   4.942  0.9952  0.5855  1.7565
14192TIP3   OH263990   5.546   0.800   0.907 -0.3316  0.4031  0.5008
14192TIP3    H163991   5.482   0.751   0.856  0.1594  0.3633 -0.0867
14192TIP3    H263992   5.630   0.759   0.887 -0.2739 -0.6349  2.5463
14193TIP3   OH263993   2.524   4.262   3.258  0.0481 -0.1576  0.3191
14193TIP3    H163994   2.549   4.347   3.295  0.5115 -0.2824  0.2961
14193TIP3    H263995   2.534   4.273   3.164  0.8491 -0.4691  0.3620
14194TIP3   OH263996   2.113   0.838   0.634  0.6447  0.5673 -0.1532
14194TIP3    H163997   2.088   0.825   0.726  0.4687 -1.1461 -0.4214
14194TIP3    H263998   2.040   0.888   0.597 -0.5661 -1.0230  0.0120
14195TIP3   OH263999   6.201   0.028   1.921  0.0050  0.0140 -0.4842
14195TIP3    H164000   6.182  -0.064   1.900  3.6487 -0.9642 -0.1507
14195TIP3    H264001   6.243   0.062   1.842  0.4642  0.7624  0.0702
14196TIP3   OH264002   3.230   6.072  15.621 -0.1519 -0.7024  0.9817
14196TIP3    H164003   3.141   6.043  15.638 -0.9407  1.1766  0.3669
14196TIP3    H264004   3.233   6.162  15.654  0.5567  0.3410 -1.6113
14197TIP3   OH264005   0.306   3.837  13.463  0.0793  0.1024  0.5064
14197TIP3    H164006   0.340   3.752  13.491  1.2516  0.2574 -0.4041
14197TIP3    H264007   0.372   3.901  13.492  0.0225  0.5265 -0.2808
14198TIP3   OH264008   1.704   2.545  16.932  0.3417 -0.7996 -0.1834
14198TIP3    H164009   1.616   2.527  16.965  1.1731 -2.9303  1.0264
14198TIP3    H264010   1.726   2.469  16.879  1.0809  0.1995 -1.3661
14199TIP3   OH264011   6.329   3.776  11.685  0.0992 -0.0476 -0.4184
14199TIP3    H164012   6.291   3.851  11.732 -2.3245  0.6891 -3.2446
14199TIP3    H264013   6.372   3.815  11.609  0.1570 -1.4347 -1.1296
14200TIP3   OH264014   2.150   6.250  17.078 -0.2334 -0.3467 -0.0507
14200TIP3    H164015   2.125   6.329  17.126  1.7411  0.6155 -0.4973
14200TIP3    H264016   2.147   6.277  16.986  1.0108 -0.6022 -0.1758
14201TIP3   OH264017   0.098   0.103  16.131  0.2691  0.3212 -0.2038
14201TIP3    H164018   0.131   0.152  16.056 -0.3952  0.4240 -0.4329
14201TIP3    H264019   0.025   0.156  16.164 -0.2753 -0.3787 -0.2774
14202TIP3   OH264020   4.890   5.152  14.722  0.3684  0.3904 -0.4585
14202TIP3    H164021   4.877   5.137  14.628  0.5076  1.0447 -0.5891
14202TIP3    H264022   4.813   5.113  14.763 -0.4301  1.3602 -0.9685
14203TIP3   OH264023   2.940   1.841   4.452  0.0791 -0.2516 -0.2644
14203TIP3    H164024   3.028   1.867   4.427  0.3662 -0.3620  0.6069
14203TIP3    H264025   2.951   1.756   4.495 -0.7664 -1.6274 -2.5796
14204TIP3   OH264026   5.957   4.150  15.445  0.1063 -0.5896  0.0734
14204TIP3    H164027   6.024   4.097  15.402 -1.2216 -2.7840  0.5958
14204TIP3    H264028   5.893   4.087  15.477 -1.5552  1.3471  0.7497
14205TIP3   OH264029   5.493   1.822  14.081  0.1333 -0.4062  0.0364
14205TIP3    H164030   5.456   1.894  14.132 -0.6144 -0.1835 -0.8099
14205TIP3    H264031   5.419   1.764  14.064 -0.0010  0.3159 -2.1327
14206TIP3   OH264032   5.794   6.009  17.035  0.3247  0.0720  0.0252
14206TIP3    H164033   5.795   6.001  16.940  0.7364 -1.8917  0.1557
14206TIP3    H264034   5.701   6.014  17.059  0.2190  0.4206 -0.4465
14207TIP3   OH264035   2.026   4.528   6.604 -0.2991 -0.0793 -0.0246
14207TIP3    H164036   2.033   4.503   6.512  0.5335  1.1060 -0.3065
14207TIP3    H264037   2.047   4.621   6.606  0.8459 -0.3134  1.4988
14208TIP3   OH264038   5.421   4.429   2.093 -0.1239  0.3325  0.2001
14208TIP3    H164039   5.409   4.395   2.181 -0.6578 -0.0668 -0.0221
14208TIP3    H264040   5.483   4.501   2.103 -0.4726  0.5340  0.9531
14209TIP3   OH264041   6.190   5.053   1.096 -0.0390  0.3561 -0.1862
14209TIP3    H164042   6.241   4.975   1.118  2.3043  1.8326  0.0942
14209TIP3    H264043   6.114   5.049   1.154  0.4179 -1.3089  0.3591
14210TIP3   OH264044   5.866   4.437  11.863  0.2211  0.7636 -0.0467
14210TIP3    H164045   5.893   4.454  11.773  2.3152 -1.2352  0.1114
14210TIP3    H264046   5.776   4.405  11.856  0.2512  0.9498 -1.3889
14211TIP3   OH264047   2.699   1.637  12.927 -0.0141  0.0618  0.7358
14211TIP3    H164048   2.740   1.592  13.000 -1.0832 -1.8533  0.2302
14211TIP3    H264049   2.722   1.585  12.850 -0.1450  1.1835 -0.1043
14212TIP3   OH264050   5.773   4.069   2.916  0.4572 -0.5104  0.4073
14212TIP3    H164051   5.761   3.984   2.874  1.7433 -0.8438  0.6722
14212TIP3    H264052   5.821   4.121   2.851 -0.6123  0.1410  0.1141
14213TIP3   OH264053   0.314   2.875   4.657 -0.2811 -0.3940 -0.1354
14213TIP3    H164054   0.234   2.875   4.709  0.2306 -1.2687  0.6714
14213TIP3    H264055   0.284   2.883   4.566 -1.4005 -2.4167  0.0169
14214TIP3   OH264056   2.946   5.862  14.202 -0.2725 -0.5712 -0.0944
14214TIP3    H164057   3.009   5.809  14.154 -0.2819 -0.7834  0.1237
14214TIP3    H264058   2.926   5.811  14.281 -0.3330 -0.2743  0.0873
14215TIP3   OH264059   4.620   5.951   3.411 -0.0110  0.1603  0.1005
14215TIP3    H164060   4.656   5.942   3.323  1.7598 -0.2211  0.8297
14215TIP3    H264061   4.624   6.045   3.429 -1.6959  0.4263 -0.7197
14216TIP3   OH264062   0.321   2.734   5.591 -0.3089  0.2360  0.3881
14216TIP3    H164063   0.366   2.749   5.508 -0.5301  0.0714  0.2390
14216TIP3    H264064   0.308   2.821   5.627 -1.5972  0.4308 -0.4777
14217TIP3   OH264065   2.030   0.728  15.658  0.0414 -0.2735 -0.3280
14217TIP3    H164066   2.015   0.779  15.579  2.3919  2.1195  0.6282
14217TIP3    H264067   2.111   0.680  15.641  0.1645 -0.3156  0.3383
14218TIP3   OH264068   2.319   5.312   0.828 -0.0193  0.0619  0.2905
14218TIP3    H164069   2.407   5.334   0.859  0.5768 -0.6543 -0.8518
14218TIP3    H264070   2.292   5.388   0.777  1.2196 -0.8833 -1.9385
14219TIP3   OH264071   4.838   0.867   5.227  0.3732 -0.1084 -0.6437
14219TIP3    H164072   4.902   0.907   5.287  0.7923  1.4596 -2.0451
14219TIP3    H264073   4.764   0.845   5.283  0.8580  1.0394  0.5263
14220TIP3   OH264074   5.158   5.190  13.697  0.2859 -0.1200  0.2074
14220TIP3    H164075   5.197   5.112  13.737 -0.6911 -0.8139 -0.1592
14220TIP3    H264076   5.218   5.212  13.625 -0.9633 -2.3836 -1.6453
14221TIP3   OH264077   0.722   2.755  13.643 -0.4197 -0.4376  0.4887
14221TIP3    H164078   0.690   2.679  13.690 -1.8310 -0.9386 -1.1404
14221TIP3    H264079   0.676   2.752  13.559  1.1105  1.0161 -0.4762
14222TIP3   OH264080   3.660   6.163  14.528 -0.2550 -0.2517  0.1802
14222TIP3    H164081   3.579   6.134  14.485 -0.9082 -1.2030  1.9051
14222TIP3    H264082   3.702   6.082  14.556  0.1562  0.3085  1.2508
14223TIP3   OH264083   2.552   3.110  13.988  0.1417  0.1625 -0.3009
14223TIP3    H164084   2.511   3.197  13.995  0.3541  0.1624  1.6786
14223TIP3    H264085   2.538   3.071  14.075 -0.7893 -2.1779 -1.4197
14224TIP3   OH264086   3.134   4.788   2.505 -0.0499 -0.0704 -0.1348
14224TIP3    H164087   3.045   4.812   2.477 -0.1574  0.5281  0.6724
14224TIP3    H264088   3.184   4.869   2.496  0.3944 -0.3855 -0.5069
14225TIP3   OH264089   2.289   3.198  14.561 -0.2804  0.6868 -0.3067
14225TIP3    H164090   2.336   3.255  14.501 -3.7775  1.3075 -2.7461
14225TIP3    H264091   2.217   3.162  14.509 -1.2967 -1.8446  2.5441
14226TIP3   OH264092   4.258   1.491   2.861 -0.4882  0.1964 -0.0468
14226TIP3    H164093   4.167   1.518   2.850  0.0150  1.0605 -2.9338
14226TIP3    H264094   4.306   1.573   2.871 -0.0146 -0.2749  2.1137
14227TIP3   OH264095   5.922   5.549  15.880 -0.1721 -0.1511 -0.3881
14227TIP3    H164096   5.927   5.644  15.866 -1.6828 -0.2048 -1.5282
14227TIP3    H264097   5.862   5.538  15.953  1.7792 -0.1979  1.3158
14228TIP3   OH264098   1.856   1.578   2.142  0.1534  0.2869  0.0670
14228TIP3    H164099   1.823   1.662   2.174 -2.7834 -0.8080  0.1674
14228TIP3    H264100   1.814   1.513   2.198 -0.5172 -1.4022 -2.2825
14229TIP3   OH264101   3.561   5.232   2.393  0.4984  0.1582 -0.4039
14229TIP3    H164102   3.497   5.268   2.454  0.3613  0.3755 -0.6738
14229TIP3    H264103   3.638   5.288   2.402  1.1047 -0.8238  0.8065
14230TIP3   OH264104   3.788   1.576  16.734  0.0543  0.3120 -0.1809
14230TIP3    H164105   3.861   1.625  16.772  1.1362 -0.2249 -1.4829
14230TIP3    H264106   3.712   1.632  16.747  0.8359  1.2360  0.5348
14231TIP3   OH264107   5.219   5.478  17.230  0.1598 -0.2697 -0.2479
14231TIP3    H164108   5.228   5.572  17.214  1.1987 -0.6117 -1.9646
14231TIP3    H264109   5.125   5.461  17.217  0.0777  0.4268 -0.6536
14232TIP3   OH264110   0.613   0.465  14.236 -0.0268 -0.2121 -0.8815
14232TIP3    H164111   0.645   0.377  14.218 -1.6381 -0.9522 -0.3541
14232TIP3    H264112   0.579   0.496  14.152 -0.5219 -0.5666 -0.8130
14233TIP3   OH264113   5.498   1.333  11.268 -0.1152 -0.4243 -0.0048
14233TIP3    H164114   5.518   1.387  11.191  1.3365 -2.2729 -1.0252
14233TIP3    H264115   5.583   1.296  11.294 -0.6367 -0.1415  2.3017
14234TIP3   OH264116   1.340   4.909  16.055 -0.6617 -0.3282  0.0181
14234TIP3    H164117   1.327   4.948  16.142 -0.1232 -2.6006  1.1791
14234TIP3    H264118   1.265   4.851  16.044 -0.2280 -0.7717 -0.6246
14235TIP3   OH264119   1.283   6.357  11.204  0.2687 -0.1004  0.2542
14235TIP3    H164120   1.341   6.414  11.154  2.3593 -1.3614  1.0918
14235TIP3    H264121   1.297   6.270  11.167  0.0649 -0.6752  1.4754
14236TIP3   OH264122   1.314   6.346  13.709 -0.1895  0.0541 -0.5282
14236TIP3    H164123   1.401   6.312  13.690  0.1029 -0.0589  0.9157
14236TIP3    H264124   1.259   6.268  13.721 -0.0122  0.0868  0.5955
14237TIP3   OH264125   0.650   6.201  12.169 -0.3007  0.0472  0.1621
14237TIP3    H164126   0.573   6.157  12.133  0.9779 -1.1184 -1.2756
14237TIP3    H264127   0.716   6.195  12.100  1.1568  0.8358  1.4175
14238TIP3   OH264128   6.729   5.805  11.005 -0.0130  0.2674 -0.0871
14238TIP3    H164129   6.797   5.754  10.960  0.3295  1.0988 -0.5163
14238TIP3    H264130   6.698   5.746  11.074  0.2154 -0.6164 -0.7098
14239TIP3   OH264131   6.261   3.751  15.683  0.5435 -0.1843  0.2574
14239TIP3    H164132   6.273   3.693  15.758  0.5693  0.5980  0.8842
14239TIP3    H264133   6.313   3.829  15.705 -0.0433  0.3543 -0.2270
14240TIP3   OH264134   2.689   2.144   3.068 -0.3544 -0.4765 -0.7917
14240TIP3    H164135   2.682   2.050   3.079  0.1221 -0.4582 -0.2864
14240TIP3    H264136   2.654   2.181   3.149  0.0805 -0.2403 -0.7074
14241TIP3   OH264137   1.810   1.875   4.657  0.2476 -0.5531  0.5915
14241TIP3    H164138   1.859   1.844   4.580  0.4675 -2.9806  1.6222
14241TIP3    H264139   1.876   1.917   4.711  0.4062 -0.2511  0.1710
14242TIP3   OH264140   3.390   6.217   5.308 -0.0422  0.0900 -0.0194
14242TIP3    H164141   3.316   6.160   5.327 -1.0071  0.6242 -1.9586
14242TIP3    H264142   3.351   6.302   5.288  1.1888  0.7483  0.2749
14243TIP3   OH264143   3.629   0.426   3.151  0.1845 -0.0011  0.7299
14243TIP3    H164144   3.676   0.411   3.233 -0.3818  0.2210  1.1004
14243TIP3    H264145   3.548   0.468   3.177  1.8598  4.3810 -0.2505
14244TIP3   OH264146   6.405   0.868   2.955  0.0871 -0.1704  0.5171
14244TIP3    H164147   6.410   0.920   2.875 -0.7979 -0.0303  0.5386
14244TIP3    H264148   6.318   0.888   2.991 -0.6167 -2.2737  0.0929
14245TIP3   OH264149   5.576   2.969  12.276 -0.1535 -0.1840  0.6551
14245TIP3    H164150   5.648   2.921  12.317 -1.0309 -0.5052  1.8903
14245TIP3    H264151   5.562   2.924  12.193  1.1673 -0.0012  0.3080
14246TIP3   OH264152   0.621   5.571   4.314  0.5759 -1.2033  0.5026
14246TIP3    H164153   0.633   5.479   4.291  2.2564 -1.0070  0.4784
14246TIP3    H264154   0.574   5.609   4.239  0.0332 -1.9848  0.4388
14247TIP3   OH264155   1.296   4.774   5.488 -0.0777  0.5286 -0.2371
14247TIP3    H164156   1.324   4.860   5.457 -0.2300  1.4354  1.9701
14247TIP3    H264157   1.261   4.790   5.576  1.7121 -2.0518  1.0928
14248TIP3   OH264158   1.729   3.454   4.159 -0.4459 -0.0881  0.1895
14248TIP3    H164159   1.761   3.420   4.076  1.0860 -0.7486  1.0117
14248TIP3    H264160   1.657   3.395   4.183 -0.2589 -0.4768 -0.2012
14249TIP3   OH264161   5.690   1.118  11.337  0.3719 -0.2159 -0.6124
14249TIP3    H164162   5.761   1.156  11.286  0.0880  1.9097  0.4633
14249TIP3    H264163   5.646   1.058  11.276  1.9370 -0.1758 -1.8460
14250TIP3   OH264164   4.786   3.219  11.575 -0.0917  0.6880  0.8101
14250TIP3    H164165   4.754   3.192  11.489  1.7188 -1.4491  0.6956
14250TIP3    H264166   4.877   3.247  11.559  0.5786 -0.6035  2.0826
14251TIP3   OH264167   1.716   6.425   1.999 -0.2633  0.6284 -0.0091
14251TIP3    H164168   1.805   6.460   2.004 -1.0050  2.8078 -0.7086
14251TIP3    H264169   1.678   6.467   1.922 -2.1509  0.4046  0.7456
14252TIP3   OH264170   4.642   1.615  13.072  0.1919 -0.1423 -0.6843
14252TIP3    H164171   4.549   1.608  13.053 -0.2288  2.1048  0.2714
14252TIP3    H264172   4.648   1.611  13.167  1.1735 -0.9202 -0.7577
14253TIP3   OH264173   0.380   3.622   5.933  0.3468 -0.4915  0.4643
14253TIP3    H164174   0.434   3.591   5.860  0.8924 -0.4265  0.8370
14253TIP3    H264175   0.394   3.716   5.935  0.8104 -0.5715  1.0354
14254TIP3   OH264176   0.431   3.974  15.706 -0.4207 -0.4136  0.0929
14254TIP3    H164177   0.379   3.894  15.690 -2.0908  0.8485 -1.1260
14254TIP3    H264178   0.427   3.985  15.801 -0.5804 -1.5029  0.2322
14255TIP3   OH264179   5.297   2.233   4.937  0.3973  0.5073  0.4615
14255TIP3    H164180   5.293   2.225   4.842 -0.0709  1.3246  0.4032
14255TIP3    H264181   5.389   2.218   4.958  0.4904  0.2478 -0.1112
14256TIP3   OH264182   5.804   1.510  15.820 -0.4163 -0.5492 -0.6052
14256TIP3    H164183   5.824   1.425  15.780  3.0341  0.1211 -0.5679
14256TIP3    H264184   5.795   1.569  15.745 -0.2021 -0.4724 -0.5712
14257TIP3   OH264185   4.081   4.475   3.415 -0.0391  0.0465 -0.1910
14257TIP3    H164186   4.110   4.417   3.485 -0.9635 -0.6701 -0.3877
14257TIP3    H264187   4.161   4.520   3.387  0.3299  0.4695  1.4164
14258TIP3   OH264188   2.465   6.283  16.776  0.3330  0.1503 -0.2874
14258TIP3    H164189   2.468   6.307  16.683  1.3535 -0.8019 -0.5179
14258TIP3    H264190   2.399   6.214  16.781  0.1590  0.3179 -0.2792
14259TIP3   OH264191   2.417   5.042   1.291  0.3761 -0.2889 -0.1045
14259TIP3    H164192   2.436   5.010   1.380 -0.7406 -0.5476  0.0502
14259TIP3    H264193   2.393   4.964   1.242  0.7371 -0.1077 -0.5768
14260TIP3   OH264194   5.580   0.047  11.368 -0.0722  0.0450  0.6132
14260TIP3    H164195   5.645   0.054  11.297 -2.7216 -0.6229 -2.0892
14260TIP3    H264196   5.608  -0.030  11.418  1.7745  0.4132  0.2308
14261TIP3   OH264197   5.413   6.343   1.582  0.3876  0.5384  0.3919
14261TIP3    H164198   5.338   6.383   1.625  1.0758  0.7890  1.3901
14261TIP3    H264199   5.375   6.280   1.520 -0.6343 -0.5519  2.0399
14262TIP3   OH264200   5.863   3.602   0.545  0.0702 -0.3750  0.4037
14262TIP3    H164201   5.882   3.563   0.460 -1.7643 -0.2033 -0.1349
14262TIP3    H264202   5.903   3.689   0.542  0.7232 -0.6864  0.0417
14263TIP3   OH264203   4.346   6.494   1.398  0.4558  0.0206  0.0828
14263TIP3    H164204   4.383   6.410   1.423 -2.7118 -1.5413  0.0023
14263TIP3    H264205   4.365   6.502   1.304 -1.9186 -2.3234 -0.7403
14264TIP3   OH264206   6.135   5.335   2.433 -0.3660 -0.7445 -0.1649
14264TIP3    H164207   6.192   5.317   2.358 -1.2856 -0.3828 -0.9700
14264TIP3    H264208   6.094   5.250   2.453 -1.6764 -0.4536 -1.4163
14265TIP3   OH264209   3.740   3.163  11.138  0.2550  0.0051 -0.5621
14265TIP3    H164210   3.825   3.206  11.132 -0.1897  0.7841 -1.4664
14265TIP3    H264211   3.704   3.167  11.050 -0.8916  0.0635 -0.1162
14266TIP3   OH264212   5.547   3.442   1.968  0.1682 -0.4866  0.0547
14266TIP3    H164213   5.499   3.366   2.001  1.4279 -1.0060  0.7478
14266TIP3    H264214   5.636   3.431   2.002  0.3950  1.2616  0.1171
14267TIP3   OH264215   2.449   5.590  12.998 -0.5201 -0.2943 -0.0955
14267TIP3    H164216   2.355   5.574  12.990 -1.0539  1.2922  2.0279
14267TIP3    H264217   2.477   5.534  13.070 -0.0313 -0.0795 -0.1134
14268TIP3   OH264218   0.479   3.523  13.290 -0.0947  0.2584  0.2615
14268TIP3    H164219   0.460   3.603  13.241  2.2155  0.6486 -0.1235
14268TIP3    H264220   0.468   3.452  13.227  2.8579  0.7563 -0.9721
14269TIP3   OH264221   1.023   6.358  14.522 -0.3805  0.0860 -0.5330
14269TIP3    H164222   1.079   6.298  14.572 -0.1046  0.3802 -0.4841
14269TIP3    H264223   0.937   6.318  14.525 -0.1572 -0.4181 -0.6817
14270TIP3   OH264224   1.656   2.863  15.985  0.2091  0.3854  0.0140
14270TIP3    H164225   1.738   2.835  16.024  0.3516  0.6078 -0.1227
14270TIP3    H264226   1.661   2.959  15.984  1.1679  0.3834 -2.5064
14271TIP3   OH264227   4.188   1.087  11.943  0.4122 -0.2119  0.0045
14271TIP3    H164228   4.211   1.111  12.033 -1.1428 -0.8209  0.6008
14271TIP3    H264229   4.100   1.050  11.950  1.2109 -2.5710 -1.4183
14272TIP3   OH264230   0.175   0.702  13.718 -0.3693 -0.2376 -0.5851
14272TIP3    H164231   0.239   0.651  13.667 -1.8579 -2.2667 -0.5106
14272TIP3    H264232   0.201   0.689  13.809 -1.6302 -2.2368 -0.4583
14273TIP3   OH264233   2.041   3.396   0.455 -0.0822 -0.4088  0.0030
14273TIP3    H164234   1.971   3.461   0.452  1.0826  0.9154 -3.1877
14273TIP3    H264235   1.998   3.314   0.479 -2.6007  0.5181 -1.0417
14274TIP3   OH264236   0.186   6.398   4.884 -0.3579 -0.1007 -0.2535
14274TIP3    H164237   0.179   6.329   4.950 -0.3336 -1.1299 -1.2924
14274TIP3    H264238   0.107   6.451   4.897  0.9005  1.3186  2.2969
14275TIP3   OH264239   4.953   3.482   2.058 -0.1022 -0.1370  0.5892
14275TIP3    H164240   5.008   3.409   2.030 -1.1545 -0.5530 -0.4933
14275TIP3    H264241   4.886   3.442   2.114 -1.0932 -0.1397 -0.5650
14276TIP3   OH264242   2.511   3.412  11.316  0.0909  0.1569 -0.1809
14276TIP3    H164243   2.454   3.457  11.378 -0.2918  0.8458 -1.0209
14276TIP3    H264244   2.599   3.421  11.354  0.1573  2.3344 -0.6815
14277TIP3   OH264245   1.958   3.980  15.320 -0.2419 -1.0764 -0.3337
14277TIP3    H164246   2.007   4.052  15.281  0.4535 -1.2873  0.1171
14277TIP3    H264247   2.017   3.945  15.387 -0.8401 -1.6267 -0.0831
14278TIP3   OH264248   6.602   1.661   3.208 -0.2446 -0.0847 -0.1108
14278TIP3    H164249   6.641   1.729   3.264 -0.7727  0.4558 -0.3874
14278TIP3    H264250   6.672   1.598   3.195  0.7157  1.0981 -0.9900
14279TIP3   OH264251   3.331   3.251  14.583  0.1341  0.0115  0.1696
14279TIP3    H164252   3.373   3.167  14.598 -1.0179 -0.5211  0.5314
14279TIP3    H264253   3.367   3.281  14.500 -0.0314 -1.2221 -0.3702
14280TIP3   OH264254   4.258   5.887   6.476 -0.1081  0.3687  0.1544
14280TIP3    H164255   4.213   5.806   6.502  0.9840 -0.9640 -1.8657
14280TIP3    H264256   4.341   5.884   6.524  0.8613 -0.8677 -1.4915
14281TIP3   OH264257   3.588   2.274  14.276 -0.1813  0.3973 -0.0079
14281TIP3    H164258   3.619   2.336  14.210 -2.6152  0.7162 -0.9332
14281TIP3    H264259   3.575   2.193  14.227  1.1665 -0.3713  0.8214
14282TIP3   OH264260   4.836   5.833   5.511  0.3730  0.2834  0.2019
14282TIP3    H164261   4.839   5.761   5.573  1.1819 -0.9120 -1.1616
14282TIP3    H264262   4.918   5.881   5.525  2.0549 -1.7585 -1.8840
14283TIP3   OH264263   1.238   6.316  16.494 -0.0652 -0.3687  0.0479
14283TIP3    H164264   1.178   6.252  16.532  0.7930 -1.0198  0.3364
14283TIP3    H264265   1.279   6.271  16.421 -0.8171  0.4872 -0.9452
14284TIP3   OH264266   4.724   5.501  15.910  0.3735  0.1831 -0.0816
14284TIP3    H164267   4.704   5.439  15.840 -0.7308 -1.9458  2.0058
14284TIP3    H264268   4.639   5.530  15.942  0.8084  0.0225  1.2756
14285TIP3   OH264269   0.344   3.066  16.555 -0.6483  0.1392  0.1474
14285TIP3    H164270   0.270   3.013  16.527  0.0416 -0.8596  0.1432
14285TIP3    H264271   0.320   3.155  16.532 -2.0298 -0.1082  0.5481
14286TIP3   OH264272   1.514   3.865  14.592 -0.1731 -0.0424 -0.2955
14286TIP3    H164273   1.574   3.863  14.667 -1.0884 -0.6479  0.4427
14286TIP3    H264274   1.449   3.932  14.616 -0.2053  0.0959 -0.7648
14287TIP3   OH264275   2.827   2.036   5.295 -0.6862 -0.7134  0.0846
14287TIP3    H164276   2.835   1.975   5.223  2.2846  1.1593 -1.3826
14287TIP3    H264277   2.804   2.119   5.254 -0.5982  0.0446  1.4868
14288TIP3   OH264278   5.627   6.292   6.058 -0.2633 -0.5788 -0.1998
14288TIP3    H164279   5.650   6.200   6.069  0.3990 -0.5196 -1.0352
14288TIP3    H264280   5.698   6.340   6.101 -0.8972 -0.4516  0.7409
14289TIP3   OH264281   4.862   5.998   0.187  0.0141 -0.4627  0.9603
14289TIP3    H164282   4.850   6.093   0.187  1.1538 -0.2903  0.0798
14289TIP3    H264283   4.813   5.967   0.111  0.2066 -0.4849  0.8436
14290TIP3   OH264284   3.837   4.719  13.593 -0.0588  0.7798  0.4653
14290TIP3    H164285   3.829   4.640  13.540 -1.4288  0.2509  1.4007
14290TIP3    H264286   3.890   4.693  13.669  0.4441  1.0730  0.2214
14291TIP3   OH264287   0.936   3.154   2.359 -0.1694  0.4438 -0.0132
14291TIP3    H164288   0.856   3.204   2.375 -0.1038  0.7555 -0.6358
14291TIP3    H264289   1.004   3.220   2.346 -0.4195  0.3135 -2.6898
14292TIP3   OH264290   6.426   2.650   1.307 -0.0388  0.1269  0.4776
14292TIP3    H164291   6.476   2.711   1.360 -1.3540  0.1091  1.8376
14292TIP3    H264292   6.405   2.578   1.368 -0.6453 -0.4500 -0.3878
14293TIP3   OH264293   5.723   5.056  11.387 -0.2727 -0.4460 -0.0860
14293TIP3    H164294   5.807   5.074  11.430  0.2922 -0.0984 -1.2813
14293TIP3    H264295   5.729   4.963  11.361 -0.2994 -0.4534 -0.0645
14294TIP3   OH264296   1.315   3.563   5.840  0.1833 -0.1295  0.0865
14294TIP3    H164297   1.246   3.520   5.789  1.5511 -3.0450  0.5002
14294TIP3    H264298   1.380   3.494   5.855  1.3566  1.4470  3.0280
14295TIP3   OH264299   1.932   3.373   0.967 -0.8343  0.0732  0.5705
14295TIP3    H164300   1.894   3.292   0.934 -0.5495 -0.1377  0.7465
14295TIP3    H264301   1.959   3.421   0.889  0.2248 -0.6127  0.4938
14296TIP3   OH264302   0.349   1.285  13.213  0.4243 -0.2809 -0.2954
14296TIP3    H164303   0.263   1.244  13.223  0.4668 -0.2142  0.3381
14296TIP3    H264304   0.363   1.287  13.118 -0.2852 -0.2712 -0.4086
14297TIP3   OH264305   1.524   3.728  13.614 -0.2251 -0.3351 -0.4512
14297TIP3    H164306   1.535   3.649  13.562 -1.0706 -0.8879  0.1905
14297TIP3    H264307   1.439   3.764  13.587  0.2375  0.4757 -0.8815
14298TIP3   OH264308   0.667   2.343   3.015  0.0784  1.0211 -0.1350
14298TIP3    H164309   0.578   2.319   2.987  0.7478 -0.2786 -1.3075
14298TIP3    H264310   0.678   2.299   3.099  0.6688 -1.5640 -1.4564
14299TIP3   OH264311   4.242   3.235   2.342 -0.5907 -0.4118 -0.4338
14299TIP3    H164312   4.272   3.306   2.399 -0.5834  1.0644 -2.1743
14299TIP3    H264313   4.322   3.187   2.320 -0.5119 -0.6268  0.3005
14300TIP3   OH264314   5.199   4.976   3.414 -0.6722 -0.0198 -0.3273
14300TIP3    H164315   5.249   5.013   3.342  1.3271  0.6338  1.2815
14300TIP3    H264316   5.126   4.931   3.373 -0.1154  1.0816 -2.6745
14301TIP3   OH264317   1.603   4.773   1.720  0.3171  0.4018 -0.4786
14301TIP3    H164318   1.588   4.771   1.626 -1.6897 -1.4884 -0.1956
14301TIP3    H264319   1.526   4.815   1.757 -0.2506 -1.3405  0.4584
14302TIP3   OH264320   1.442   6.044  12.154 -0.5012  0.3828 -0.8303
14302TIP3    H164321   1.435   6.009  12.242  0.5185  0.5157 -0.6890
14302TIP3    H264322   1.489   6.126  12.164  1.6318 -0.6490 -1.7231
14303TIP3   OH264323   3.381   4.448   1.866  0.4797  0.0175 -0.0360
14303TIP3    H164324   3.409   4.425   1.955 -0.0876 -1.9178 -0.3019
14303TIP3    H264325   3.456   4.425   1.811  0.9053  1.3981 -0.0668
14304TIP3   OH264326   2.516   6.568   4.052  0.2879  0.3433  0.5755
14304TIP3    H164327   2.596   6.610   4.018  0.9503 -0.9762  0.4378
14304TIP3    H264328   2.446   6.600   3.995  0.8218  1.0064  0.2775
14305TIP3   OH264329   6.326   0.281  16.021  0.1841  0.2938  0.6926
14305TIP3    H164330   6.280   0.229  16.086  0.9118  0.0184  0.9993
14305TIP3    H264331   6.271   0.358  16.008 -0.9265 -0.5367  0.2179
14306TIP3   OH264332   4.990   0.036  10.308  0.7557  0.3751  0.8897
14306TIP3    H164333   5.001   0.126  10.278 -1.0087 -0.0023 -1.1432
14306TIP3    H264334   4.966   0.045  10.400 -2.8888  2.3318 -0.0543
14307TIP3   OH264335   0.854   6.156  14.637  0.1040 -0.0048  0.0840
14307TIP3    H164336   0.802   6.236  14.635  0.0859  0.0369  1.4394
14307TIP3    H264337   0.844   6.118  14.550 -0.5797  1.0236 -0.2940
14308TIP3   OH264338   4.541   5.039  17.220  0.2016  0.1622  0.4612
14308TIP3    H164339   4.470   4.988  17.182  0.6303  0.5161 -0.8764
14308TIP3    H264340   4.604   4.974  17.250 -0.3096 -0.1337  0.9145
14309TIP3   OH264341   0.035   2.159  15.609 -0.3065  0.0064 -0.0808
14309TIP3    H164342  -0.028   2.179  15.539  1.6532  1.5476 -1.5365
14309TIP3    H264343   0.034   2.236  15.665  2.1211  1.2867 -1.6448
14310TIP3   OH264344   2.381   5.234  14.194 -0.4059 -0.5979  0.5688
14310TIP3    H164345   2.367   5.185  14.276 -0.3903 -0.0072  0.9305
14310TIP3    H264346   2.319   5.306  14.199 -0.8130 -0.8898 -0.2197
14311TIP3   OH264347   1.429   3.862   6.288  0.6041 -0.2220  0.3264
14311TIP3    H164348   1.410   3.794   6.353  1.0296  0.8056  1.5686
14311TIP3    H264349   1.505   3.828   6.240 -1.0704 -2.0320 -1.2436
14312TIP3   OH264350   4.508   1.249   5.325 -0.2716 -0.2217  0.3025
14312TIP3    H164351   4.509   1.345   5.323  0.4264 -0.2240  0.4940
14312TIP3    H264352   4.594   1.223   5.291 -0.0003 -0.7640  1.3701
14313TIP3   OH264353   3.400   6.524  17.095  0.5753  0.4929 -0.2196
14313TIP3    H164354   3.483   6.491  17.061 -0.5093 -1.8236 -0.8509
14313TIP3    H264355   3.365   6.580  17.026  0.0295 -1.3476 -1.4988
14314TIP3   OH264356   6.637   0.051  16.842 -0.5554 -0.5930  0.1535
14314TIP3    H164357   6.731   0.053  16.863 -0.3624 -1.5090 -0.5181
14314TIP3    H264358   6.594   0.028  16.924 -0.4866  2.4136  1.1722
14315TIP3   OH264359   1.512   2.732   4.799 -0.5414 -0.0402 -0.0068
14315TIP3    H164360   1.523   2.657   4.857 -0.1537  1.6296  2.2497
14315TIP3    H264361   1.596   2.741   4.755 -0.6880 -1.0719 -0.5243
14316TIP3   OH264362   1.137   0.695  12.232  0.2414  0.9206  0.1820
14316TIP3    H164363   1.166   0.627  12.172 -0.8657  1.1074 -0.5929
14316TIP3    H264364   1.156   0.661  12.319  1.1508  0.3129 -0.2435
14317TIP3   OH264365   5.811   2.172   4.200  0.3478 -0.2439  0.1774
14317TIP3    H164366   5.881   2.204   4.258  0.8615  0.5915 -0.8831
14317TIP3    H264367   5.853   2.160   4.115 -0.5329 -0.9055 -0.1801
14318TIP3   OH264368   0.971   2.604   4.915  0.4288  0.4659 -0.8277
14318TIP3    H164369   0.937   2.530   4.865 -1.7289  0.5429  0.3884
14318TIP3    H264370   1.025   2.563   4.983 -1.1611 -0.1077  0.1559
14319TIP3   OH264371   1.645   2.243   6.198 -0.2962  0.3915  0.2832
14319TIP3    H164372   1.627   2.336   6.186 -1.3368  0.5047  2.2049
14319TIP3    H264373   1.560   2.206   6.222  0.1468 -1.0262 -0.2465
14320TIP3   OH264374   3.988   1.089   3.061 -0.9752  0.1047 -0.7212
14320TIP3    H164375   3.927   1.134   3.119 -1.5388  1.0768 -2.0222
14320TIP3    H264376   4.064   1.148   3.056 -0.8205 -0.0978 -0.7621
14321TIP3   OH264377   5.112   2.607   1.757 -0.2275  0.1886 -0.5159
14321TIP3    H164378   5.199   2.613   1.796 -0.0764 -0.2458 -0.7712
14321TIP3    H264379   5.053   2.594   1.831  0.3453 -3.6290 -0.4990
14322TIP3   OH264380   1.065   6.642  17.114  0.0161 -0.6899  0.2630
14322TIP3    H164381   1.029   6.610  17.031  3.2143  0.8760 -1.9728
14322TIP3    H264382   1.023   6.727  17.128 -0.2699 -0.7959  0.0456
14323TIP3   OH264383   0.290   0.195   4.515  0.6771 -0.3526  0.2501
14323TIP3    H164384   0.379   0.230   4.522  1.0411 -0.8200 -1.5468
14323TIP3    H264385   0.272   0.158   4.601  2.3059 -0.4113  0.5957
14324TIP3   OH264386   5.956   6.624  14.668  0.1204  0.4677  0.2764
14324TIP3    H164387   5.942   6.605  14.761 -1.0649  1.8372  0.4083
14324TIP3    H264388   5.888   6.573  14.624 -0.3599  1.0735  0.3029
14325TIP3   OH264389   0.942   4.975  16.683  0.5334  0.0357  0.0758
14325TIP3    H164390   1.028   4.972  16.641  0.0716  1.7820 -1.1115
14325TIP3    H264391   0.895   4.898  16.648  2.3028 -2.3274  2.5454
14326TIP3   OH264392   0.748   3.794   0.156 -0.6080  0.0771 -0.1873
14326TIP3    H164393   0.793   3.878   0.159  1.4261 -0.9749 -0.0483
14326TIP3    H264394   0.738   3.775   0.062 -0.6832  0.2576 -0.2158
14327TIP3   OH264395   4.970   0.765   3.011 -0.9411  0.2796 -0.5703
14327TIP3    H164396   4.921   0.827   2.957 -1.0711  1.8400  1.2429
14327TIP3    H264397   5.036   0.819   3.055 -0.0933 -1.1370 -0.0407
14328TIP3   OH264398   6.385   6.296   3.983  0.0245  0.3762 -0.7850
14328TIP3    H164399   6.353   6.381   4.012 -0.7964  0.5080 -1.9853
14328TIP3    H264400   6.415   6.253   4.063 -1.3250  1.0392  0.1216
14329TIP3   OH264401   4.713   6.364  13.417  0.1893 -0.4756 -0.6363
14329TIP3    H164402   4.660   6.284  13.420  2.2057 -1.8406  0.8887
14329TIP3    H264403   4.652   6.434  13.442 -0.9438 -1.9561  0.9753
14330TIP3   OH264404   3.359   6.323  11.306 -0.2956  0.3156  0.3464
14330TIP3    H164405   3.439   6.303  11.257  0.3513  2.1017  0.6083
14330TIP3    H264406   3.374   6.288  11.393 -0.0113  0.2164  0.2561
14331TIP3   OH264407   2.776   4.436   1.498  0.0105  0.6865 -0.3099
14331TIP3    H164408   2.793   4.497   1.570  0.6881  1.4138 -1.0729
14331TIP3    H264409   2.861   4.424   1.456 -0.2820 -0.1286 -0.6920
14332TIP3   OH264410   0.808   3.650  11.890  0.2311 -0.2328 -0.2407
14332TIP3    H164411   0.889   3.679  11.930 -0.0034  0.3468 -0.1785
14332TIP3    H264412   0.789   3.716  11.824 -0.4551 -0.0916  0.0910
14333TIP3   OH264413   0.684   2.468  13.955  0.6704 -0.0432 -0.0577
14333TIP3    H164414   0.641   2.554  13.951 -0.0229 -0.4122 -0.8062
14333TIP3    H264415   0.777   2.488  13.951  0.5456  0.7194  0.5562
14334TIP3   OH264416   4.038   1.320  10.664  0.2658  0.6521 -0.3550
14334TIP3    H164417   4.006   1.230  10.650  0.2815  0.4465  0.8316
14334TIP3    H264418   3.986   1.373  10.603 -0.4874 -0.0298 -0.3257
14335TIP3   OH264419   5.400   2.624  15.420 -0.2127  0.2227  0.0827
14335TIP3    H164420   5.351   2.703  15.446  0.3166 -0.0669  2.1202
14335TIP3    H264421   5.367   2.555  15.477  0.3251 -0.7325 -0.7232
14336TIP3   OH264422   2.165   2.215  15.499 -0.3259  0.6591 -0.2228
14336TIP3    H164423   2.153   2.240  15.590  1.6168  0.3009  0.1588
14336TIP3    H264424   2.122   2.284  15.449 -0.2198  1.5786  0.9384
14337TIP3   OH264425   0.378   4.004  15.301 -0.2238 -0.0114  0.2929
14337TIP3    H164426   0.347   4.056  15.227 -0.2230 -2.1807 -1.3663
14337TIP3    H264427   0.452   4.054  15.336 -1.5808  2.1246  0.2447
14338TIP3   OH264428   3.280   5.892  14.469 -0.4871  0.0423 -0.1774
14338TIP3    H164429   3.325   5.830  14.526 -0.8302 -0.8844 -0.8810
14338TIP3    H264430   3.200   5.846  14.442 -1.1865  1.1403 -0.0182
14339TIP3   OH264431   4.418   6.069   3.834  0.3474 -0.2671  0.3071
14339TIP3    H164432   4.375   6.011   3.897 -0.0924  0.2584  0.5017
14339TIP3    H264433   4.450   6.011   3.765 -1.5641 -0.5960 -0.3516
14340TIP3   OH264434   2.769   0.295  11.327  0.4876  0.8006 -0.4312
14340TIP3    H164435   2.802   0.206  11.315 -1.9044 -0.0162 -1.6529
14340TIP3    H264436   2.755   0.302  11.421  0.1229 -0.3738 -0.3744
14341TIP3   OH264437   4.579   3.511  14.864  0.6645 -0.7539 -0.2355
14341TIP3    H164438   4.615   3.514  14.776  0.6850 -2.9962 -0.3630
14341TIP3    H264439   4.568   3.603  14.889  0.4451 -0.0622 -2.6414
14342TIP3   OH264440   5.701   0.133  11.142 -0.1198 -0.5941 -0.2339
14342TIP3    H164441   5.657   0.176  11.069  1.0033 -3.5209 -2.8315
14342TIP3    H264442   5.785   0.179  11.150 -0.8732  0.7293  0.3008
14343TIP3   OH264443   2.860   5.000  13.418 -0.7361 -0.1291 -0.3165
14343TIP3    H164444   2.875   4.968  13.329 -0.7633 -0.5971 -0.1558
14343TIP3    H264445   2.781   5.053  13.412 -2.2878 -2.3104 -0.0840
14344TIP3   OH264446   1.108   0.793   4.548 -0.1459  0.6181 -0.1120
14344TIP3    H164447   1.043   0.837   4.604 -0.0266  2.3647 -1.2652
14344TIP3    H264448   1.056   0.732   4.495 -0.7977  1.5269 -0.5625
14345TIP3   OH264449   1.293   6.102  14.084 -0.5168 -0.1643 -0.1070
14345TIP3    H164450   1.290   6.083  13.990  0.1256  0.8781 -0.3624
14345TIP3    H264451   1.290   6.017  14.126 -0.3877 -0.6732 -1.0915
14346TIP3   OH264452   5.703   1.794  13.031  0.1052 -0.3729  0.0298
14346TIP3    H164453   5.669   1.836  13.110 -1.1022  1.8349 -1.5578
14346TIP3    H264454   5.676   1.703  13.038 -3.8145  0.6447  0.2330
14347TIP3   OH264455   4.624   2.433   5.664  0.2504  0.1536 -0.0397
14347TIP3    H164456   4.536   2.450   5.631  0.7926  0.3632 -1.4441
14347TIP3    H264457   4.621   2.342   5.695  0.0047 -0.5019 -1.8256
14348TIP3   OH264458   1.167   3.078   2.183  0.0125 -0.1104  0.5232
14348TIP3    H164459   1.074   3.059   2.170 -0.0022 -0.3816  1.0012
14348TIP3    H264460   1.170   3.172   2.200 -0.1146 -0.0052 -0.0120
14349TIP3   OH264461   4.321   1.675  13.216 -0.2968  0.0492 -0.5848
14349TIP3    H164462   4.351   1.739  13.280 -0.4396 -0.4179 -0.0391
14349TIP3    H264463   4.340   1.590  13.257 -1.9420 -0.2626 -0.3926
14350TIP3   OH264464   3.469   3.484  16.777 -0.1644 -0.2169  0.0970
14350TIP3    H164465   3.442   3.450  16.863 -0.1910 -0.1118  0.1308
14350TIP3    H264466   3.423   3.429  16.714 -0.7447  0.1891  0.1580
14351TIP3   OH264467   3.439   5.116   3.939  0.8809 -0.0777  0.1604
14351TIP3    H164468   3.387   5.196   3.954  1.1861  0.3759 -1.0498
14351TIP3    H264469   3.523   5.135   3.980  0.9628  0.2487 -0.1462
14352TIP3   OH264470   1.228   1.610  16.684  0.5815  0.1717  0.0989
14352TIP3    H164471   1.257   1.700  16.672 -0.0543  0.2240 -1.1690
14352TIP3    H264472   1.133   1.614  16.683  0.5299 -0.3994  1.0653
14353TIP3   OH264473   4.809   5.766  16.065  0.1040 -0.8511  0.6849
14353TIP3    H164474   4.731   5.718  16.036 -0.4582 -0.9395  2.2451
14353TIP3    H264475   4.883   5.715  16.031 -0.5044 -1.3398  0.0685
14354TIP3   OH264476   6.403   3.562  16.882 -0.4215 -0.1813  0.2887
14354TIP3    H164477   6.321   3.563  16.832  0.5897  0.2012 -1.4429
14354TIP3    H264478   6.421   3.470  16.897 -1.5142 -0.2525  1.3204
14355TIP3   OH264479   5.136   2.934  17.024 -0.8927 -0.2042  0.5888
14355TIP3    H164480   5.164   2.851  16.986 -1.3641 -0.1992  0.2241
14355TIP3    H264481   5.054   2.955  16.980  0.9971  2.3181 -2.0993
14356TIP3   OH264482   0.486   1.697   1.497 -0.6688 -0.1641 -0.7341
14356TIP3    H164483   0.534   1.777   1.518 -0.7639  0.1619 -1.6948
14356TIP3    H264484   0.394   1.724   1.496 -0.9877 -0.9448  1.8260
14357TIP3   OH264485   5.854   4.641   4.346  0.4319  0.3704  0.7345
14357TIP3    H164486   5.906   4.604   4.417  2.1027 -0.7106 -0.9513
14357TIP3    H264487   5.907   4.714   4.313  1.2328 -1.0200 -1.3023
14358TIP3   OH264488   3.302   4.545   2.497 -0.0544 -0.0174  0.4618
14358TIP3    H164489   3.216   4.584   2.515 -1.1565 -2.7010  1.7037
14358TIP3    H264490   3.329   4.508   2.581  1.7544 -0.3109 -0.2101
14359TIP3   OH264491   0.922   2.194  11.103 -0.2451  0.3492  0.5207
14359TIP3    H164492   0.839   2.202  11.055 -0.0342  0.8258  0.2325
14359TIP3    H264493   0.984   2.245  11.052  0.0748  0.5338  1.0888
14360TIP3   OH264494   6.355   3.760  11.267  0.1006  0.3985 -0.1704
14360TIP3    H164495   6.375   3.826  11.333 -0.7798  0.3582  0.1528
14360TIP3    H264496   6.430   3.762  11.207 -0.6547  2.9219 -1.1749
14361TIP3   OH264497   6.486   5.972  16.396 -0.3593 -0.1805 -0.1585
14361TIP3    H164498   6.570   5.960  16.351 -1.4392 -1.3883 -1.9503
14361TIP3    H264499   6.432   5.898  16.368 -1.4211 -0.5438  2.5100
14362TIP3   OH264500   1.966   1.942   5.870 -0.6014  0.4273  0.9439
14362TIP3    H164501   2.004   2.016   5.917 -1.4626  1.1164  0.5804
14362TIP3    H264502   1.981   1.867   5.929 -0.6599  1.0708  1.8071
14363TIP3   OH264503   2.047   3.102  13.757  0.4041  0.3470 -0.0047
14363TIP3    H164504   2.110   3.094  13.829 -0.7778  1.6594  1.2476
14363TIP3    H264505   2.001   3.018  13.757  1.6765 -0.3813 -0.5162
14364TIP3   OH264506   4.941   6.730  15.268  0.3642  0.1499  0.2533
14364TIP3    H164507   5.027   6.695  15.246  0.6414  0.6356  0.5412
14364TIP3    H264508   4.879   6.670  15.226  0.8545  0.2737 -0.6772
14365TIP3   OH264509   3.800   3.141   0.082 -0.4451  0.0962  0.6056
14365TIP3    H164510   3.842   3.223   0.109  0.6435  0.0434 -0.8056
14365TIP3    H264511   3.870   3.090   0.042 -1.4538 -0.8419 -0.0152
14366TIP3   OH264512   1.719   4.382  14.930 -0.0941 -0.2402  0.0387
14366TIP3    H164513   1.702   4.441  15.003  0.0571 -0.1216 -0.0207
14366TIP3    H264514   1.635   4.337  14.915 -0.1595 -0.1717  0.2011
14367TIP3   OH264515   5.016   0.432   6.098 -0.2426  0.3027 -0.0035
14367TIP3    H164516   5.049   0.346   6.122  1.2388  0.4323 -1.4587
14367TIP3    H264517   5.018   0.482   6.180 -0.8873 -0.9445  0.7959
14368TIP3   OH264518   2.880   3.458   4.579 -0.1900 -0.2648  0.0216
14368TIP3    H164519   2.785   3.464   4.580 -0.1275  0.9407  1.5926
14368TIP3    H264520   2.899   3.371   4.615 -0.6746 -0.7672 -0.8914
14369TIP3   OH264521   3.939   4.405  13.630 -0.0891 -0.0368 -0.6172
14369TIP3    H164522   3.936   4.453  13.547 -0.5211  0.1842 -0.4740
14369TIP3    H264523   3.997   4.331  13.612 -1.3248 -0.8212 -1.5551
14370TIP3   OH264524   5.686   2.519   1.154  0.0579 -0.1959  0.0864
14370TIP3    H164525   5.702   2.430   1.185 -0.3318  0.5230  2.5086
14370TIP3    H264526   5.667   2.569   1.233 -1.6463  1.6433 -1.4000
14371TIP3   OH264527   1.428   4.285  12.019  0.2811  0.0655 -0.6881
14371TIP3    H164528   1.497   4.339  11.981  0.0732 -1.2520 -3.0889
14371TIP3    H264529   1.383   4.344  12.081  1.3832  1.9644 -1.6012
14372TIP3   OH264530   2.359   5.251  13.773 -0.0092  0.3594  0.6091
14372TIP3    H164531   2.387   5.343  13.768  1.0190  0.1184  1.7146
14372TIP3    H264532   2.440   5.201  13.776 -0.5578 -0.6251 -0.2145
14373TIP3   OH264533   6.545   0.852  13.648 -0.0889 -0.0903  0.4280
14373TIP3    H164534   6.495   0.881  13.724  0.1679  0.3907  0.4186
14373TIP3    H264535   6.634   0.883  13.666  0.1172 -0.5830  0.2576
14374TIP3   OH264536   5.398   3.412   3.289 -0.8579 -0.2779  0.1660
14374TIP3    H164537   5.401   3.468   3.367 -1.0727  0.0217 -0.0405
14374TIP3    H264538   5.427   3.326   3.321  0.2235  0.1261  0.3167
14375TIP3   OH264539   4.952   3.676  16.731  0.0653  0.0721  0.5677
14375TIP3    H164540   4.953   3.761  16.775 -0.8108  0.1777  0.4172
14375TIP3    H264541   4.993   3.616  16.792  1.1693  0.7007  0.4626
14376TIP3   OH264542   3.927   5.475  11.276 -0.0948  0.5369  0.0292
14376TIP3    H164543   3.896   5.438  11.359 -0.4697  1.6693  0.4069
14376TIP3    H264544   3.996   5.415  11.248  0.8640  0.7624  1.7486
14377TIP3   OH264545   1.430   3.321   0.031 -0.2370 -0.2556 -0.1935
14377TIP3    H164546   1.416   3.370   0.112 -3.3894  1.3290 -1.5139
14377TIP3    H264547   1.447   3.388  -0.035  0.4143 -1.3698 -1.2022
14378TIP3   OH264548   2.387   6.201   0.156 -0.3253 -0.1957  0.3257
14378TIP3    H164549   2.350   6.143   0.222  1.1043 -1.6073 -0.0492
14378TIP3    H264550   2.337   6.181   0.076  0.7632 -1.6593 -0.0325
14379TIP3   OH264551   2.007   5.131  12.403 -0.4035 -0.2880 -0.3246
14379TIP3    H164552   1.932   5.156  12.349 -0.3011  0.9629  0.0958
14379TIP3    H264553   1.984   5.158  12.491 -0.5411 -2.2678  0.3088
14380TIP3   OH264554   2.921   0.183  12.655  0.2499  0.0232 -0.3814
14380TIP3    H164555   3.016   0.174  12.645  0.1947 -0.2269 -0.6735
14380TIP3    H264556   2.886   0.098  12.630 -0.0519  0.1097 -0.2540
14381TIP3   OH264557   5.161   5.878  12.419  0.1716 -0.2368  0.3281
14381TIP3    H164558   5.154   5.968  12.451 -1.9354  0.5696 -2.0688
14381TIP3    H264559   5.072   5.844  12.427 -0.2700 -0.3124 -3.4061
14382TIP3   OH264560   5.661   5.294   3.443 -0.6617 -0.0950  0.2831
14382TIP3    H164561   5.679   5.377   3.487  0.7381  1.2692 -2.5776
14382TIP3    H264562   5.696   5.227   3.501 -0.5341  1.4124  2.0184
14383TIP3   OH264563   6.124   0.189  14.743 -0.5681 -0.0121 -0.3909
14383TIP3    H164564   6.199   0.136  14.719 -1.2111 -1.6899  1.1204
14383TIP3    H264565   6.159   0.278  14.749  1.0767 -0.6063 -0.6352
14384TIP3   OH264566   1.880   5.505  13.738  0.8214 -0.0830  0.3744
14384TIP3    H164567   1.842   5.563  13.672  1.3994  0.1619  0.2594
14384TIP3    H264568   1.830   5.524  13.818 -0.1659 -0.6805 -0.0786
14385TIP3   OH264569   2.361   1.122  11.622 -0.4851 -0.2942  0.0669
14385TIP3    H164570   2.374   1.166  11.537 -0.3444  0.8516  0.6602
14385TIP3    H264571   2.290   1.171  11.663 -1.2551 -1.4914  0.2038
14386TIP3   OH264572   6.158   1.429  11.638  0.3413  0.0291 -0.0295
14386TIP3    H164573   6.071   1.390  11.628  0.4289 -0.5734  1.2603
14386TIP3    H264574   6.206   1.367  11.692  1.3543  0.6855 -0.1449
14387TIP3   OH264575   3.037   1.040   1.588 -0.3359  0.2980  0.2577
14387TIP3    H164576   3.120   1.020   1.545 -0.0399  0.2497  0.8463
14387TIP3    H264577   3.016   0.961   1.637 -0.9083  0.1825 -0.1630
14388TIP3   OH264578   3.466   0.721  14.439  0.5622  0.3622 -0.0021
14388TIP3    H164579   3.474   0.628  14.457 -0.5765 -0.0270 -1.2973
14388TIP3    H264580   3.454   0.762  14.525 -0.8974 -0.9192  0.4555
14389TIP3   OH264581   4.314   4.073   0.398  0.3410 -0.1653  0.9513
14389TIP3    H164582   4.311   4.166   0.420  0.3498  0.2272 -0.5808
14389TIP3    H264583   4.225   4.053   0.367  0.7560 -0.2320 -0.2659
14390TIP3   OH264584   0.065   4.982  17.262  0.2058 -0.0234  0.3534
14390TIP3    H164585   0.110   4.929  17.197 -2.4501 -2.4415  0.2587
14390TIP3    H264586   0.015   5.045  17.210 -0.6531 -0.8919  0.0933
14391TIP3   OH264587   3.020   5.387  15.173  0.3711 -0.3978 -0.3413
14391TIP3    H164588   3.076   5.432  15.237 -0.2618  0.1494 -0.1555
14391TIP3    H264589   3.075   5.318  15.137  1.1908  0.1755 -0.2173
14392TIP3   OH264590   3.708   5.736   5.235  0.4061 -0.0595 -0.1709
14392TIP3    H164591   3.690   5.789   5.157  1.8216  0.3872 -0.2147
14392TIP3    H264592   3.744   5.798   5.298  1.6253 -0.8648 -0.0508
14393TIP3   OH264593   0.934   6.330  12.243 -0.2854  0.0344 -0.0682
14393TIP3    H164594   1.014   6.294  12.203  1.2509  4.5076 -1.6952
14393TIP3    H264595   0.891   6.376  12.171 -1.9305  1.4824  1.7689
14394TIP3   OH264596   5.001   2.229   3.731  0.2164  0.4427 -0.0886
14394TIP3    H164597   4.975   2.212   3.640 -0.4743 -0.0709  0.1938
14394TIP3    H264598   4.991   2.144   3.775 -0.9095  1.0024  0.8001
14395TIP3   OH264599   5.015   4.002   1.972 -0.0252 -0.5037  0.1210
14395TIP3    H164600   5.029   4.089   2.011 -0.3041  0.8224 -2.5285
14395TIP3    H264601   5.036   3.941   2.043  0.4861  1.6917  2.0014
14396TIP3   OH264602   6.725   6.733  15.281 -0.0463  0.3923  0.3045
14396TIP3    H164603   6.729   6.806  15.343 -1.2088  1.2785 -0.6211
14396TIP3    H264604   6.808   6.736  15.234  0.2213  0.6439  0.7842
14397TIP3   OH264605   4.825   2.198  14.415  0.0139  0.0725  0.0837
14397TIP3    H164606   4.808   2.281  14.370  0.2651 -0.3783 -0.8792
14397TIP3    H264607   4.919   2.185  14.405 -0.3048 -1.3430 -1.6477
14398TIP3   OH264608   5.755   3.251   3.343  0.3422 -0.6438  0.8594
14398TIP3    H164609   5.804   3.333   3.351  0.0670 -0.3896  0.0583
14398TIP3    H264610   5.669   3.271   3.380 -1.1460  0.7200 -2.7871
14399TIP3   OH264611   0.950   5.315  12.856  0.0700  0.0661  0.0750
14399TIP3    H164612   0.892   5.375  12.902  0.9260  0.9795  0.0010
14399TIP3    H264613   0.892   5.258  12.805 -0.8431 -0.2271  1.3854
14400TIP3   OH264614   4.357   1.818   0.788  0.6459  0.6235  0.1950
14400TIP3    H164615   4.282   1.870   0.760  0.2839 -0.5620 -1.2049
14400TIP3    H264616   4.433   1.871   0.768  0.3291  0.3071 -2.0595
14401TIP3   OH264617   4.901   6.539   3.743  0.5064 -0.4817  0.6719
14401TIP3    H164618   4.830   6.528   3.679 -0.1324 -1.6429  1.5443
14401TIP3    H264619   4.973   6.576   3.692 -0.1108 -1.0112 -0.6389
14402TIP3   OH264620   4.814   6.172   4.804  0.3489 -0.0033  0.1755
14402TIP3    H164621   4.731   6.205   4.771 -0.6880 -0.2885  2.3221
14402TIP3    H264622   4.868   6.250   4.817  0.6036  0.1464 -1.6073
14403TIP3   OH264623   1.511   1.974  15.477  0.1487 -0.4218  0.3335
14403TIP3    H164624   1.516   1.880  15.494 -1.7210 -0.5020  0.5669
14403TIP3    H264625   1.443   2.007  15.536  2.3436  1.5417  1.9979
14404TIP3   OH264626   5.647   3.055   5.740 -0.3574 -0.2034 -0.0598
14404TIP3    H164627   5.588   2.981   5.727 -0.1887 -0.2947 -0.3154
14404TIP3    H264628   5.606   3.127   5.691 -0.3306 -0.2271 -0.1170
14405TIP3   OH264629   5.171   4.123   1.041  0.0829 -0.1353 -0.1817
14405TIP3    H164630   5.216   4.068   0.978 -1.1139 -0.0740 -1.1110
14405TIP3    H264631   5.228   4.123   1.118  0.1970 -2.5084 -0.2185
14406TIP3   OH264632   4.327   2.762   2.045 -0.4422  0.0451 -0.0197
14406TIP3    H164633   4.313   2.854   2.068  2.4736  0.4297  0.6284
14406TIP3    H264634   4.343   2.764   1.951 -1.7723 -0.0400 -0.2686
14407TIP3   OH264635   5.502   1.169  12.642  0.4601  0.4233  0.7106
14407TIP3    H164636   5.496   1.252  12.688 -0.7688  1.1506 -0.6915
14407TIP3    H264637   5.507   1.192  12.549  0.2954 -1.0460  0.3035
14408TIP3   OH264638   0.671   2.888  11.761 -0.0842  0.6549 -0.0732
14408TIP3    H164639   0.745   2.940  11.729 -1.2009  1.2948 -1.7226
14408TIP3    H264640   0.710   2.804  11.786  0.9800  0.2181 -2.8318
14409TIP3   OH264641   5.054   2.190   5.334  0.2046 -0.4078  0.1417
14409TIP3    H164642   5.058   2.229   5.247  0.3579 -0.8374 -0.0470
14409TIP3    H264643   4.970   2.220   5.370  0.9059  1.1674  0.5273
14410TIP3   OH264644   6.092   2.754  16.307  0.0955 -0.0761  0.1442
14410TIP3    H164645   6.017   2.785  16.357  0.0542 -0.2977  0.2202
14410TIP3    H264646   6.140   2.699  16.369  0.8119  0.7905  0.3806
14411TIP3   OH264647   5.383   6.179  17.270 -0.1809 -0.2020 -0.5170
14411TIP3    H164648   5.423   6.128  17.340 -1.2205 -1.3596 -0.7307
14411TIP3    H264649   5.309   6.223  17.312 -0.8868 -1.0056 -0.8944
14412TIP3   OH264650   2.106   4.011  16.864 -0.2274 -0.4304 -0.0205
14412TIP3    H164651   2.092   4.044  16.953 -1.6925  1.7637 -0.9714
14412TIP3    H264652   2.026   3.962  16.844  0.7628 -2.2956  0.3718
14413TIP3   OH264653   6.485   2.538   4.626 -0.4901  0.0832 -0.5801
14413TIP3    H164654   6.432   2.593   4.685 -1.2316 -0.0392 -1.1112
14413TIP3    H264655   6.574   2.569   4.639 -0.9049  1.5277 -0.9682
14414TIP3   OH264656   5.235   1.340  16.913 -0.3896  0.8005  0.1770
14414TIP3    H164657   5.232   1.433  16.931  0.4395  1.0584 -0.9053
14414TIP3    H264658   5.328   1.318  16.915 -0.6222 -0.2060  1.3316
14415TIP3   OH264659   4.498   4.231   5.272  0.0626 -0.2082 -0.8394
14415TIP3    H164660   4.433   4.206   5.207 -0.9643  0.3571 -0.0557
14415TIP3    H264661   4.455   4.215   5.356  0.7761  0.5733 -0.3098
14416TIP3   OH264662   2.299   1.330   2.059  0.0161  0.6570  0.0527
14416TIP3    H164663   2.217   1.310   2.105 -1.5198 -1.0007 -3.1354
14416TIP3    H264664   2.295   1.425   2.046 -1.6972  0.5410 -0.5158
14417TIP3   OH264665   0.361   6.418   4.058 -0.2039  0.0556  0.4819
14417TIP3    H164666   0.364   6.349   3.991  1.2926 -0.8606  1.4264
14417TIP3    H264667   0.268   6.426   4.080 -0.4262 -1.6240  0.2993
14418TIP3   OH264668   0.950   0.184  10.960  0.7062  0.6030  0.5827
14418TIP3    H164669   0.949   0.127  11.037 -1.0022  0.3639  0.4304
14418TIP3    H264670   1.042   0.206  10.948  1.3238 -1.3866  1.2031
14419TIP3   OH264671   2.656   3.038   0.365 -0.0232  0.7159  0.5432
14419TIP3    H164672   2.663   3.050   0.270  0.6355 -0.2934  0.4545
14419TIP3    H264673   2.624   3.123   0.397  0.7724  1.4295 -0.4604
14420TIP3   OH264674   4.691   3.984   5.200 -0.2648 -0.0335  0.0478
14420TIP3    H164675   4.638   3.964   5.123 -1.0268  1.2879  0.1848
14420TIP3    H264676   4.679   4.078   5.213  2.4410  0.4240 -0.1228
14421TIP3   OH264677   6.282   6.332  15.625  0.0743 -0.1781  0.2011
14421TIP3    H164678   6.193   6.319  15.658  0.2414 -0.7122  0.4636
14421TIP3    H264679   6.276   6.408  15.567 -0.3060  0.5179  1.1334
14422TIP3   OH264680   4.787   1.348  16.288 -0.0668  0.1624 -0.4622
14422TIP3    H164681   4.817   1.431  16.249  0.1372 -0.3675 -1.4556
14422TIP3    H264682   4.840   1.340  16.368 -1.0228  1.6311  0.3689
14423TIP3   OH264683   3.433   3.677  12.006 -0.1734 -0.1320  0.3762
14423TIP3    H164684   3.417   3.670  11.912  0.9427 -0.0738  0.1732
14423TIP3    H264685   3.400   3.763  12.030 -1.6971 -0.6619  0.3140
14424TIP3   OH264686   2.395   2.973  14.664 -0.1690  0.8221 -0.3830
14424TIP3    H164687   2.344   3.048  14.633 -0.4419  1.3414  1.2153
14424TIP3    H264688   2.331   2.903  14.676  0.3241 -0.3174 -3.5618
14425TIP3   OH264689   0.759   0.899   2.414 -0.0485  0.0110  0.2372
14425TIP3    H164690   0.730   0.968   2.354  0.3439 -1.7453 -2.0748
14425TIP3    H264691   0.706   0.823   2.391  0.9887 -1.0637  1.2908
14426TIP3   OH264692   2.211   4.377  14.492  0.6289  0.5138  0.2714
14426TIP3    H164693   2.213   4.291  14.534  1.3305  0.0936 -0.5913
14426TIP3    H264694   2.125   4.413  14.514  0.3229 -0.4195  0.6252
14427TIP3   OH264695   3.074   5.654   3.672 -0.5670 -0.0443  0.2311
14427TIP3    H164696   3.023   5.598   3.731  0.5773  0.6168  1.9438
14427TIP3    H264697   3.068   5.611   3.587 -5.9243  1.2238 -0.3578
14428TIP3   OH264698   1.411   5.822  16.767 -0.8058  0.1271  0.1569
14428TIP3    H164699   1.479   5.768  16.808 -1.5551 -0.6340  0.4327
14428TIP3    H264700   1.332   5.804  16.818 -1.2778  0.7952 -0.3200
14429TIP3   OH264701   5.040   6.679  14.258 -0.6140  0.5541  0.1048
14429TIP3    H164702   5.108   6.683  14.324 -0.1776 -0.7295 -0.2469
14429TIP3    H264703   4.964   6.723  14.298 -0.0987  0.5439  1.1073
14430TIP3   OH264704   5.542   6.651   1.468  0.0863  0.0756  0.0686
14430TIP3    H164705   5.596   6.716   1.514 -1.1384  1.2032 -0.0466
14430TIP3    H264706   5.456   6.657   1.509 -0.6555  0.1140 -1.4263
14431TIP3   OH264707   0.195   6.668   1.523  0.8460  0.4630  0.2036
14431TIP3    H164708   0.102   6.656   1.541  1.0346 -1.4039  0.0665
14431TIP3    H264709   0.239   6.609   1.584  1.8667  0.1853 -0.7639
14432TIP3   OH264710   3.398   1.425  16.346  0.2286 -0.4598  0.3977
14432TIP3    H164711   3.401   1.489  16.275 -1.5146  1.3500  1.8278
14432TIP3    H264712   3.450   1.464  16.417 -0.0919 -1.0622  0.9820
14433TIP3   OH264713   2.805   0.489   6.178 -0.0818 -0.1731  0.1662
14433TIP3    H164714   2.853   0.570   6.164  2.0382 -1.4560 -0.5509
14433TIP3    H264715   2.866   0.434   6.228 -1.2149 -1.5306  0.1035
14434TIP3   OH264716   3.958   0.603   3.526  0.3579  0.1549 -0.2459
14434TIP3    H164717   4.030   0.582   3.466  0.8729  2.2635 -0.4408
14434TIP3    H264718   3.998   0.600   3.613  0.9618  2.1392 -0.4065
14435TIP3   OH264719   5.692   2.169   3.257 -0.2962 -0.1344  0.8170
14435TIP3    H164720   5.731   2.177   3.344  0.3668  0.6272  0.4642
14435TIP3    H264721   5.599   2.186   3.271 -0.0815  0.7276  1.2749
14436TIP3   OH264722   1.787   0.840  14.610 -0.0377  0.5093  0.2331
14436TIP3    H164723   1.869   0.792  14.598  0.2960  1.3253 -0.8584
14436TIP3    H264724   1.815   0.930  14.630 -0.6496  0.8580 -0.4300
14437TIP3   OH264725   6.052   0.892  14.383 -0.1877 -0.0581 -0.1603
14437TIP3    H164726   6.092   0.941  14.311 -1.2655  1.8687  0.4766
14437TIP3    H264727   5.994   0.829  14.339 -0.2362  0.5570 -1.0092
14438TIP3   OH264728   4.809   6.108  16.738 -0.4484  0.0470  0.0659
14438TIP3    H164729   4.730   6.053  16.739 -0.8871  0.6697  0.4484
14438TIP3    H264730   4.824   6.129  16.830  0.2452 -0.1730  0.0061
14439TIP3   OH264731   6.597   4.019   1.002 -0.5742  0.0312  0.5179
14439TIP3    H164732   6.532   3.967   0.954 -0.4196  1.7628 -1.7528
14439TIP3    H264733   6.648   3.954   1.051 -2.4729 -1.5963  0.4861
14440TIP3   OH264734   4.835   3.920  17.110 -0.3428  0.2872  0.4375
14440TIP3    H164735   4.793   4.003  17.133  0.0570  0.7036 -0.3320
14440TIP3    H264736   4.795   3.895  17.027  0.3568  0.2947  0.0916
14441TIP3   OH264737   3.286   2.139   3.885  0.3255 -0.2117  0.0448
14441TIP3    H164738   3.351   2.132   3.815  0.4437 -1.4156  0.2492
14441TIP3    H264739   3.206   2.167   3.842  0.7811  0.5690 -0.3235
14442TIP3   OH264740   2.309   5.952   1.968  0.4839  0.6145  0.4040
14442TIP3    H164741   2.221   5.943   2.004  0.1150 -0.3261 -0.6885
14442TIP3    H264742   2.365   5.904   2.029 -0.0845 -0.6719 -0.0511
14443TIP3   OH264743   5.595   4.153  15.242 -0.0890 -0.7618  0.0332
14443TIP3    H164744   5.518   4.181  15.192  0.2762 -3.0121 -1.9548
14443TIP3    H264745   5.648   4.233  15.251 -1.1938  0.1683 -1.3167
14444TIP3   OH264746   3.964   6.320   4.525 -0.0974  0.1140  0.0280
14444TIP3    H164747   4.028   6.322   4.453  1.0494  1.0401  1.0202
14444TIP3    H264748   3.982   6.400   4.575 -1.4958 -0.0343  0.8210
14445TIP3   OH264749   5.635   0.484  15.762 -0.3455  0.1800  0.2817
14445TIP3    H164750   5.708   0.514  15.815 -0.2884  0.1586  0.2164
14445TIP3    H264751   5.637   0.389  15.771 -0.2787  0.1705  0.1669
14446TIP3   OH264752   0.048   4.457  13.476  0.3783 -0.3492 -0.6144
14446TIP3    H164753   0.121   4.517  13.459  0.2283 -0.0933 -0.3770
14446TIP3    H264754  -0.024   4.491  13.423 -0.1566  0.5824  0.6503
14447TIP3   OH264755   5.715   1.147  11.992  0.0815 -0.4499 -0.3189
14447TIP3    H164756   5.620   1.145  11.982  0.1657 -2.3821 -1.1766
14447TIP3    H264757   5.748   1.189  11.913 -0.0585  0.5228  0.1304
14448TIP3   OH264758   2.114   0.932  12.097 -0.0344  0.0349  0.3547
14448TIP3    H164759   2.174   1.005  12.111  0.2130  0.1621 -1.2053
14448TIP3    H264760   2.057   0.960  12.026  1.1846 -1.8972 -1.5352
14449TIP3   OH264761   5.478   2.403  14.979 -0.5898  0.5722 -0.8288
14449TIP3    H164762   5.517   2.363  14.902 -0.8726  1.6000 -1.5220
14449TIP3    H264763   5.521   2.360  15.053  0.3895  0.2640 -1.5641
14450TIP3   OH264764   6.533   1.364  14.671  0.4318 -0.0228  0.2336
14450TIP3    H164765   6.500   1.282  14.707  0.8146 -0.0663  0.4976
14450TIP3    H264766   6.583   1.404  14.743  0.6817  0.1887 -0.0509
14451TIP3   OH264767   1.176   1.049  14.813 -0.3995 -0.2011 -0.5357
14451TIP3    H164768   1.107   1.083  14.871  0.8449  1.0511  0.2636
14451TIP3    H264769   1.257   1.065  14.860  0.7367  1.3773 -2.8252
14452TIP3   OH264770   2.804   6.485  11.651  0.0708  0.7312  0.1402
14452TIP3    H164771   2.891   6.525  11.662  0.8839 -0.8817 -0.1385
14452TIP3    H264772   2.745   6.560  11.640  1.2479  1.9108  1.4063
14453TIP3   OH264773   4.431   0.300   1.392  0.0965 -0.1115  0.2320
14453TIP3    H164774   4.336   0.299   1.380  0.3455 -1.4770 -2.0713
14453TIP3    H264775   4.464   0.356   1.322  1.0933 -1.0917 -0.1095
14454TIP3   OH264776   0.061   6.113  15.649 -0.0509 -0.6664  0.5615
14454TIP3    H164777  -0.017   6.160  15.677  0.4983  0.3736  0.4001
14454TIP3    H264778   0.134   6.168  15.678  0.5881 -0.9308 -0.4817
14455TIP3   OH264779   0.665   4.996   3.783  0.5600 -0.3140 -0.2422
14455TIP3    H164780   0.614   5.058   3.836 -0.8818 -2.6028  1.2186
14455TIP3    H264781   0.600   4.950   3.730  1.5724 -0.7421 -1.1530
14456TIP3   OH264782   3.589   5.803   5.945  0.5047  0.5693  0.9785
14456TIP3    H164783   3.656   5.780   6.010  0.9894 -0.9758 -0.0298
14456TIP3    H264784   3.639   5.832   5.869  0.0217 -0.0779  0.4104
14457TIP3   OH264785   1.662   3.773  13.209 -0.0813  0.5104  0.0557
14457TIP3    H164786   1.653   3.696  13.265  1.7486 -0.3307 -0.7442
14457TIP3    H264787   1.572   3.805  13.198 -0.9081 -1.6345  0.1984
14458TIP3   OH264788   4.834   3.334   1.097 -0.2928  0.4387 -0.0157
14458TIP3    H164789   4.907   3.273   1.088 -1.4390 -0.9824 -0.0368
14458TIP3    H264790   4.761   3.291   1.052 -1.4029  1.3689  0.8305
14459TIP3   OH264791   2.725   3.125  11.366 -0.2583 -0.2134 -0.5401
14459TIP3    H164792   2.665   3.053  11.346 -0.2616 -0.5830  0.7049
14459TIP3    H264793   2.677   3.179  11.429  0.9783 -0.9310  1.0755
14460TIP3   OH264794   3.703   5.323  16.473  0.7136  0.7531 -0.6229
14460TIP3    H164795   3.613   5.317  16.505  0.3513 -0.1913 -1.7625
14460TIP3    H264796   3.736   5.233  16.480  1.4795  1.0366 -0.5010
14461TIP3   OH264797   6.113   2.272  16.368  0.3793 -0.3441 -0.2667
14461TIP3    H164798   6.201   2.281  16.404  0.7902  0.8088 -1.4897
14461TIP3    H264799   6.066   2.349  16.401 -0.0211 -0.6817 -0.0413
14462TIP3   OH264800   1.150   1.733   1.894 -0.2589  0.1606 -0.2009
14462TIP3    H164801   1.141   1.828   1.902 -0.6418  0.1099  0.0266
14462TIP3    H264802   1.070   1.706   1.849 -1.3029 -0.3122  1.7958
14463TIP3   OH264803   5.862   6.365  13.431  0.4970 -0.4281  0.2747
14463TIP3    H164804   5.838   6.297  13.368 -0.2024  0.7963 -0.8278
14463TIP3    H264805   5.940   6.406  13.394  1.2020 -0.9217  1.1772
14464TIP3   OH264806   5.377   3.178   5.864  0.0921 -0.5996 -0.1924
14464TIP3    H164807   5.292   3.219   5.849 -1.0641 -3.1362 -1.1739
14464TIP3    H264808   5.404   3.208   5.951 -1.0707  1.3996 -0.4750
14465TIP3   OH264809   4.025   3.237  12.812  0.4180  0.2181 -0.1921
14465TIP3    H164810   4.037   3.163  12.753  0.0609  1.0542 -1.3510
14465TIP3    H264811   4.111   3.278  12.817  0.4900  0.0414  0.0109
14466TIP3   OH264812   1.443   5.264  17.317 -0.1867 -0.2854  0.0056
14466TIP3    H164813   1.348   5.264  17.313 -0.1948 -1.1604 -0.0354
14466TIP3    H264814   1.471   5.260  17.226 -0.1902 -3.8304  0.0028
14467TIP3   OH264815   4.767   0.339   3.916  0.3345 -0.4589 -0.0986
14467TIP3    H164816   4.680   0.375   3.898 -0.6086 -2.8359 -0.5394
14467TIP3    H264817   4.812   0.410   3.963 -1.5499  1.1078 -0.5133
14468TIP3   OH264818   4.551   5.540   0.547  0.1576  0.2138  0.4347
14468TIP3    H164819   4.638   5.518   0.514 -0.5466 -1.3507 -0.4210
14468TIP3    H264820   4.510   5.456   0.566 -0.2092  0.9568  3.4860
14469TIP3   OH264821   0.545   0.270   4.818  0.2020 -0.6386  0.6350
14469TIP3    H164822   0.611   0.234   4.760  0.1787 -0.1531  0.2992
14469TIP3    H264823   0.498   0.194   4.853  1.0516 -1.0007  1.0174
14470TIP3   OH264824   1.418   6.546  14.230 -0.5516  0.3740 -0.0001
14470TIP3    H164825   1.342   6.534  14.287  0.4503 -0.7341  1.1457
14470TIP3    H264826   1.422   6.641  14.216 -1.5246  0.5472  0.7842
14471TIP3   OH264827   1.917   4.954   5.408  0.2042 -0.6350 -0.1985
14471TIP3    H164828   1.854   5.013   5.367  0.5951 -1.0179 -1.3837
14471TIP3    H264829   1.984   5.012   5.444  0.1431 -0.3060 -0.6025
14472TIP3   OH264830   2.579   4.056   5.080 -0.1894 -0.5091 -0.3831
14472TIP3    H164831   2.654   4.029   5.027  0.1574  1.0301 -0.7484
14472TIP3    H264832   2.508   4.066   5.017  0.3051  1.6380 -0.7034
14473TIP3   OH264833   3.973   0.588   1.300 -0.3225 -0.5877  0.3280
14473TIP3    H164834   3.887   0.586   1.342 -0.4667  0.5258  0.1179
14473TIP3    H264835   4.015   0.506   1.326 -0.2205  0.2461  2.9900
14474TIP3   OH264836   2.210   1.328   4.635  0.3152  0.1518  0.4663
14474TIP3    H164837   2.174   1.242   4.612 -0.2337  0.4631  0.1515
14474TIP3    H264838   2.294   1.308   4.676 -0.4971 -0.6266  1.8144
14475TIP3   OH264839   4.093   0.228   5.907 -0.3969 -0.0608 -0.4301
14475TIP3    H164840   4.010   0.230   5.954 -0.5586  0.5656 -0.7314
14475TIP3    H264841   4.117   0.136   5.904  0.3293 -0.0160  2.1048
14476TIP3   OH264842   3.644   1.191  12.447  0.2406  0.0945 -0.3641
14476TIP3    H164843   3.589   1.179  12.369  0.0499 -0.4383 -0.1548
14476TIP3    H264844   3.599   1.258  12.498  0.4937  0.6252 -0.8241
14477TIP3   OH264845   2.021   5.275   1.415 -0.4696 -0.3710  0.0756
14477TIP3    H164846   2.061   5.282   1.328  1.6693  0.5876  1.0582
14477TIP3    H264847   1.977   5.190   1.415  0.2933 -0.8044 -1.6184
14478TIP3   OH264848   3.848   2.553  16.039  0.6380  0.1781  0.3741
14478TIP3    H164849   3.788   2.627  16.043  1.0210  0.4909  0.3811
14478TIP3    H264850   3.795   2.478  16.065  0.5207  0.6126  1.4301
14479TIP3   OH264851   2.636   5.905   6.317  0.0375  0.2322  0.7183
14479TIP3    H164852   2.603   5.992   6.341  0.1021  0.5332 -0.2289
14479TIP3    H264853   2.713   5.892   6.372  0.0478  0.7916  0.8424
14480TIP3   OH264854   0.435   6.541  13.674 -0.4422 -0.0445  0.4322
14480TIP3    H164855   0.480   6.525  13.757 -0.3562 -1.3648  0.1607
14480TIP3    H264856   0.342   6.537  13.696 -0.4225  0.1516  0.5551
14481TIP3   OH264857   4.759   3.454  16.692 -0.2085  0.0285  0.5000
14481TIP3    H164858   4.800   3.539  16.709  0.6620 -0.4128  0.7138
14481TIP3    H264859   4.814   3.414  16.625 -1.4703  0.2235 -0.6736
14482TIP3   OH264860   5.953   5.166  10.830  0.0754 -0.1616 -0.6203
14482TIP3    H164861   5.991   5.120  10.905 -0.1179 -1.1808 -1.1222
14482TIP3    H264862   6.000   5.249  10.826 -1.8721  1.2371  2.3622
14483TIP3   OH264863   3.520   4.603   1.282  0.1047  0.5253 -0.3156
14483TIP3    H164864   3.443   4.578   1.333 -0.0398  1.8816  0.1738
14483TIP3    H264865   3.592   4.554   1.321 -0.1918  0.7213  0.4870
14484TIP3   OH264866   4.620   2.970   1.253  0.2807 -0.2171  0.2626
14484TIP3    H164867   4.573   2.919   1.319 -0.0634  2.1632  1.9713
14484TIP3    H264868   4.709   2.977   1.287  0.5777 -0.4158 -0.4389
14485TIP3   OH264869   3.083   4.601   2.853  0.2685 -0.9100  0.5162
14485TIP3    H164870   3.063   4.526   2.797  0.6890 -0.2014 -0.6292
14485TIP3    H264871   3.067   4.570   2.942 -1.2272 -1.8183 -0.0302
14486TIP3   OH264872   0.651   1.819   2.150 -0.0421  0.5781  0.4037
14486TIP3    H164873   0.615   1.827   2.061  0.5155 -1.0300 -0.0071
14486TIP3    H264874   0.608   1.889   2.200 -0.7821  1.1601 -0.9968
14487TIP3   OH264875   3.691   4.631   1.828  0.1371 -0.0417 -0.1420
14487TIP3    H164876   3.639   4.699   1.869 -1.0685  0.4396 -2.3643
14487TIP3    H264877   3.658   4.549   1.866  1.0192  0.4728  1.8973
14488TIP3   OH264878   6.108   3.537  13.014  0.2829  0.4446  0.5754
14488TIP3    H164879   6.082   3.456  13.057  0.1785  0.3938  0.4214
14488TIP3    H264880   6.155   3.508  12.936 -1.2927  0.4887 -0.4463
14489TIP3   OH264881   0.759   4.843   1.222 -0.5802 -0.4463 -0.2430
14489TIP3    H164882   0.828   4.881   1.167 -2.4016  1.5774 -1.2587
14489TIP3    H264883   0.767   4.890   1.305 -2.4839  2.0214 -1.3215
14490TIP3   OH264884   4.506   3.566   4.156  0.0623 -0.3120 -0.1933
14490TIP3    H164885   4.520   3.627   4.084  1.1510 -1.5447 -1.0927
14490TIP3    H264886   4.419   3.586   4.189 -0.1346  0.8156 -1.3347
14491TIP3   OH264887   4.516   5.990  16.986 -0.1875 -0.4650  0.1721
14491TIP3    H164888   4.595   5.957  17.028  0.0151 -0.9488 -0.5721
14491TIP3    H264889   4.543   6.072  16.945 -0.2135 -0.3493  0.3827
14492TIP3   OH264890   1.935   1.147   1.442  0.4322 -0.1460 -0.0976
14492TIP3    H164891   1.977   1.065   1.467 -0.5051 -0.9484 -1.0265
14492TIP3    H264892   1.843   1.134   1.462  0.1408  0.3383 -1.0473
14493TIP3   OH264893   5.031   2.761  15.462 -0.5601  0.0987  0.0465
14493TIP3    H164894   4.999   2.832  15.518 -2.8156 -0.7008 -0.1471
14493TIP3    H264895   4.984   2.773  15.379  0.0585 -0.8414 -0.4612
14494TIP3   OH264896   5.565   0.609  11.071 -0.5544 -0.2411  0.3991
14494TIP3    H164897   5.483   0.561  11.061 -0.7631  0.0757  0.5640
14494TIP3    H264898   5.622   0.573  11.004 -1.0155 -0.0703 -0.0895
14495TIP3   OH264899   0.477   2.671  16.749 -0.3276 -0.0984  0.4799
14495TIP3    H164900   0.473   2.679  16.653 -1.3359  0.3296  0.5413
14495TIP3    H264901   0.549   2.610  16.765 -0.5769 -0.7061 -0.5917
14496TIP3   OH264902   0.171   6.219  10.591  0.4689 -0.3680 -0.3119
14496TIP3    H164903   0.228   6.185  10.522  1.1938  0.3804 -0.1006
14496TIP3    H264904   0.230   6.270  10.647 -0.1924 -0.6061  0.6128
14497TIP3   OH264905   2.910   6.460   5.945  0.1811  0.0984 -0.6413
14497TIP3    H164906   2.933   6.539   5.896 -3.3988  1.1597 -0.9523
14497TIP3    H264907   2.901   6.488   6.035 -1.6142  0.2846 -0.8289
14498TIP3   OH264908   6.217   6.172   3.469 -0.4616  0.1032 -0.2136
14498TIP3    H164909   6.144   6.131   3.515  1.6878 -2.1076  1.5042
14498TIP3    H264910   6.258   6.229   3.534  1.4343 -1.5105  0.0939
14499TIP3   OH264911   4.159   6.273  14.291  0.8173  0.1318 -0.5766
14499TIP3    H164912   4.152   6.367  14.312 -2.1296  0.3281 -1.8695
14499TIP3    H264913   4.077   6.236  14.324  0.7671 -1.4978 -2.3997
14500TIP3   OH264914   6.081   4.274  11.911 -0.3995  0.5442  0.4059
14500TIP3    H164915   6.074   4.214  11.986 -1.5385  0.9196  0.6144
14500TIP3    H264916   6.007   4.334  11.921 -1.8520 -0.6715 -2.1218
14501TIP3   OH264917   1.165   4.271  12.758 -0.2808  0.3527 -0.7683
14501TIP3    H164918   1.123   4.352  12.784 -0.8647  0.1264 -0.9793
14501TIP3    H264919   1.182   4.225  12.840  0.6248  0.9607 -0.6078
14502TIP3   OH264920   0.855   6.265   3.698  0.1870 -0.0360 -0.4498
14502TIP3    H164921   0.884   6.278   3.608 -2.3534 -0.5227 -1.4097
14502TIP3    H264922   0.834   6.353   3.730 -1.0025 -0.0653 -1.1177
14503TIP3   OH264923   3.010   4.901  15.456 -0.1135 -0.1248 -0.2636
14503TIP3    H164924   3.028   4.936  15.369 -1.5545  2.0655  0.2444
14503TIP3    H264925   3.094   4.908  15.503  0.1177  0.7567 -0.8052
14504TIP3   OH264926   2.866   5.664  14.864 -0.1941  0.3215  0.8954
14504TIP3    H164927   2.822   5.697  14.942 -0.4811  0.8040  0.5391
14504TIP3    H264928   2.936   5.728  14.847 -1.5514  1.5278 -0.5411
14505TIP3   OH264929   4.154   5.705   0.812  0.1904 -0.0042  0.0397
14505TIP3    H164930   4.246   5.693   0.788 -0.5077 -1.9383 -2.1076
14505TIP3    H264931   4.144   5.661   0.896  1.3271  0.8278  0.6354
14506TIP3   OH264932   3.125   5.677  12.037  0.0784  0.1043  0.1387
14506TIP3    H164933   3.146   5.673  12.131 -0.2049 -0.4454  0.1814
14506TIP3    H264934   3.049   5.735  12.032 -0.0878 -0.0976  0.2859
14507TIP3   OH264935   3.230   6.321  15.393  0.1788 -0.5061 -0.7378
14507TIP3    H164936   3.301   6.361  15.441 -0.8168  1.1201 -0.5521
14507TIP3    H264937   3.154   6.376  15.411 -1.4724 -2.8884  0.1241
14508TIP3   OH264938   4.691   0.044  16.079 -0.0486 -0.0721 -0.6102
14508TIP3    H164939   4.599   0.042  16.105  0.2527 -0.0273  0.5287
14508TIP3    H264940   4.731   0.108  16.139  0.5100  0.7428 -1.8263
14509TIP3   OH264941   5.231   2.569  11.527 -0.0606 -0.3691  0.7164
14509TIP3    H164942   5.297   2.571  11.597  0.1582  0.4891  0.5069
14509TIP3    H264943   5.269   2.622  11.457 -0.6460 -0.5109  0.2804
14510TIP3   OH264944   6.224   5.820   5.146 -0.1049  0.3596  0.1910
14510TIP3    H164945   6.153   5.815   5.082 -0.5974 -0.1615  0.7612
14510TIP3    H264946   6.204   5.897   5.199 -0.4444  0.0181  0.5696
14511TIP3   OH264947   5.324   1.403  13.243 -0.6207 -0.1876  0.4726
14511TIP3    H164948   5.407   1.399  13.291 -0.3018  2.1821  0.2724
14511TIP3    H264949   5.317   1.319  13.198  0.9136 -1.0190  1.7133
14512TIP3   OH264950   5.408   1.880   0.809 -0.2641 -0.6367  0.1572
14512TIP3    H164951   5.428   1.932   0.887 -0.7838 -1.5736  0.9281
14512TIP3    H264952   5.432   1.937   0.736  3.2222 -0.8478  0.9524
14513TIP3   OH264953   6.337   6.482  15.881 -0.0696 -0.5620 -0.0032
14513TIP3    H164954   6.338   6.433  15.799  0.2217  0.4443 -0.6146
14513TIP3    H264955   6.346   6.414  15.949 -1.6078 -1.5299 -0.7162
14514TIP3   OH264956   4.626   2.648   1.938  0.0983 -0.6203 -0.2081
14514TIP3    H164957   4.543   2.600   1.933 -0.3499  0.1355 -0.0613
14514TIP3    H264958   4.637   2.669   2.030  0.6850 -1.1063 -0.1603
14515TIP3   OH264959   0.093   1.482   2.880 -0.7116  0.1132 -0.9502
14515TIP3    H164960   0.024   1.513   2.938  0.6412  1.0660  0.2137
14515TIP3    H264961   0.173   1.523   2.913  0.5312 -1.4542 -1.8647
14516TIP3   OH264962   1.724   4.123  16.157 -0.4447 -0.1032 -0.5277
14516TIP3    H164963   1.788   4.063  16.119 -0.3015 -0.0482 -0.3746
14516TIP3    H264964   1.674   4.155  16.081  0.5187  0.8025 -0.8087
14517TIP3   OH264965   6.716   1.005   3.705  0.1896 -0.1298  0.0703
14517TIP3    H164966   6.679   1.000   3.794 -0.1495  0.2174 -0.0442
14517TIP3    H264967   6.734   0.914   3.681 -1.5307 -0.4243 -0.2426
14518TIP3   OH264968   2.144   0.281  11.883  0.0874 -0.7141  0.0775
14518TIP3    H164969   2.150   0.202  11.829  4.2362 -0.1898 -0.5800
14518TIP3    H264970   2.117   0.350  11.822  0.1345 -0.9925 -0.2622
14519TIP3   OH264971   3.403   2.190   0.965 -0.4532  0.0280  0.6206
14519TIP3    H164972   3.465   2.250   0.924 -0.2650 -0.4869  0.1407
14519TIP3    H264973   3.324   2.197   0.910  0.1677 -1.4989 -0.5519
14520TIP3   OH264974   6.362   4.174  14.348  0.0690 -0.0545  0.0975
14520TIP3    H164975   6.345   4.133  14.433 -0.3537  0.3976  0.2374
14520TIP3    H264976   6.334   4.265  14.359  0.4844  0.1344 -0.3745
14521TIP3   OH264977   2.488   0.588   0.788 -0.5726  0.7561  0.9459
14521TIP3    H164978   2.455   0.504   0.820  1.1768  0.0172  0.9166
14521TIP3    H264979   2.520   0.632   0.867 -2.8127  2.0982  1.1985
14522TIP3   OH264980   5.151   4.143  15.978  0.2611  0.6679 -0.1331
14522TIP3    H164981   5.129   4.224  16.024  0.6622  0.8157 -0.1979
14522TIP3    H264982   5.073   4.088  15.987  0.1823  0.8560  0.3642
14523TIP3   OH264983   3.768   6.632  15.547 -0.1641  0.2998  0.1960
14523TIP3    H164984   3.814   6.616  15.630  0.1527  0.4129  0.0434
14523TIP3    H264985   3.702   6.697  15.569  0.4132  0.8971  0.2030
14524TIP3   OH264986   4.939   1.024  13.649 -0.0287 -0.3459 -0.0623
14524TIP3    H164987   4.852   1.031  13.689  0.1639 -1.8781  0.7407
14524TIP3    H264988   4.941   0.936  13.611  1.1174 -0.2864 -0.1847
14525TIP3   OH264989   0.460   5.361  10.429  0.3030  0.1270  0.0686
14525TIP3    H164990   0.439   5.454  10.426  0.2611  0.0984 -0.5627
14525TIP3    H264991   0.441   5.329  10.341  1.5854 -0.1998 -0.1079
14526TIP3   OH264992   4.340   4.060  10.858 -0.1635  0.0438  0.1938
14526TIP3    H164993   4.317   4.040  10.767 -2.2168 -0.3696  0.7407
14526TIP3    H264994   4.293   4.140  10.878 -0.5122 -0.3818  1.1577
14527TIP3   OH264995   4.130   4.954   1.468  0.0467  0.1960  0.7716
14527TIP3    H164996   4.154   5.004   1.389  0.0676  1.5282  1.6006
14527TIP3    H264997   4.054   4.903   1.441  1.0406 -0.6618 -0.5894
14528TIP3   OH264998   6.753   0.189   6.430 -0.7070 -0.2043 -0.1929
14528TIP3    H164999   6.849   0.192   6.437 -0.6829  1.2865 -0.7551
14528TIP3    H265000   6.730   0.098   6.450  0.7761 -0.4628  0.4682
14529TIP3   OH265001   1.092   0.777   2.187  0.5058 -0.1730 -0.7127
14529TIP3    H165002   1.137   0.846   2.236  2.0862 -0.9127 -1.0651
14529TIP3    H265003   1.011   0.762   2.237  1.3278  0.1817  0.8029
14530TIP3   OH265004   1.888   4.867  15.303 -0.3459  0.4607 -0.5137
14530TIP3    H165005   1.979   4.863  15.333  0.3931  0.3038 -2.5861
14530TIP3    H265006   1.893   4.914  15.219 -2.3056  1.1961 -0.2696
14531TIP3   OH265007   0.670   0.941   5.677  0.0934 -0.0534 -0.0253
14531TIP3    H165008   0.615   1.019   5.681 -0.2233 -0.3264  1.0787
14531TIP3    H265009   0.758   0.975   5.657 -0.0396  0.5902  0.4641
14532TIP3   OH265010   6.543   0.776   3.485 -0.3357 -0.4000 -0.1330
14532TIP3    H165011   6.535   0.867   3.455  1.5857 -0.2221 -0.2826
14532TIP3    H265012   6.637   0.765   3.502 -0.7648 -1.7927  1.7431
14533TIP3   OH265013   0.681   3.329  11.680 -0.0876  0.0399  0.2894
14533TIP3    H165014   0.765   3.321  11.635 -0.4748  0.3985 -0.5180
14533TIP3    H265015   0.705   3.342  11.772  0.6945 -2.2025  0.4684
14534TIP3   OH265016   0.093   4.809  12.093 -0.5203  0.5020  0.3812
14534TIP3    H165017   0.128   4.848  12.174 -1.7601  0.6991  0.8354
14534TIP3    H265018  -0.001   4.825  12.097 -0.7483 -0.4728 -0.5674
14535TIP3   OH265019   1.834   2.795  12.881 -0.0824 -0.2063 -0.1225
14535TIP3    H165020   1.833   2.712  12.834  0.1023 -1.1545  1.5123
14535TIP3    H265021   1.819   2.772  12.972  1.3705  1.4153  0.5777
14536TIP3   OH265022   2.551   0.318   4.765 -0.0668 -0.8162  0.2605
14536TIP3    H165023   2.559   0.352   4.676  0.5582 -0.8778  0.2881
14536TIP3    H265024   2.459   0.293   4.773 -1.3322  3.3179  1.1059
14537TIP3   OH265025   0.905   0.014   1.441 -0.3443  0.2203  0.0997
14537TIP3    H165026   0.915   0.096   1.391  0.2101  0.2288  0.2123
14537TIP3    H265027   0.916   0.041   1.532 -2.0421  0.3160  0.3024
14538TIP3   OH265028   2.070   5.133   3.056 -0.7867  0.1836  0.0672
14538TIP3    H165029   2.008   5.083   3.108 -1.6501  0.4859 -0.6419
14538TIP3    H265030   2.017   5.174   2.987  0.0334  1.2938  0.0565
14539TIP3   OH265031   1.796   1.954  14.772 -0.2247 -0.3382  0.0822
14539TIP3    H165032   1.749   2.021  14.721 -1.0016 -0.3342  0.7731
14539TIP3    H265033   1.750   1.953  14.856 -0.5044 -2.0457 -0.0538
14540TIP3   OH265034   5.675   6.153   3.820  0.0446  0.4063  0.9527
14540TIP3    H165035   5.587   6.190   3.809  0.0180  0.1084  0.0088
14540TIP3    H265036   5.724   6.187   3.745  0.1731 -0.9908  0.3689
14541TIP3   OH265037   3.068   4.457   0.621  0.0346 -0.5518 -0.0810
14541TIP3    H165038   3.006   4.486   0.554 -1.1161 -0.2719  1.0515
14541TIP3    H265039   3.092   4.368   0.594 -0.3689 -0.4313 -0.8830
14542TIP3   OH265040   5.291   0.149   0.150 -0.2047 -0.5068  0.0569
14542TIP3    H165041   5.333   0.217   0.096 -0.7831  0.2446  0.5359
14542TIP3    H265042   5.197   0.163   0.137 -0.3298 -1.4061 -0.0596
14543TIP3   OH265043   3.385   1.314   1.133  0.2933  0.2945 -0.3548
14543TIP3    H165044   3.324   1.380   1.101  1.1232  1.5226  0.5063
14543TIP3    H265045   3.464   1.363   1.156  1.4755 -1.1853 -1.0421
14544TIP3   OH265046   0.998   3.683   1.321 -0.1363 -0.5746  0.0095
14544TIP3    H165047   0.983   3.773   1.349 -1.3425 -0.2356 -1.5689
14544TIP3    H265048   1.089   3.681   1.293  0.4357 -0.3548  1.7496
14545TIP3   OH265049   4.600   6.042   4.538  0.3588  0.2448 -0.0654
14545TIP3    H165050   4.660   5.995   4.596  0.0223  1.6722  1.5476
14545TIP3    H265051   4.612   6.134   4.563 -0.0698  0.8790 -2.0652
14546TIP3   OH265052   4.453   2.058   2.477 -0.1755  0.3282  0.1422
14546TIP3    H165053   4.461   1.984   2.536 -2.0503 -1.0370 -1.2069
14546TIP3    H265054   4.372   2.043   2.429  0.3562  2.2703 -1.5431
14547TIP3   OH265055   5.496   4.721  16.635  0.6090 -0.1303 -0.2865
14547TIP3    H165056   5.494   4.697  16.728 -1.1355 -1.4731 -0.5965
14547TIP3    H265057   5.455   4.646  16.591 -0.2883  1.2547 -1.9326
14548TIP3   OH265058   1.309   3.599   5.230 -0.1431  0.0115  0.1304
14548TIP3    H165059   1.293   3.686   5.267  0.7532  0.8712 -1.3765
14548TIP3    H265060   1.398   3.605   5.194 -0.5979 -1.0585 -1.2343
14549TIP3   OH265061   4.117   3.938   5.786 -0.1130  0.4987 -0.0757
14549TIP3    H165062   4.139   3.883   5.710  0.3003 -0.3884  0.6623
14549TIP3    H265063   4.196   3.937   5.840 -1.0356 -0.5366  1.3237
14550TIP3   OH265064   6.092   4.032  12.081  0.3904 -0.7112 -0.3823
14550TIP3    H165065   6.111   4.058  12.171  2.4695 -5.3437  0.8039
14550TIP3    H265066   6.016   3.975  12.088  1.3780 -2.1954 -1.2831
14551TIP3   OH265067   1.206   3.096  16.329  0.4474  0.7451 -0.2534
14551TIP3    H165068   1.214   3.071  16.237 -1.1082  1.3174 -0.5686
14551TIP3    H265069   1.113   3.088  16.349  0.9195 -0.7124  1.6940
14552TIP3   OH265070   4.652   1.104   3.271 -0.3319  0.4806  0.4189
14552TIP3    H165071   4.581   1.139   3.218 -1.7017  2.5061  3.3289
14552TIP3    H265072   4.706   1.180   3.292  1.2020 -0.5807  0.4588
14553TIP3   OH265073   4.047   0.421  16.313  0.3948  0.5957 -0.1318
14553TIP3    H165074   4.115   0.463  16.365 -0.4112  0.8645  0.7287
14553TIP3    H265075   4.008   0.492  16.262  0.4252  0.5324 -0.2421
14554TIP3   OH265076   6.572   1.770   2.005 -0.1787  0.4152 -0.1692
14554TIP3    H165077   6.663   1.749   1.983  0.0530  0.2461  0.9019
14554TIP3    H265078   6.534   1.687   2.033 -0.4474  0.6263  0.1009
14555TIP3   OH265079   2.479   0.635  12.616  0.0199  0.0545 -0.1102
14555TIP3    H165080   2.496   0.542  12.630  0.5805  0.2210  0.3584
14555TIP3    H265081   2.445   0.640  12.527 -1.8426 -0.8242  0.5082
14556TIP3   OH265082   3.215   2.454   3.967 -0.4320  0.1667  0.1873
14556TIP3    H165083   3.209   2.546   3.992 -0.9077  0.6520 -1.5943
14556TIP3    H265084   3.305   2.429   3.988 -0.5688  0.7480  1.5651
14557TIP3   OH265085   6.294   1.021  12.789  0.1618 -0.2170  0.2393
14557TIP3    H165086   6.209   1.027  12.747  0.6665 -2.9038 -1.3510
14557TIP3    H265087   6.280   0.964  12.865  0.8380 -2.4537 -1.2156
14558TIP3   OH265088   3.763   6.595  14.009 -0.2858  0.2699  0.0247
14558TIP3    H165089   3.841   6.606  13.954 -1.4592 -0.3915 -1.8310
14558TIP3    H265090   3.747   6.683  14.044  1.3221  0.4024  0.5261
14559TIP3   OH265091   4.576   6.115  13.327 -0.4503  0.3157  0.0354
14559TIP3    H165092   4.486   6.083  13.315  0.1858 -1.3542 -0.6324
14559TIP3    H265093   4.622   6.041  13.367  1.1371  0.3037 -1.6869
14560TIP3   OH265094   4.432   1.954  16.620  0.3444 -0.2501  0.0387
14560TIP3    H165095   4.470   1.871  16.650 -2.0856 -1.3522  0.2714
14560TIP3    H265096   4.404   1.998  16.701 -2.1755 -1.1846 -0.2519
14561TIP3   OH265097   6.310   4.931   3.722 -0.1773 -0.4112  0.0690
14561TIP3    H165098   6.224   4.956   3.689 -0.0900 -0.4216 -0.1652
14561TIP3    H265099   6.313   4.966   3.811  0.0689  0.6950 -0.3638
14562TIP3   OH265100   2.971   1.356   2.092 -0.3003  0.3465  0.1534
14562TIP3    H165101   2.916   1.415   2.040  0.9235  1.7594  0.3930
14562TIP3    H265102   3.016   1.302   2.027 -0.9186  0.1300 -0.1048
14563TIP3   OH265103   3.516   3.497  11.691 -0.1553  0.3064  0.1017
14563TIP3    H165104   3.610   3.513  11.679 -0.5742  2.0057 -1.3480
14563TIP3    H265105   3.488   3.455  11.610 -0.9918  1.7296 -0.3941
14564TIP3   OH265106   1.253   5.798   2.342 -0.2685  0.0677 -0.5010
14564TIP3    H165107   1.183   5.858   2.364  0.2285 -0.1080  1.8954
14564TIP3    H265108   1.212   5.711   2.342 -0.2039  0.0310  0.2276
14565TIP3   OH265109   4.360   6.565  11.793 -0.2794  0.1823 -0.1384
14565TIP3    H165110   4.363   6.475  11.759 -0.9266 -0.6988  2.0061
14565TIP3    H265111   4.450   6.597  11.782 -0.3288 -0.2352 -2.0840
14566TIP3   OH265112   3.833   3.861  13.957  0.5546 -0.3415  0.0946
14566TIP3    H165113   3.800   3.951  13.966 -0.4694 -0.3493 -2.6526
14566TIP3    H265114   3.922   3.872  13.925  0.3765 -0.2977 -0.3898
14567TIP3   OH265115   3.863   2.698  16.674  0.0469  0.1390 -0.0770
14567TIP3    H165116   3.868   2.778  16.623 -0.1306  0.7712  0.8747
14567TIP3    H265117   3.919   2.714  16.750 -1.6492  0.1938  1.2051
14568TIP3   OH265118   4.769   1.498  17.219 -0.1812 -0.0058  0.0555
14568TIP3    H165119   4.680   1.528  17.199 -1.2144 -3.0253 -0.3917
14568TIP3    H265120   4.811   1.489  17.133 -0.3827 -1.1214  0.0616
14569TIP3   OH265121   2.008   5.469  12.662  0.0944 -0.3999 -0.0612
14569TIP3    H165122   2.008   5.519  12.743 -0.5305  1.5009 -1.1536
14569TIP3    H265123   2.083   5.503  12.612 -1.3844  0.8500 -1.5665
14570TIP3   OH265124   5.450   1.486   6.013 -0.4188  0.7025  0.5808
14570TIP3    H165125   5.495   1.492   6.097 -0.2518  1.7312  0.4326
14570TIP3    H265126   5.514   1.518   5.949  0.2497 -2.0664 -0.2713
14571TIP3   OH265127   3.796   3.120   5.273 -0.0753 -0.0472  0.2777
14571TIP3    H165128   3.857   3.050   5.250 -1.1353 -1.0356  0.3930
14571TIP3    H265129   3.726   3.113   5.208 -1.2878 -0.5336  1.5893
14572TIP3   OH265130   1.091   2.572   5.555  0.6270 -0.3566 -0.2755
14572TIP3    H165131   1.153   2.614   5.614 -0.9677  0.2228  1.0789
14572TIP3    H265132   1.096   2.623   5.474 -0.3164  1.7173  0.8925
14573TIP3   OH265133   1.975   3.368   2.085 -0.1190  0.4323  0.5354
14573TIP3    H165134   1.924   3.309   2.030  0.4045  0.0594  0.4468
14573TIP3    H265135   1.913   3.398   2.151 -0.9056  1.3031 -0.5542
14574TIP3   OH265136   6.083   4.057   3.845 -0.1817 -0.3283  0.4374
14574TIP3    H165137   6.148   4.121   3.874  0.0577  0.0671 -0.9253
14574TIP3    H265138   6.115   3.974   3.880  0.3987  0.0480  0.8203
14575TIP3   OH265139   2.784   4.327   6.427  0.0841 -0.2594  0.4881
14575TIP3    H165140   2.842   4.384   6.478  0.0501 -0.6017  0.9132
14575TIP3    H265141   2.751   4.264   6.490 -1.4126  0.4247  0.4398
14576TIP3   OH265142   6.586   3.305   5.720  0.0894  0.0137  0.1330
14576TIP3    H165143   6.630   3.221   5.721  1.8871  0.8358  3.6060
14576TIP3    H265144   6.495   3.284   5.697  0.6157 -2.7539  0.2577
14577TIP3   OH265145   4.698   4.977  12.235 -0.3895 -0.4265  0.2337
14577TIP3    H165146   4.688   4.906  12.172 -0.3968 -0.1229 -0.1089
14577TIP3    H265147   4.793   4.989  12.243 -0.3916 -0.3144  0.1052
14578TIP3   OH265148   3.769   1.990  16.799  0.3624  0.1208 -0.4570
14578TIP3    H165149   3.712   1.983  16.723  0.0781 -1.7889 -0.1193
14578TIP3    H265150   3.780   2.084  16.812 -1.3091  0.5141 -1.5562
14579TIP3   OH265151   2.077   0.299  17.216  0.2993  0.0756  0.5404
14579TIP3    H165152   1.987   0.282  17.245  0.4190  0.1594  0.9723
14579TIP3    H265153   2.127   0.306  17.297  1.2161 -2.7247  0.3149
14580TIP3   OH265154   5.183   3.127  14.750  0.2083  0.3228 -0.1824
14580TIP3    H165155   5.091   3.153  14.759  0.4384  1.0550  0.0547
14580TIP3    H265156   5.198   3.068  14.824  0.0615  0.5692  0.0423
14581TIP3   OH265157   3.608   2.308  13.848  0.1475  0.1612  0.3579
14581TIP3    H165158   3.656   2.226  13.832 -0.4178 -0.2133  0.5490
14581TIP3    H265159   3.665   2.376  13.812  1.2738 -0.1706  1.4377
14582TIP3   OH265160   4.869   1.918  15.931  0.1156  0.4645 -0.0394
14582TIP3    H165161   4.831   1.831  15.922  0.7281  0.2644 -0.7816
14582TIP3    H265162   4.889   1.945  15.842 -0.4558  1.5483  0.1396
14583TIP3   OH265163   6.552   2.357  16.711  0.5184  0.4752 -0.3238
14583TIP3    H165164   6.551   2.407  16.793  2.3693 -1.0767  0.7412
14583TIP3    H265165   6.460   2.345  16.689 -0.0968 -0.0889  2.2322
14584TIP3   OH265166   6.374   2.660  11.793  0.1454 -0.4016 -0.0929
14584TIP3    H165167   6.464   2.643  11.764  1.2159 -0.5719  2.9030
14584TIP3    H265168   6.368   2.755  11.796  0.1642 -0.3873 -0.4358
14585TIP3   OH265169   3.449   5.702   0.469 -0.3504  0.1032 -0.4712
14585TIP3    H165170   3.450   5.775   0.531 -1.9450  0.4666 -0.8204
14585TIP3    H265171   3.356   5.682   0.457  0.0286 -1.4348 -1.0353
14586TIP3   OH265172   0.331   5.641   3.913  0.3522 -0.0544  0.1293
14586TIP3    H165173   0.366   5.684   3.991 -0.5227 -1.0241  1.0768
14586TIP3    H265174   0.376   5.685   3.840  0.9711  1.0664  1.1427
14587TIP3   OH265175   3.228   1.290   5.827 -0.6460  0.1457 -0.2142
14587TIP3    H165176   3.145   1.250   5.855 -1.0788  1.1973  0.0505
14587TIP3    H265177   3.293   1.254   5.886 -0.5628 -2.1205 -1.5591
14588TIP3   OH265178   5.437   1.816   5.375  0.3423  0.0287 -0.4938
14588TIP3    H165179   5.344   1.835   5.365 -0.3332 -2.7283 -0.4680
14588TIP3    H265180   5.482   1.894   5.344 -1.9593  1.0502 -1.4627
14589TIP3   OH265181   0.014   6.487  10.713 -0.3375 -0.3130 -0.2651
14589TIP3    H165182   0.004   6.570  10.666  1.1230 -0.3683 -0.7192
14589TIP3    H265183   0.108   6.474  10.719 -0.5378 -1.4800  0.6404
14590TIP3   OH265184   5.509   2.233  15.198 -0.3045 -0.5347  0.2255
14590TIP3    H165185   5.525   2.149  15.156 -1.3334 -0.1240 -1.0570
14590TIP3    H265186   5.460   2.212  15.277  1.5183 -1.3038  1.2195
14591TIP3   OH265187   1.112   4.243  14.976  0.1838  0.6007 -0.3035
14591TIP3    H165188   1.154   4.249  14.890 -0.1205  0.9561 -0.4293
14591TIP3    H265189   1.019   4.244  14.958  0.1198  0.2311  0.0041
14592TIP3   OH265190   0.904   0.242   5.159 -0.1258 -0.0595  0.3257
14592TIP3    H165191   0.842   0.227   5.230 -0.2106  0.7024  0.4121
14592TIP3    H265192   0.989   0.217   5.196 -0.3792 -1.2989  0.1449
14593TIP3   OH265193   1.952   3.039  15.032 -0.1398 -0.0104  0.4584
14593TIP3    H165194   1.884   3.087  14.984  0.6592  0.9694  0.2745
14593TIP3    H265195   2.011   3.107  15.064  0.6039 -0.8257  0.8641
14594TIP3   OH265196   3.521   5.975  14.907  0.0056  0.1215 -0.3026
14594TIP3    H165197   3.490   6.059  14.874 -0.6236  1.1002  2.5297
14594TIP3    H265198   3.612   5.990  14.933 -0.6702  0.5819  2.0274
14595TIP3   OH265199   1.024   2.107  11.357 -0.3751  0.1038 -0.1580
14595TIP3    H165200   0.944   2.121  11.306 -0.3054 -1.0045 -0.5816
14595TIP3    H265201   1.092   2.151  11.307 -0.4363 -0.3519 -0.6542
14596TIP3   OH265202   1.130   4.417   3.196 -0.2086  0.5600  0.8362
14596TIP3    H165203   1.224   4.416   3.217 -0.0155  1.8062  0.1244
14596TIP3    H265204   1.100   4.503   3.224 -0.1396  1.9888 -2.9179
14597TIP3   OH265205   4.552   4.799  15.796 -0.2722 -0.0762  0.3720
14597TIP3    H165206   4.481   4.769  15.854  0.6155 -1.4316  0.8139
14597TIP3    H265207   4.610   4.850  15.853 -0.8622  1.0363  0.0090
14598TIP3   OH265208   0.802   5.057  14.166  0.7084  0.5116  0.4101
14598TIP3    H165209   0.790   5.140  14.212 -1.9907  0.3617  0.1541
14598TIP3    H265210   0.714   5.031  14.140  1.6947 -1.4296 -1.3291
14599TIP3   OH265211   3.687   5.583  12.918  0.3544  0.1131 -0.8676
14599TIP3    H165212   3.708   5.624  13.002 -0.9953 -1.0939  0.0909
14599TIP3    H265213   3.772   5.551  12.886  0.4082 -3.7160  2.3955
14600TIP3   OH265214   6.560   0.197  12.344 -0.8142 -0.8268 -0.2188
14600TIP3    H165215   6.555   0.110  12.385 -0.7042 -0.7914 -0.1286
14600TIP3    H265216   6.610   0.183  12.264  1.9733 -0.2986  1.3277
14601TIP3   OH265217   0.811   2.567   5.531 -0.2950 -0.0066 -0.1488
14601TIP3    H165218   0.877   2.611   5.586 -0.5167 -0.1899  0.2623
14601TIP3    H265219   0.815   2.614   5.447  0.6244 -0.2519 -0.2571
14602TIP3   OH265220   3.832   0.803   0.074  0.2272 -0.1993  0.0538
14602TIP3    H165221   3.822   0.896   0.094 -0.4257 -0.2092 -0.2082
14602TIP3    H265222   3.744   0.774   0.049  0.1335 -1.1989  1.4357
14603TIP3   OH265223   3.113   6.066   4.915  0.7834 -0.1949  0.1359
14603TIP3    H165224   3.046   6.042   4.980  0.6611 -0.9789 -0.2767
14603TIP3    H265225   3.182   6.107   4.967  0.0748  0.4645  0.5936
14604TIP3   OH265226   3.550   5.658  14.086 -0.3828  0.5207  0.3782
14604TIP3    H165227   3.586   5.699  14.007 -0.9437 -0.9960 -0.7081
14604TIP3    H265228   3.545   5.565  14.064 -0.2305  0.0140  2.3428
14605TIP3   OH265229   1.722   6.592  12.096 -0.1436  0.5488 -0.1851
14605TIP3    H165230   1.688   6.681  12.093 -0.5743  0.3516 -1.6642
14605TIP3    H265231   1.647   6.537  12.071  0.4493 -0.1252 -0.5091
14606TIP3   OH265232   4.581   0.560  12.310 -0.0373  0.2011 -0.4323
14606TIP3    H165233   4.506   0.502  12.323 -0.9143  0.9002 -2.0239
14606TIP3    H265234   4.657   0.502  12.310 -0.5321 -0.5111  1.3314
14607TIP3   OH265235   3.782   6.306   1.837  0.7038 -0.3481  0.2450
14607TIP3    H165236   3.778   6.214   1.863 -0.5725 -0.4718 -0.3188
14607TIP3    H265237   3.707   6.318   1.778  0.2128  1.2974  1.1252
14608TIP3   OH265238   3.280   2.861  16.365 -0.2079 -0.6432  0.0349
14608TIP3    H165239   3.190   2.871  16.331 -0.2861 -0.8704  0.1751
14608TIP3    H265240   3.328   2.823  16.292 -0.2681 -0.6937  0.0216
14609TIP3   OH265241   2.212   5.735  16.939  0.2878  0.4662  0.5459
14609TIP3    H165242   2.170   5.819  16.960  1.4697  1.1650  0.2098
14609TIP3    H265243   2.190   5.719  16.848  1.2129  1.1430  0.1838
14610TIP3   OH265244   1.059   1.550   4.863 -0.4490 -0.7023 -0.0810
14610TIP3    H165245   1.150   1.581   4.874 -0.3093 -1.6475  1.8540
14610TIP3    H265246   1.033   1.583   4.777  0.9923  1.4562  0.2112
14611TIP3   OH265247   3.682   3.172  11.998  0.0598  0.1974  0.7347
14611TIP3    H165248   3.639   3.257  12.013  0.8712  0.6769  0.4263
14611TIP3    H265249   3.649   3.144  11.913  1.0128  1.0031  0.0711
14612TIP3   OH265250   5.350   0.533   1.893 -0.1959  0.0795 -1.0307
14612TIP3    H165251   5.369   0.553   1.801 -0.9013  0.5112 -1.0931
14612TIP3    H265252   5.260   0.499   1.892  0.5529 -2.0417 -0.7745
14613TIP3   OH265253   1.319   2.748  12.650  0.5583  0.2362  0.0184
14613TIP3    H165254   1.355   2.663  12.625 -0.2376 -1.1209  3.0593
14613TIP3    H265255   1.392   2.810  12.638  0.9903 -0.6558 -2.7668
14614TIP3   OH265256   3.983   6.690   4.867 -0.2543  0.7932 -0.1007
14614TIP3    H165257   4.009   6.728   4.951  0.5939  0.8274 -0.3657
14614TIP3    H265258   3.888   6.678   4.873  0.0964 -1.8912  1.9830
14615TIP3   OH265259   2.360   2.210  11.750  0.0377  0.0553  0.1172
14615TIP3    H165260   2.308   2.269  11.805  0.3691 -1.3581  2.0154
14615TIP3    H265261   2.297   2.176  11.686 -1.6861 -2.1407  2.7796
14616TIP3   OH265262   1.048   1.858   5.295  0.4186 -0.0567  0.3076
14616TIP3    H165263   1.045   1.951   5.314 -0.6667 -0.0437  0.1061
14616TIP3    H265264   1.030   1.852   5.201  0.7319 -0.4596  0.2671
14617TIP3   OH265265   4.674   1.223  10.747  0.2081  0.0475 -0.6622
14617TIP3    H165266   4.690   1.294  10.810 -1.5115  0.7142 -0.9158
14617TIP3    H265267   4.587   1.242  10.712  0.3319 -1.3957 -1.8262
14618TIP3   OH265268   2.651   4.366  13.581 -0.8511  0.0504  0.8326
14618TIP3    H165269   2.681   4.457  13.577 -1.9651  0.4036 -0.3044
14618TIP3    H265270   2.685   4.327  13.501 -1.8462 -0.0427  0.4489
14619TIP3   OH265271   0.740   0.701  14.059  1.0919  0.3521 -0.7149
14619TIP3    H165272   0.784   0.618  14.042  0.1080 -1.0728  2.8329
14619TIP3    H265273   0.811   0.760  14.086  1.5749  0.1338 -1.4773
14620TIP3   OH265274   2.524   5.890  11.111 -0.2893 -0.2729 -0.0936
14620TIP3    H165275   2.593   5.867  11.049 -1.0040 -1.2218 -0.5787
14620TIP3    H265276   2.466   5.814  11.111 -0.8493  0.1316  0.9875
14621TIP3   OH265277   0.716   3.401  11.940 -0.3257  0.0547 -0.6015
14621TIP3    H165278   0.771   3.474  11.911 -1.6026  1.0347 -0.6397
14621TIP3    H265279   0.768   3.357  12.008  0.5531  0.8602 -0.7364
14622TIP3   OH265280   6.375   0.543   5.261  0.1831 -0.0735 -0.5902
14622TIP3    H165281   6.302   0.503   5.307  1.0923 -0.8194  0.2353
14622TIP3    H265282   6.376   0.499   5.176  1.5578 -2.3852  0.5178
14623TIP3   OH265283   0.516   0.187   4.261 -0.5396 -0.0077  0.5515
14623TIP3    H165284   0.496   0.262   4.205 -2.2591 -0.1164  0.9659
14623TIP3    H265285   0.445   0.124   4.244  0.4795 -1.2519  0.7331
14624TIP3   OH265286   3.171   2.379  13.255  0.4415 -0.0892 -0.2276
14624TIP3    H165287   3.186   2.292  13.218  0.2375  0.1863 -0.9932
14624TIP3    H265288   3.093   2.368  13.309  1.5434 -0.8151  1.2730
14625TIP3   OH265289   2.767   1.820  16.771 -0.7282  0.2109  0.0872
14625TIP3    H165290   2.729   1.806  16.684 -1.8970  1.1673  0.4225
14625TIP3    H265291   2.782   1.731  16.805 -2.7678 -0.2212 -0.0363
14626TIP3   OH265292   0.584   5.489  11.318 -0.2238 -0.2615 -0.0380
14626TIP3    H165293   0.588   5.494  11.223 -0.6315  0.3909 -0.0264
14626TIP3    H265294   0.664   5.533  11.348  0.2465 -1.0644 -0.0823
14627TIP3   OH265295   3.413   5.061  16.105  0.1822  0.0076 -0.9288
14627TIP3    H165296   3.326   5.043  16.139  0.2721  0.2321 -0.5741
14627TIP3    H265297   3.452   4.974  16.093  0.1440 -0.0741 -0.4715
14628TIP3   OH265298   1.611   5.562  12.771 -0.0835 -0.9413  0.6722
14628TIP3    H165299   1.665   5.516  12.835 -0.6124  0.8338  2.5386
14628TIP3    H265300   1.584   5.642  12.817 -0.5066  0.4392 -1.8000
14629TIP3   OH265301   5.074   0.322  13.520  0.1438 -0.2941  0.1419
14629TIP3    H165302   5.119   0.269  13.454  2.0302  2.6408 -1.1804
14629TIP3    H265303   5.021   0.260  13.569 -1.2855 -2.7984 -3.9941
14630TIP3   OH265304   5.555   2.434  16.066 -0.4178 -0.3926  0.1788
14630TIP3    H165305   5.630   2.381  16.041  0.3926  1.3630 -1.3336
14630TIP3    H265306   5.587   2.524  16.064 -2.0911  0.2918  1.3332
14631TIP3   OH265307   0.827   0.865   3.608 -0.2416 -1.0479  0.1079
14631TIP3    H165308   0.883   0.793   3.638  1.0630 -0.4903 -0.8697
14631TIP3    H265309   0.781   0.895   3.687 -0.6879 -2.8276  0.5527
14632TIP3   OH265310   5.938   4.664   2.207 -0.1780  0.1119 -0.6660
14632TIP3    H165311   5.875   4.660   2.279 -0.4480  1.3921 -0.8052
14632TIP3    H265312   5.970   4.754   2.209 -0.4233  0.2608 -2.3281
14633TIP3   OH265313   2.511   2.388   3.955 -0.1459  0.3181 -0.3135
14633TIP3    H165314   2.469   2.441   4.023 -1.1676  0.2819 -0.9150
14633TIP3    H265315   2.491   2.433   3.873  1.2975  0.4992 -0.5915
14634TIP3   OH265316   1.159   0.365  10.960  0.1496 -0.7665  0.6735
14634TIP3    H165317   1.131   0.438  11.015 -0.5368 -1.8283  1.7875
14634TIP3    H265318   1.181   0.405  10.876 -1.6924  0.5382  0.7479
14635TIP3   OH265319   3.958   1.957   4.496 -0.7018  0.3361  0.0888
14635TIP3    H165320   3.989   2.034   4.544  0.2472  0.1380 -0.1885
14635TIP3    H265321   4.034   1.900   4.489 -1.1104 -0.1386 -0.6803
14636TIP3   OH265322   3.528   3.783  16.083  0.3959 -0.5323 -0.5293
14636TIP3    H165323   3.589   3.850  16.054  0.8166 -0.4463  0.4857
14636TIP3    H265324   3.561   3.702  16.046  1.9730 -0.7027  1.1080
14637TIP3   OH265325   0.997   4.015   3.197  0.4383  0.1549 -0.4706
14637TIP3    H165326   1.013   4.100   3.155  0.9614 -0.5316 -1.7337
14637TIP3    H265327   1.082   3.971   3.192 -0.0193 -0.7313 -0.5382
14638TIP3   OH265328   2.056   4.325  13.460 -0.3531 -0.2819  0.3180
14638TIP3    H165329   2.048   4.397  13.397 -1.9325 -1.0936 -0.4687
14638TIP3    H265330   2.118   4.265  13.420 -0.4374 -0.2220  0.0926
14639TIP3   OH265331   1.177   3.892  12.879  0.0365 -0.0414 -0.4011
14639TIP3    H165332   1.255   3.865  12.831  0.5190 -0.1366  0.4170
14639TIP3    H265333   1.119   3.816  12.876  0.8131 -0.7049  0.6921
14640TIP3   OH265334   1.561   2.859  12.556 -0.0212 -0.2667 -0.2855
14640TIP3    H165335   1.517   2.939  12.526  1.2127  0.4132 -0.3884
14640TIP3    H265336   1.591   2.817  12.476  0.1998 -0.3006 -0.1875
14641TIP3   OH265337   4.249   2.976  13.361 -0.8862  0.3817  0.4906
14641TIP3    H165338   4.244   2.904  13.298 -2.0236  0.3891  0.5579
14641TIP3    H265339   4.211   3.051  13.315  0.9100  1.1568  0.1738
14642TIP3   OH265340   1.274   3.963  14.372 -0.4457  0.5076  0.8202
14642TIP3    H165341   1.316   3.902  14.312  0.4216  1.5809  0.2797
14642TIP3    H265342   1.222   3.909  14.430 -1.2896 -0.5751 -0.8839
14643TIP3   OH265343   5.778   2.442   3.202 -0.1478 -0.1880 -0.5579
14643TIP3    H165344   5.770   2.347   3.199  2.1505 -0.4959  0.6270
14643TIP3    H265345   5.737   2.467   3.285 -0.3571 -0.1889 -0.6599
14644TIP3   OH265346   3.426   1.804  12.984  0.0765 -0.1034  0.7592
14644TIP3    H165347   3.412   1.884  13.035 -0.5779  1.1433 -1.2572
14644TIP3    H265348   3.342   1.757  12.990 -1.2019  1.6586 -1.7502
14645TIP3   OH265349   6.528   5.308  15.881 -0.2005 -0.1941 -0.9804
14645TIP3    H165350   6.539   5.403  15.873 -1.7796 -0.0160 -1.3979
14645TIP3    H265351   6.553   5.274  15.796  0.0651 -0.1210 -0.9331
14646TIP3   OH265352   2.574   4.014  15.020  0.5036 -0.1705 -0.1582
14646TIP3    H165353   2.585   3.923  15.048  1.8157 -0.5387 -1.7091
14646TIP3    H265354   2.647   4.060  15.060  0.4676 -0.0144 -0.2743
14647TIP3   OH265355   4.708   3.624  14.338 -0.6768 -0.4447  0.5644
14647TIP3    H165356   4.770   3.566  14.382  0.2877  0.5872  0.6306
14647TIP3    H265357   4.651   3.655  14.408 -0.1584 -0.0558  0.8259
14648TIP3   OH265358   3.938   6.646  11.536  0.3291  0.3559  0.2736
14648TIP3    H165359   3.967   6.613  11.450 -0.5283  0.3151 -0.0078
14648TIP3    H265360   3.985   6.591  11.599  1.2650  0.6399 -0.1597
14649TIP3   OH265361   2.721   5.927   4.119  0.5839  0.2795  0.1740
14649TIP3    H165362   2.628   5.934   4.095  1.1562  0.1537 -2.4727
14649TIP3    H265363   2.721   5.889   4.207 -1.8626 -0.8966 -0.2500
14650TIP3   OH265364   1.111   2.059   2.970 -0.2600 -0.2096 -0.2303
14650TIP3    H165365   1.029   2.106   2.982  0.6313  1.4073 -0.1282
14650TIP3    H265366   1.179   2.123   2.991  1.0722 -1.0464 -1.6997
14651TIP3   OH265367   1.571   0.156  11.504  0.2364 -0.4394  0.5515
14651TIP3    H165368   1.568   0.247  11.531  0.6111 -1.0995  2.9938
14651TIP3    H265369   1.479   0.131  11.494  0.1458  0.3356 -0.7360
14652TIP3   OH265370   2.541   3.979  13.206 -0.2380  0.0564 -0.4234
14652TIP3    H165371   2.635   3.992  13.197 -0.4122  2.8374  1.0558
14652TIP3    H265372   2.513   3.954  13.118  1.5898  1.1930 -1.3902
14653TIP3   OH265373   3.921   2.084  16.109 -0.6217  0.0845 -0.0525
14653TIP3    H165374   3.932   1.990  16.101  0.3282  0.0806  0.9994
14653TIP3    H265375   4.009   2.117  16.127 -1.1070  1.0374  0.6657
14654TIP3   OH265376   4.230   6.373   2.058 -0.5526  0.3429  0.5342
14654TIP3    H165377   4.299   6.414   2.110 -1.1492  0.9663  0.8457
14654TIP3    H265378   4.276   6.326   1.989  0.2017  0.4108  0.9834
14655TIP3   OH265379   2.854   1.706  10.710  0.6061 -0.8197  0.3639
14655TIP3    H165380   2.941   1.744  10.718  0.1499  0.7233 -1.3333
14655TIP3    H265381   2.869   1.622  10.665  1.2363 -0.5707  0.0947
14656TIP3   OH265382   5.572   2.841   2.240  0.8678 -0.4266  0.5631
14656TIP3    H165383   5.477   2.829   2.239  0.4381  2.2957  1.3779
14656TIP3    H265384   5.599   2.812   2.327  0.7750 -0.9199  0.4340
14657TIP3   OH265385   6.141   1.339  12.275 -0.1854 -0.0559 -0.3154
14657TIP3    H165386   6.137   1.259  12.327  0.4867 -0.3551 -0.7129
14657TIP3    H265387   6.112   1.313  12.188 -1.0925  0.3975 -0.1623
14658TIP3   OH265388   5.741   2.109  11.246  0.1193  0.4106  0.4912
14658TIP3    H165389   5.704   2.148  11.167 -1.0485  0.3699  0.9870
14658TIP3    H265390   5.776   2.025  11.218  0.3961  0.7221 -0.1146
14659TIP3   OH265391   4.977   5.591   2.834 -0.1040  0.2243 -0.7634
14659TIP3    H165392   4.909   5.566   2.771  0.4380 -0.6396 -1.0151
14659TIP3    H265393   5.033   5.652   2.785 -0.1749  0.2225 -0.8473
14660TIP3   OH265394   6.005   2.351   5.002 -0.2343  0.2234 -0.1787
14660TIP3    H165395   6.050   2.368   5.085 -1.1971 -0.8449  0.5972
14660TIP3    H265396   6.066   2.297   4.952  0.3224  0.8040 -0.1406
14661TIP3   OH265397   3.841   3.184  16.747 -0.1026  0.1165 -0.1973
14661TIP3    H165398   3.829   3.267  16.700 -3.0000  0.0204  0.2016
14661TIP3    H265399   3.860   3.211  16.837  2.0300  0.2819 -0.6395
14662TIP3   OH265400   5.105   5.854  14.553  0.2851 -0.0950 -0.1332
14662TIP3    H165401   5.124   5.944  14.525  2.5928  0.0590  1.7098
14662TIP3    H265402   5.188   5.820  14.584 -0.9309 -2.2442  0.9969
14663TIP3   OH265403   6.417   0.356  16.630  0.1480 -0.5484  0.0573
14663TIP3    H165404   6.422   0.421  16.701  3.4372 -2.0082  1.3871
14663TIP3    H265405   6.324   0.350  16.610 -0.5738  2.4979  1.7865
14664TIP3   OH265406   5.338   5.861   3.472  0.0089 -0.1965 -0.2643
14664TIP3    H165407   5.344   5.792   3.407  0.1605 -0.4783  0.0482
14664TIP3    H265408   5.422   5.907   3.467 -0.8997  1.3964 -2.0460
14665TIP3   OH265409   5.715   2.332  12.136 -0.0959 -0.0147  0.3842
14665TIP3    H165410   5.676   2.246  12.121 -1.6418  0.6701  0.2853
14665TIP3    H265411   5.792   2.315  12.190 -0.4129 -1.4510  0.4071
14666TIP3   OH265412   2.728   4.187  10.646  0.2135 -0.2034 -0.1580
14666TIP3    H165413   2.786   4.123  10.605  1.2185  1.0932 -0.8446
14666TIP3    H265414   2.641   4.149  10.638  0.7209 -1.2363 -1.0115
14667TIP3   OH265415   1.542   6.577   3.639  0.1965  0.3614  0.3772
14667TIP3    H165416   1.591   6.520   3.699 -1.8946 -1.6532  0.3086
14667TIP3    H265417   1.476   6.619   3.695 -0.0324  0.5810 -0.0592
14668TIP3   OH265418   6.563   4.510   0.962 -0.2602  0.4485 -0.4899
14668TIP3    H165419   6.487   4.557   0.928 -0.2715  0.1332 -0.9199
14668TIP3    H265420   6.534   4.475   1.046 -1.0796 -0.8391 -1.2585
14669TIP3   OH265421   1.696   5.121  14.086  0.1054  0.5753 -0.3306
14669TIP3    H165422   1.754   5.193  14.062 -0.6588  1.6205  0.8057
14669TIP3    H265423   1.745   5.042  14.064  1.7881  1.4175  0.1764
14670TIP3   OH265424   3.610   1.841   3.812  0.0013  0.0172 -0.6141
14670TIP3    H165425   3.638   1.920   3.765 -0.5203 -1.3975 -3.5656
14670TIP3    H265426   3.518   1.830   3.787 -0.0657 -1.2625  0.1139
14671TIP3   OH265427   3.185   0.576  12.242 -0.2069  0.3171  0.6444
14671TIP3    H165428   3.271   0.539  12.224 -0.6130  0.0099 -0.8156
14671TIP3    H265429   3.137   0.567  12.159 -0.7693  2.8871  0.6041
14672TIP3   OH265430   3.242   5.235   0.125  0.2386  0.5354 -0.2896
14672TIP3    H165431   3.230   5.269   0.036  2.2952  0.2617 -0.7165
14672TIP3    H265432   3.280   5.148   0.112 -0.9197 -0.1812  0.8662
14673TIP3   OH265433   4.976   1.736   3.212  0.1707 -0.5239 -0.4295
14673TIP3    H165434   5.039   1.807   3.221 -1.1692  0.6179  0.5474
14673TIP3    H265435   4.959   1.708   3.302 -1.9864  0.4279 -0.4794
14674TIP3   OH265436   1.517   2.782  11.676 -0.0693  0.0990 -0.1285
14674TIP3    H165437   1.490   2.805  11.765 -0.4278 -1.0643  0.0702
14674TIP3    H265438   1.528   2.687  11.677 -0.2756  0.0425 -1.3781
14675TIP3   OH265439   2.231   0.826   3.856  0.8323 -0.3700  0.5155
14675TIP3    H165440   2.310   0.857   3.812  0.5604 -0.6374 -0.1754
14675TIP3    H265441   2.261   0.753   3.910  1.1966  0.0637  0.9034
14676TIP3   OH265442   1.405   3.012   5.398  0.2254 -0.1320 -0.6362
14676TIP3    H165443   1.312   3.020   5.420  0.2235 -1.9497  0.2023
14676TIP3    H265444   1.405   2.968   5.313  0.3210  1.9293 -1.7513
14677TIP3   OH265445   2.421   1.950   5.462 -0.4522  0.3114 -0.3965
14677TIP3    H165446   2.505   1.994   5.473 -0.5943  0.6163 -0.5053
14677TIP3    H265447   2.373   1.970   5.543 -0.7397  0.8645 -0.6909
14678TIP3   OH265448   3.661   2.995  16.095 -0.1610  0.7133  0.2686
14678TIP3    H165449   3.580   3.045  16.106 -0.7215  0.2222 -1.2459
14678TIP3    H265450   3.723   3.057  16.057 -0.6685  0.4584 -1.0379
14679TIP3   OH265451   1.534   5.685  15.746  0.4100 -0.0057 -0.3113
14679TIP3    H165452   1.499   5.716  15.662 -1.0917 -1.2766 -0.1984
14679TIP3    H265453   1.575   5.762  15.785  2.2093  0.3762 -2.7031
14680TIP3   OH265454   0.517   6.343   3.730 -0.1466  0.0704  0.0184
14680TIP3    H165455   0.461   6.317   3.657  1.2918 -1.4451 -0.5861
14680TIP3    H265456   0.578   6.406   3.692  0.7851 -0.9338 -0.1862
14681TIP3   OH265457   0.566   4.310   0.005  0.1295  0.0440  0.5388
14681TIP3    H165458   0.558   4.238   0.067 -2.3611 -1.2953 -1.1329
14681TIP3    H265459   0.607   4.271  -0.072 -0.3015  0.6726 -0.0230
14682TIP3   OH265460   6.596   4.834  13.885  0.1225  0.3112  0.2549
14682TIP3    H165461   6.596   4.749  13.842 -0.1896  0.5572 -0.2453
14682TIP3    H265462   6.688   4.860  13.887  0.0742  0.7308 -1.1755
14683TIP3   OH265463   6.726   5.325  15.610 -0.0398  0.0985  0.2225
14683TIP3    H165464   6.775   5.326  15.692  0.4741 -0.7603 -0.0624
14683TIP3    H265465   6.792   5.315  15.542 -0.5135  0.1650 -0.2609
14684TIP3   OH265466   5.984   0.772  13.907  0.3772 -0.0128 -0.4533
14684TIP3    H165467   5.971   0.682  13.937  0.0798 -0.1961 -1.1053
14684TIP3    H265468   5.935   0.776  13.824 -1.4989  1.3683  0.6465
14685TIP3   OH265469   0.671   0.743  11.334 -0.1994 -0.0797 -0.0226
14685TIP3    H165470   0.604   0.809  11.354 -0.8093 -0.8599  0.6089
14685TIP3    H265471   0.646   0.710  11.248  0.1237  0.5137 -0.3535
14686TIP3   OH265472   4.187   3.918   3.802 -0.1421 -0.5730  0.1696
14686TIP3    H165473   4.160   3.945   3.890 -0.1568 -0.2852  0.0774
14686TIP3    H265474   4.105   3.905   3.754 -0.2527  3.8090 -1.2090
14687TIP3   OH265475   6.528   3.266   5.108 -0.3967  0.6961  0.5257
14687TIP3    H165476   6.502   3.259   5.200 -0.0569  0.0834  0.5787
14687TIP3    H265477   6.584   3.344   5.104  0.6647 -0.0161  1.0919
14688TIP3   OH265478   2.416   6.198   2.065  0.3235 -0.2934  0.0323
14688TIP3    H165479   2.360   6.129   2.030 -0.9273  1.0162 -0.6550
14688TIP3    H265480   2.370   6.228   2.143  0.1898  0.6099 -0.3843
14689TIP3   OH265481   4.780   3.089   0.373 -0.0882  0.4996 -0.4465
14689TIP3    H165482   4.713   3.155   0.393 -0.4185  0.1189 -0.2701
14689TIP3    H265483   4.790   3.040   0.455 -0.5708 -0.3010 -0.8485
14690TIP3   OH265484   0.821   5.383   5.728 -0.4231  0.6088 -0.1306
14690TIP3    H165485   0.733   5.357   5.758 -0.5226  0.7605 -0.2906
14690TIP3    H265486   0.876   5.307   5.748 -0.5555  0.5809  0.1350
14691TIP3   OH265487   1.806   0.512  13.235 -0.2166 -0.3600 -0.2958
14691TIP3    H165488   1.763   0.431  13.208 -1.7647  0.5200 -0.5636
14691TIP3    H265489   1.736   0.565  13.273  0.9928  0.3880  0.9879
14692TIP3   OH265490   3.776   4.092  13.327 -0.2755  0.7362 -0.2285
14692TIP3    H165491   3.720   4.024  13.364 -0.9137 -0.2565 -2.8399
14692TIP3    H265492   3.721   4.171  13.329 -1.2266  0.1278 -1.3106
14693TIP3   OH265493   6.116   1.955   1.906 -0.2385  0.3340 -0.0267
14693TIP3    H165494   6.174   2.030   1.894 -0.8929  1.0716  1.2594
14693TIP3    H265495   6.069   1.973   1.987 -0.3807 -1.5027  0.3492
14694TIP3   OH265496   4.556   2.208  12.727 -0.1433 -0.5715 -0.1146
14694TIP3    H165497   4.644   2.243  12.737 -0.0615 -0.9400  0.4952
14694TIP3    H265498   4.519   2.210  12.815 -1.2886  0.9849 -0.5975
14695TIP3   OH265499   3.224   1.908  16.100  0.6948 -0.1548 -0.1491
14695TIP3    H165500   3.184   1.946  16.177 -0.1977 -0.6545 -0.3572
14695TIP3    H265501   3.192   1.818  16.097  0.8583 -0.1976 -1.0028
14696TIP3   OH265502   4.387   6.569  14.815 -0.4194 -0.7887 -0.0811
14696TIP3    H165503   4.481   6.552  14.807 -0.2013 -0.0467  0.8188
14696TIP3    H265504   4.357   6.574  14.724  0.2773 -1.6806 -0.3832
14697TIP3   OH265505   3.690   5.446   3.594  0.3065 -0.4289  0.1284
14697TIP3    H165506   3.666   5.538   3.590  0.9506 -0.2373  0.5489
14697TIP3    H265507   3.660   5.417   3.680 -0.3412 -0.7507 -0.1933
14698TIP3   OH265508   1.467   3.604   2.953 -0.0079  0.1476  0.4494
14698TIP3    H165509   1.469   3.576   2.862 -0.4930  1.2250  0.0954
14698TIP3    H265510   1.375   3.599   2.978 -0.2132  1.9766  0.1788
14699TIP3   OH265511   0.288   0.779   3.016 -0.1240 -0.0628  0.1111
14699TIP3    H165512   0.273   0.741   3.103 -2.7510  0.8433  0.1173
14699TIP3    H265513   0.283   0.704   2.956  0.2706 -0.4845  0.5945
14700TIP3   OH265514   4.166   6.730  16.854  0.2750 -0.4091  0.1960
14700TIP3    H165515   4.072   6.742  16.842  0.0360 -0.8898  1.4540
14700TIP3    H265516   4.193   6.806  16.906  0.5280 -0.4425  0.1142
14701TIP3   OH265517   0.131   5.384   1.317  0.4265 -0.2250  0.5362
14701TIP3    H165518   0.112   5.395   1.224  1.4068  1.4626  0.4800
14701TIP3    H265519   0.159   5.294   1.326  0.9164 -0.2408 -0.9218
14702TIP3   OH265520   0.503   0.970  10.736  0.5610  0.2785 -0.3886
14702TIP3    H165521   0.569   0.949  10.801  2.2671  0.0694 -2.1146
14702TIP3    H265522   0.487   1.064  10.747  2.2857  0.6628 -0.9159
14703TIP3   OH265523   3.158   6.155  14.367  0.1228  0.1258 -0.5813
14703TIP3    H165524   3.070   6.129  14.394 -0.1278 -0.9977 -2.2988
14703TIP3    H265525   3.165   6.126  14.276  1.9579  0.9992 -0.7741
14704TIP3   OH265526   6.316   4.499   6.478 -0.1830 -0.1564 -0.0287
14704TIP3    H165527   6.286   4.473   6.565  1.1430 -0.0596  0.4742
14704TIP3    H265528   6.404   4.463   6.471  0.6611  1.8346 -0.3665
14705TIP3   OH265529   1.622   0.851  14.938  0.1038  0.1156  0.4608
14705TIP3    H165530   1.687   0.919  14.954 -1.5374  2.0440 -0.5023
14705TIP3    H265531   1.621   0.798  15.018  3.0820 -0.2825  0.3191
14706TIP3   OH265532   5.771   1.424   2.348 -0.1597 -0.8121 -0.0461
14706TIP3    H165533   5.783   1.459   2.436 -0.1006 -0.9977  0.0181
14706TIP3    H265534   5.741   1.500   2.297 -1.5878 -1.0265  0.4409
14707TIP3   OH265535   4.853   4.481  15.582  0.7591 -0.4685  0.1494
14707TIP3    H165536   4.932   4.429  15.598  0.7335 -0.2460  1.0537
14707TIP3    H265537   4.881   4.572  15.590  0.4986 -0.3764  0.0404
14708TIP3   OH265538   0.821   2.106   2.957  0.2011  0.3835 -0.4618
14708TIP3    H165539   0.768   2.051   2.900  1.1301 -0.8757 -0.1430
14708TIP3    H265540   0.783   2.194   2.947 -2.2146 -0.5127  0.0985
14709TIP3   OH265541   0.630   1.588  13.303  0.1672  0.3046 -0.6654
14709TIP3    H165542   0.689   1.581  13.379  1.4845 -2.3848 -1.8173
14709TIP3    H265543   0.542   1.581  13.340  0.7763 -1.0132  0.6272
14710TIP3   OH265544   3.950   4.722   1.407  0.2726  0.5315 -0.1983
14710TIP3    H165545   3.995   4.709   1.323  3.4944  0.4353  1.3694
14710TIP3    H265546   3.910   4.638   1.427  0.8700  0.0676 -0.9011
14711TIP3   OH265547   1.207   1.337   5.509 -0.5740 -0.0159 -0.0786
14711TIP3    H165548   1.230   1.423   5.472  2.0702  0.9112  3.1537
14711TIP3    H265549   1.183   1.284   5.433  1.2089  2.5480 -2.6945
14712TIP3   OH265550   0.115   3.536  13.240  0.1079  0.0447  0.4216
14712TIP3    H165551   0.122   3.631  13.249  0.5384 -0.0790  1.4420
14712TIP3    H265552   0.094   3.505  13.328 -0.7171 -0.7487 -0.0431
14713TIP3   OH265553   2.678   3.545  16.579 -0.0628 -0.1386  0.0044
14713TIP3    H165554   2.640   3.619  16.628 -2.9033 -1.5921  0.2099
14713TIP3    H265555   2.659   3.565  16.488 -1.3715 -0.8273  0.1008
14714TIP3   OH265556   5.335   0.907   0.068 -0.1205  0.0558 -0.1104
14714TIP3    H165557   5.354   0.813   0.067 -1.7645 -0.3032 -0.7200
14714TIP3    H265558   5.416   0.948   0.098 -0.3707 -1.8183  3.7752
14715TIP3   OH265559   5.327   0.613  10.324 -0.2558 -0.1185  0.1119
14715TIP3    H165560   5.338   0.521  10.299  0.0448  0.2857 -1.3078
14715TIP3    H265561   5.232   0.623  10.335 -0.3498 -0.4467 -0.3597
14716TIP3   OH265562   5.005   4.082   4.485 -0.1699 -0.0310  0.1129
14716TIP3    H165563   5.074   4.148   4.489 -0.3063  0.1503 -0.4541
14716TIP3    H265564   5.044   4.005   4.526  0.0699  0.3306  0.5734
14717TIP3   OH265565   4.975   0.635  11.440  0.4147  0.4500 -0.4671
14717TIP3    H165566   4.997   0.586  11.361  1.1953  1.0689 -0.6539
14717TIP3    H265567   5.051   0.624  11.497 -0.6790 -1.0826  0.7777
14718TIP3   OH265568   4.499   4.956  15.565  0.3264 -0.4910 -0.0847
14718TIP3    H165569   4.564   4.933  15.498  0.8002 -1.1652  0.5985
14718TIP3    H265570   4.516   4.896  15.637 -1.5718 -1.2329 -0.1900
14719TIP3   OH265571   5.223   0.285   3.463  0.2487  0.1829  0.1559
14719TIP3    H165572   5.181   0.243   3.538  1.3913 -0.3020  0.5360
14719TIP3    H265573   5.290   0.342   3.500  0.0175  0.8805 -0.4512
14720TIP3   OH265574   1.342   2.478  16.670  0.1535 -0.2665 -0.4287
14720TIP3    H165575   1.313   2.525  16.592 -1.2870  0.0780  0.2922
14720TIP3    H265576   1.438   2.480  16.665  0.0878 -0.7051 -2.4394
14721TIP3   OH265577   3.296   0.256   2.393 -0.0196  0.7402  0.0205
14721TIP3    H165578   3.326   0.245   2.483 -3.2429 -1.0054  1.0524
14721TIP3    H265579   3.267   0.168   2.367 -2.3485  1.8335 -1.4042
14722TIP3   OH265580   1.334   2.448  11.802  0.7102 -0.2225 -0.1622
14722TIP3    H165581   1.352   2.393  11.878 -2.4362 -1.4433 -0.1790
14722TIP3    H265582   1.249   2.419  11.770  1.1726  1.3580 -3.2048
14723TIP3   OH265583   6.047   1.021   0.568 -0.0795  0.0910  0.1164
14723TIP3    H165584   6.091   0.936   0.573  1.7971  1.0089  0.1992
14723TIP3    H265585   5.959   1.001   0.537  0.6285 -1.7914 -0.8263
14724TIP3   OH265586   1.528   1.275   2.645 -0.3790 -0.1123  0.2118
14724TIP3    H165587   1.601   1.299   2.701 -1.2237  0.3401  1.1585
14724TIP3    H265588   1.522   1.345   2.581 -0.0875 -0.0623  0.2410
14725TIP3   OH265589   4.738   3.602  16.108 -0.3240 -0.2208 -0.2134
14725TIP3    H165590   4.769   3.596  16.018  3.0090  1.3043  0.6906
14725TIP3    H265591   4.729   3.697  16.123  0.8772 -0.3427  1.5155
14726TIP3   OH265592   2.445   5.315   3.712 -0.0290  0.0492 -0.5342
14726TIP3    H165593   2.487   5.231   3.694 -0.4037 -0.1183 -0.6462
14726TIP3    H265594   2.470   5.335   3.803 -2.4449 -1.7374  0.6411
14727TIP3   OH265595   2.342   4.184   0.194 -0.1209 -0.2120  0.5349
14727TIP3    H165596   2.246   4.176   0.193 -0.2707  0.9007 -1.9849
14727TIP3    H265597   2.373   4.096   0.173 -0.5659 -0.5770  1.3367
14728TIP3   OH265598   2.012   4.503   6.328 -0.8853 -0.1079  0.4514
14728TIP3    H165599   2.105   4.521   6.313 -0.8086 -0.1786  0.8408
14728TIP3    H265600   1.981   4.468   6.245 -0.8388  1.0176 -0.0528
14729TIP3   OH265601   0.006   3.061   6.019 -0.0990  0.6693  0.3986
14729TIP3    H165602   0.032   2.969   6.028  0.4866  0.4580 -2.4531
14729TIP3    H265603   0.085   3.106   5.987 -0.8186  1.8163  0.1653
14730TIP3   OH265604   4.413   3.407   2.133 -0.1639 -0.2055  0.0898
14730TIP3    H165605   4.335   3.460   2.116 -0.2737 -0.6021 -0.6509
14730TIP3    H265606   4.483   3.472   2.144 -0.6311  0.1667  1.0507
14731TIP3   OH265607   1.203   3.461  10.682 -0.0837 -0.2462  0.1147
14731TIP3    H165608   1.196   3.541  10.734 -1.4779 -0.5165  0.3866
14731TIP3    H265609   1.200   3.490  10.591  2.8248  0.2710  0.1028
14732TIP3   OH265610   0.286   0.602   1.161  0.2622  0.0070 -0.0498
14732TIP3    H165611   0.206   0.653   1.149  1.1979  1.1835 -1.6768
14732TIP3    H265612   0.269   0.549   1.239 -1.3523  1.6643  0.7971
14733TIP3   OH265613   0.758   3.393  15.179  0.6434 -0.6276  0.4236
14733TIP3    H165614   0.673   3.412  15.218 -0.4049  1.2595 -2.4386
14733TIP3    H265615   0.816   3.461  15.212  0.0390  0.3172 -0.3966
14734TIP3   OH265616   3.478   2.834  11.480  0.4674  0.4454 -0.2511
14734TIP3    H165617   3.538   2.760  11.491  0.2096  0.3539  0.5760
14734TIP3    H265618   3.529   2.899  11.431  0.9682  0.0467 -0.2679
14735TIP3   OH265619   2.532   6.614   2.280  0.4666 -0.3632 -0.3201
14735TIP3    H165620   2.482   6.677   2.228 -0.1574  0.0795  0.7913
14735TIP3    H265621   2.470   6.544   2.299  1.0595 -1.1810 -1.2468
14736TIP3   OH265622   0.869   5.028  11.241  0.4162  0.3575  0.1961
14736TIP3    H165623   0.782   5.062  11.262  0.6760  1.3633 -0.3069
14736TIP3    H265624   0.880   5.045  11.148  0.9324 -0.2930  0.1253
14737TIP3   OH265625   3.841   5.490  15.959  0.2320 -0.1737 -0.5216
14737TIP3    H165626   3.763   5.507  15.906  0.9994 -2.2553 -2.4968
14737TIP3    H265627   3.880   5.576  15.972 -1.8763  0.8192 -0.2356
14738TIP3   OH265628   5.467   5.830   4.445  0.2291 -0.0452  0.4486
14738TIP3    H165629   5.469   5.870   4.358 -0.2938  1.6431  1.1618
14738TIP3    H265630   5.446   5.738   4.429  1.8543 -0.1720 -1.3015
14739TIP3   OH265631   2.706   6.608  13.563 -0.0198 -0.6340 -0.4422
14739TIP3    H165632   2.643   6.637  13.496 -0.8311 -0.5341  0.3437
14739TIP3    H265633   2.698   6.513  13.562 -1.4039 -0.5732  0.7571
14740TIP3   OH265634   6.544   4.972   4.448  0.4378 -0.1798  0.5541
14740TIP3    H165635   6.520   4.939   4.362  2.4846 -0.3226 -0.0005
14740TIP3    H265636   6.525   5.066   4.444  2.5910  0.2546 -0.8765
14741TIP3   OH265637   3.209   3.418   5.428 -0.5126  0.2070  0.0466
14741TIP3    H165638   3.295   3.454   5.448  0.0790 -0.2755 -1.5236
14741TIP3    H265639   3.226   3.332   5.390 -1.6955 -0.0212 -0.0245
14742TIP3   OH265640   2.338   4.433   2.935  0.1244 -0.0468  0.0064
14742TIP3    H165641   2.410   4.491   2.911 -0.9746  1.4294  0.1216
14742TIP3    H265642   2.379   4.347   2.945  1.4567  0.2586 -2.2384
14743TIP3   OH265643   1.012   5.735   1.293  0.2588  0.0100  0.3544
14743TIP3    H165644   0.998   5.701   1.205 -0.0068 -1.6582  1.0137
14743TIP3    H265645   0.933   5.712   1.341  0.3894  0.9294  1.0433
14744TIP3   OH265646   6.629   5.399  13.410 -0.4839  0.2369 -0.3679
14744TIP3    H165647   6.696   5.372  13.347 -1.1445  1.5168 -1.6820
14744TIP3    H265648   6.551   5.349  13.384 -0.6322  0.4077 -0.2515
14745TIP3   OH265649   5.572   6.573   0.363 -0.0774  0.5108 -0.2768
14745TIP3    H165650   5.493   6.627   0.365  0.4963  1.3652 -0.3179
14745TIP3    H265651   5.540   6.483   0.356 -1.0065  0.9729 -2.6229
14746TIP3   OH265652   2.699   1.580  16.927 -0.8790  0.3823 -0.7507
14746TIP3    H165653   2.606   1.596  16.945 -0.6118  1.9275 -0.6117
14746TIP3    H265654   2.701   1.551  16.835 -1.4042  1.5251 -1.1409
14747TIP3   OH265655   0.581   3.373  17.256 -0.1180  0.1014  0.3692
14747TIP3    H165656   0.510   3.327  17.212 -0.2685  1.5336 -0.9704
14747TIP3    H265657   0.653   3.311  17.256 -1.1393 -1.1151  1.1093
14748TIP3   OH265658   5.310   1.000   3.979 -0.3577 -0.5131 -0.1049
14748TIP3    H165659   5.363   0.943   3.923  0.1675  1.1382 -1.3549
14748TIP3    H265660   5.366   1.074   3.998 -1.7024  0.5667 -0.2137
14749TIP3   OH265661   5.577   4.518   3.180  0.1356 -0.0329  0.4822
14749TIP3    H165662   5.491   4.522   3.138  0.0959 -2.7090  0.0990
14749TIP3    H265663   5.619   4.441   3.141  1.7995 -0.1396  2.3000
14750TIP3   OH265664   2.365   5.732  15.472  0.8198 -0.2846  0.6661
14750TIP3    H165665   2.350   5.735  15.567  1.2405  1.6393  0.7002
14750TIP3    H265666   2.431   5.799  15.456 -1.1405  1.2898 -1.3294
14751TIP3   OH265667   5.891   2.734   4.486 -0.5802 -0.1408  0.1555
14751TIP3    H165668   5.964   2.741   4.425  0.2855 -3.6145  0.5483
14751TIP3    H265669   5.916   2.790   4.560 -0.4925  2.1727 -1.5271
14752TIP3   OH265670   3.484   6.272   1.728  0.0746 -0.0567  0.0390
14752TIP3    H165671   3.452   6.236   1.810 -0.5236  1.4797  0.5309
14752TIP3    H265672   3.406   6.307   1.685  0.1130 -2.2056 -1.9726
14753TIP3   OH265673   4.018   3.512  11.372  0.0833 -0.7639  0.0037
14753TIP3    H165674   4.058   3.425  11.367  0.7393 -0.4214 -0.8981
14753TIP3    H265675   3.939   3.506  11.319  0.9370 -0.3961 -1.3516
14754TIP3   OH265676   5.633   0.120  15.867  0.1480 -0.1569  0.0929
14754TIP3    H165677   5.712   0.145  15.821  0.1066 -2.3972 -1.3299
14754TIP3    H265678   5.663   0.092  15.954  0.4660  2.1119  0.7707
14755TIP3   OH265679   0.933   2.415  12.451 -0.5226  0.4991  0.5476
14755TIP3    H165680   0.859   2.449  12.502  0.2643  1.7710  0.8943
14755TIP3    H265681   0.998   2.485  12.454  0.5381 -0.4269 -0.1054
14756TIP3   OH265682   4.833   6.654   1.929 -0.0983  0.3408 -0.5626
14756TIP3    H165683   4.917   6.699   1.933  0.2270 -0.2982  0.0473
14756TIP3    H265684   4.804   6.664   1.839  0.7528  0.3450 -0.8358
14757TIP3   OH265685   5.820   4.285   5.386 -0.0295  0.5925  0.0767
14757TIP3    H165686   5.778   4.327   5.311 -0.1793  1.5643  0.6881
14757TIP3    H265687   5.914   4.298   5.372  0.2555 -2.6348 -1.9172
14758TIP3   OH265688   5.166   1.440  15.287  0.5360  0.3602 -0.3948
14758TIP3    H165689   5.110   1.424  15.211  1.0198  0.4963 -0.7839
14758TIP3    H265690   5.220   1.361  15.294 -0.5539 -0.3301  0.7480
14759TIP3   OH265691   2.564   2.316   4.710 -0.5294  0.4913  0.0963
14759TIP3    H165692   2.555   2.224   4.685 -1.1320  0.6701 -0.3631
14759TIP3    H265693   2.647   2.320   4.758  0.1483 -0.0462 -1.0042
14760TIP3   OH265694   3.584   2.774  11.986 -0.5876 -0.4202  0.0003
14760TIP3    H165695   3.600   2.774  11.892  0.7217  0.2394  0.2032
14760TIP3    H265696   3.523   2.702  12.000  1.0830 -2.1086 -1.0455
14761TIP3   OH265697   1.542   2.938  16.576 -0.4035  0.0544  0.5127
14761TIP3    H165698   1.456   2.974  16.597 -0.7182 -0.7454  0.6533
14761TIP3    H265699   1.561   2.878  16.649  0.3099  0.2859  0.5256
14762TIP3   OH265700   6.071   3.892  13.981  0.5719  0.6190 -0.0281
14762TIP3    H165701   6.004   3.932  14.037 -0.2624 -1.6457  0.7142
14762TIP3    H265702   6.038   3.903  13.892  0.4100  1.5883  0.1381
14763TIP3   OH265703   2.029   5.464  13.193 -0.5963  0.2573 -0.3069
14763TIP3    H165704   2.047   5.461  13.287 -0.0237  1.1144 -0.3791
14763TIP3    H265705   1.990   5.379  13.174  0.2693 -0.3492  0.5040
14764TIP3   OH265706   0.587   5.075  15.273  0.0742  0.1506 -0.6779
14764TIP3    H165707   0.676   5.067  15.307 -0.4538  0.0602  0.7571
14764TIP3    H265708   0.573   4.994  15.223  0.0257 -0.9593  1.0312
14765TIP3   OH265709   5.446   2.916  15.161 -0.2984  0.3117  0.2966
14765TIP3    H165710   5.413   2.826  15.165 -1.4652  0.7404  1.2683
14765TIP3    H265711   5.454   2.942  15.253  1.3112  0.7782  0.0499
14766TIP3   OH265712   1.942   2.010   3.262  0.2371 -0.1515  0.0056
14766TIP3    H165713   1.864   2.064   3.275  0.0318  0.0298 -1.7421
14766TIP3    H265714   1.907   1.925   3.235  0.6315 -0.0520 -0.8391
14767TIP3   OH265715   3.159   4.909  11.197 -0.4156  0.2813 -1.0315
14767TIP3    H165716   3.209   4.846  11.144  0.2636  0.2536 -0.3608
14767TIP3    H265717   3.098   4.948  11.134 -0.7207 -0.8933 -1.5096
14768TIP3   OH265718   0.367   5.596   4.486 -0.0080  0.1823  0.0040
14768TIP3    H165719   0.342   5.510   4.518  0.3538 -1.4842 -3.6408
14768TIP3    H265720   0.448   5.580   4.436  0.8002  2.9003  0.2892
14769TIP3   OH265721   0.612   1.048  12.674  0.3721 -0.6456 -0.4174
14769TIP3    H165722   0.615   1.102  12.753  0.5927 -0.5149 -0.5138
14769TIP3    H265723   0.658   1.100  12.608 -3.4112  1.2582 -1.8680
14770TIP3   OH265724   0.772   4.695  15.682  0.0354 -0.6961 -0.2825
14770TIP3    H165725   0.786   4.664  15.772  0.4279 -2.1497 -0.8246
14770TIP3    H265726   0.860   4.709  15.647 -0.1119 -0.4653 -0.5694
14771TIP3   OH265727   3.172   5.886   3.822  0.2661 -0.3637  0.3805
14771TIP3    H165728   3.120   5.950   3.871  0.1154  0.8390 -1.2629
14771TIP3    H265729   3.109   5.819   3.795  0.0224 -0.1422  0.3941
14772TIP3   OH265730   3.319   6.595   0.409 -0.0560 -0.4508  0.0654
14772TIP3    H165731   3.325   6.533   0.336  0.9405  0.3835 -0.5886
14772TIP3    H265732   3.335   6.542   0.487  1.1216 -0.9790 -0.5114
14773TIP3   OH265733   0.441   1.287  14.678  0.1493 -0.0522  0.4401
14773TIP3    H165734   0.373   1.351  14.699 -0.3970 -0.5350  0.1478
14773TIP3    H265735   0.420   1.256  14.590  1.1830  0.3467  0.0351
14774TIP3   OH265736   0.002   4.517  16.749  0.3411  0.1291 -0.4397
14774TIP3    H165737   0.018   4.470  16.668  0.5321 -1.1826  0.3412
14774TIP3    H265738  -0.005   4.609  16.722 -1.5437 -0.4574 -2.1864
14775TIP3   OH265739   6.371   6.753   4.443  0.1049 -0.6369 -0.1310
14775TIP3    H165740   6.282   6.789   4.436 -0.3521 -1.5856  0.6111
14775TIP3    H265741   6.404   6.755   4.353 -0.6468 -0.2351 -0.4148
14776TIP3   OH265742   0.939   4.794   3.476  0.1158  0.0882  0.2313
14776TIP3    H165743   0.889   4.741   3.538 -2.3205  2.1916  0.2489
14776TIP3    H265744   0.929   4.884   3.509  2.2532  0.8143 -0.9562
14777TIP3   OH265745   5.527   6.674  11.105 -0.0553  0.2880 -0.2290
14777TIP3    H165746   5.603   6.637  11.150  0.2626  0.5089 -0.5774
14777TIP3    H265747   5.542   6.769  11.106 -0.7018  0.3879  0.3691
14778TIP3   OH265748   0.528   3.491  13.795  0.6331  0.3699  0.5362
14778TIP3    H165749   0.535   3.440  13.875  0.0251  1.0373  1.0369
14778TIP3    H265750   0.506   3.427  13.727  1.0349 -0.1841  0.9176
14779TIP3   OH265751   5.012   5.076  11.339  0.2992 -0.6013  0.1970
14779TIP3    H165752   5.080   5.104  11.278  1.7093 -2.0315  1.0500
14779TIP3    H265753   5.050   5.090  11.426 -1.0422 -0.1344  0.7424
14780TIP3   OH265754   1.258   3.996   3.931  0.5839  0.2610  0.3536
14780TIP3    H165755   1.229   4.031   3.847 -0.8931 -2.3065 -0.3021
14780TIP3    H265756   1.256   4.071   3.990 -2.0113  1.4161 -1.0451
14781TIP3   OH265757   0.970   4.404   0.544  0.2387 -0.2075 -0.0174
14781TIP3    H165758   0.918   4.357   0.479  0.2161 -0.9414  0.5171
14781TIP3    H265759   0.965   4.496   0.517 -1.0581 -0.3030 -0.1683
14782TIP3   OH265760   6.546   3.742  13.646  1.0473  0.0290 -0.4135
14782TIP3    H165761   6.590   3.708  13.724  0.5359 -1.0041 -0.5619
14782TIP3    H265762   6.454   3.746  13.670  0.7184 -1.4154 -1.3241
14783TIP3   OH265763   2.666   4.331  13.122  0.3731 -0.2342  0.5574
14783TIP3    H165764   2.631   4.414  13.090 -1.4766 -1.4873 -0.9252
14783TIP3    H265765   2.611   4.308  13.197 -0.0359 -0.7411  0.1168
14784TIP3   OH265766   0.739   4.601  16.740 -0.5152 -0.8763 -0.2155
14784TIP3    H165767   0.753   4.643  16.655 -1.1201  0.2046  0.2059
14784TIP3    H265768   0.813   4.630  16.794 -1.0121 -0.2214  0.1207
14785TIP3   OH265769   0.201   4.926   2.402 -0.2542 -0.8114  0.2985
14785TIP3    H165770   0.239   4.854   2.351 -1.9637 -2.8937  1.7863
14785TIP3    H265771   0.273   4.958   2.456  0.9809 -0.1425 -1.6502
14786TIP3   OH265772   3.987   4.007   1.962 -0.4766 -0.5173 -0.2861
14786TIP3    H165773   3.936   4.085   1.940 -0.5082 -0.3656  0.3205
14786TIP3    H265774   4.074   4.040   1.985 -0.1252 -0.7670 -1.2072
14787TIP3   OH265775   2.452   4.705  12.690 -0.0569 -0.1574  0.4648
14787TIP3    H165776   2.484   4.615  12.688 -1.2464 -0.6372 -2.2733
14787TIP3    H265777   2.386   4.707  12.760  0.0078 -1.4061  0.5735
14788TIP3   OH265778   5.954   4.902  16.368  0.2239 -0.3870 -0.2683
14788TIP3    H165779   5.952   4.902  16.464  2.1344  0.2827 -0.1731
14788TIP3    H265780   5.884   4.962  16.343 -0.0180 -0.2241  0.7260
14789TIP3   OH265781   0.002   2.340  12.198  0.2357  0.4443  0.4776
14789TIP3    H165782  -0.026   2.249  12.211 -0.7353  0.5345 -0.7237
14789TIP3    H265783   0.090   2.333  12.161  0.0337 -0.0405  0.0639
14790TIP3   OH265784   0.381   5.184   5.959 -0.4222  0.2526  0.4001
14790TIP3    H165785   0.424   5.239   6.024  0.3494  2.4060 -1.7936
14790TIP3    H265786   0.334   5.245   5.902 -2.4367 -1.6671 -0.1624
14791TIP3   OH265787   1.372   3.124   4.668  0.5605  0.2322 -0.6052
14791TIP3    H165788   1.467   3.110   4.677  0.7152  0.5900 -1.5758
14791TIP3    H265789   1.333   3.060   4.727  1.3800 -0.9561 -1.3068
14792TIP3   OH265790   4.850   3.343   3.109  0.5132 -0.1394 -0.4804
14792TIP3    H165791   4.943   3.337   3.129  0.5859  0.1532 -0.7291
14792TIP3    H265792   4.832   3.437   3.107  0.2763 -0.1890 -0.7260
14793TIP3   OH265793   0.775   0.477   0.567  0.8450 -0.1730 -0.1849
14793TIP3    H165794   0.765   0.382   0.564  1.1808 -0.2540  0.7784
14793TIP3    H265795   0.783   0.497   0.660  0.6363  0.8191 -0.3692
14794TIP3   OH265796   3.216   4.576  17.054 -0.3880  0.2460  0.1977
14794TIP3    H165797   3.214   4.501  16.995  1.0933 -1.8468  2.6026
14794TIP3    H265798   3.188   4.541  17.138  0.8986  2.2665  1.5530
14795TIP3   OH265799   4.484   4.175   5.555 -0.2366  0.4465  1.0020
14795TIP3    H165800   4.502   4.101   5.613  0.5305  0.0172  0.2471
14795TIP3    H265801   4.456   4.245   5.614 -1.2106 -0.5007  1.7044
14796TIP3   OH265802   5.939   0.049   2.621 -0.4082 -0.0531  0.0686
14796TIP3    H165803   6.015   0.081   2.573 -0.1966 -0.5935  0.0410
14796TIP3    H265804   5.864   0.084   2.573 -0.1892  1.1486  0.5422
14797TIP3   OH265805   0.458   5.578  11.817  0.2109  0.6617  0.1641
14797TIP3    H165806   0.546   5.542  11.825  0.6036  1.7952  1.2965
14797TIP3    H265807   0.454   5.610  11.726  0.0723 -1.5405 -0.6543
14798TIP3   OH265808   4.204   4.654   2.647  0.3419  0.0756 -0.6495
14798TIP3    H165809   4.280   4.711   2.650  2.0685 -2.0860 -0.3030
14798TIP3    H265810   4.153   4.678   2.724  2.8277 -1.0839  1.5068
14799TIP3   OH265811   2.843   0.998  13.135 -0.3612 -0.0759 -0.1856
14799TIP3    H165812   2.793   0.933  13.085 -0.9674 -0.6982  1.1789
14799TIP3    H265813   2.873   0.951  13.212  0.7983  0.7900 -0.0775
14800TIP3   OH265814   4.814   2.377   6.406  0.0074 -0.0148 -0.1672
14800TIP3    H165815   4.875   2.448   6.425  0.2380 -0.1079 -0.5674
14800TIP3    H265816   4.757   2.411   6.338 -1.3020  0.5893  1.1621
14801TIP3   OH265817   0.833   1.959   4.672  0.2618 -0.5053 -0.2479
14801TIP3    H165818   0.928   1.946   4.673  0.6059  1.5642 -1.1376
14801TIP3    H265819   0.798   1.888   4.726  2.4331 -0.3796  1.4411
14802TIP3   OH265820   6.429   0.689   1.149 -0.2894 -0.1894 -0.0285
14802TIP3    H165821   6.384   0.622   1.200 -2.2531  0.4001 -0.8999
14802TIP3    H265822   6.451   0.756   1.213  0.5113 -1.0483  0.6222
14803TIP3   OH265823   5.732   2.881   0.980 -0.1664  0.0004 -0.1046
14803TIP3    H165824   5.702   2.790   0.982  0.6986 -0.2956 -0.3998
14803TIP3    H265825   5.750   2.899   0.887  0.1975  0.2952  0.0203
14804TIP3   OH265826   4.846   0.276   1.879  0.0419  0.2980  0.8980
14804TIP3    H165827   4.819   0.339   1.946  1.2823  0.8344  0.9231
14804TIP3    H265828   4.873   0.199   1.928 -0.5878  0.0777  0.9136
14805TIP3   OH265829   1.140   2.027  16.196  0.1414  0.6691 -0.5658
14805TIP3    H165830   1.225   1.997  16.163 -0.9836 -3.8710 -0.0925
14805TIP3    H265831   1.086   2.036  16.117  0.1597  0.0259 -0.6573
14806TIP3   OH265832   6.744   4.281   5.155  0.7791  0.0273  0.2683
14806TIP3    H165833   6.669   4.228   5.182  0.4148  1.1951  1.7449
14806TIP3    H265834   6.820   4.225   5.170  0.3550 -0.3563  1.0670
14807TIP3   OH265835   6.027   4.811  14.356 -0.0865 -0.2426  0.0171
14807TIP3    H165836   6.089   4.855  14.415  1.5352 -0.9073 -1.1012
14807TIP3    H265837   5.981   4.882  14.312  0.2985  0.2955  0.4716
14808TIP3   OH265838   1.091   6.369  10.936  0.4489 -0.2203 -0.5712
14808TIP3    H165839   1.052   6.455  10.926  1.4551  0.3655  0.4198
14808TIP3    H265840   1.027   6.319  10.987  0.2693  0.2191 -0.3652
14809TIP3   OH265841   0.024   1.046  14.273  0.5788  0.8773  0.2883
14809TIP3    H165842  -0.050   0.992  14.245  1.0814  0.1084  0.3960
14809TIP3    H265843   0.022   1.042  14.368  1.5189 -0.2568  0.2915
14810TIP3   OH265844   0.815   5.337   0.088  0.0387  0.0724 -0.1886
14810TIP3    H165845   0.882   5.296   0.144  0.9652  2.7506  0.8378
14810TIP3    H265846   0.768   5.396   0.147 -1.7110 -0.0514 -1.4146
14811TIP3   OH265847   5.548   6.527   6.233 -0.1242  0.5870 -0.7983
14811TIP3    H165848   5.545   6.619   6.206 -1.6469  0.4783 -1.0818
14811TIP3    H265849   5.641   6.509   6.248  0.2068  2.1289 -0.8730
14812TIP3   OH265850   6.739   5.234   3.701  0.0302 -0.2427  0.2527
14812TIP3    H165851   6.676   5.164   3.682 -1.5339  1.6065 -1.9184
14812TIP3    H265852   6.694   5.290   3.764  0.0366  0.3886 -0.2990
14813TIP3   OH265853   3.127   6.539   6.519 -0.1345 -0.2851  0.5523
14813TIP3    H165854   3.204   6.545   6.462 -0.0346 -1.2320  0.5740
14813TIP3    H265855   3.063   6.596   6.477  0.4172  0.1537  0.2816
14814TIP3   OH265856   3.569   0.535  12.567  0.1017 -0.0164 -0.6997
14814TIP3    H165857   3.625   0.596  12.518 -0.1183  1.4902  0.8099
14814TIP3    H265858   3.481   0.555  12.537  0.0760  0.0379 -0.5887
14815TIP3   OH265859   5.118   2.698  12.699 -0.1184  0.2584  0.6879
14815TIP3    H165860   5.195   2.739  12.659  0.4983  0.8007  2.3340
14815TIP3    H265861   5.146   2.609  12.719 -0.0660  0.3144  0.8672
14816TIP3   OH265862   0.662   5.566   3.991  0.4293  0.3619 -0.3308
14816TIP3    H165863   0.608   5.639   4.021  1.2889 -0.1357  2.6802
14816TIP3    H265864   0.751   5.602   3.991  0.9286 -0.7382  1.6890
14817TIP3   OH265865   4.930   1.239   2.428  0.0957  0.1685  0.4980
14817TIP3    H165866   4.919   1.234   2.333 -0.7655  1.2031  0.5234
14817TIP3    H265867   4.985   1.316   2.442 -0.1674  0.2983  0.8562
14818TIP3   OH265868   6.026   1.191   3.606  0.2689  0.2941  0.7896
14818TIP3    H165869   6.066   1.111   3.572  1.0925  1.5225 -1.3002
14818TIP3    H265870   5.942   1.163   3.640  0.5027 -1.4561  0.0421
14819TIP3   OH265871   1.857   1.491   0.552  0.6317 -0.5915 -0.7594
14819TIP3    H165872   1.824   1.487   0.642 -1.9045  0.9158 -1.5125
14819TIP3    H265873   1.887   1.402   0.533  1.4404 -0.8941  1.6150
14820TIP3   OH265874   6.706   3.540  14.129  0.4158  0.3031  0.5185
14820TIP3    H165875   6.673   3.563  14.215 -0.2556  0.8326  0.1345
14820TIP3    H265876   6.801   3.534  14.139  0.3135 -0.0022  1.3661
14821TIP3   OH265877   3.915   0.329  16.549 -0.2082 -0.2706  0.2104
14821TIP3    H165878   3.964   0.358  16.472 -0.2071 -0.4722  0.1323
14821TIP3    H265879   3.982   0.290  16.606 -0.3078 -0.7509  0.0045
14822TIP3   OH265880   0.314   3.304  11.356 -0.5931  0.4589 -0.1131
14822TIP3    H165881   0.261   3.352  11.420  0.9011  1.6246  0.2985
14822TIP3    H265882   0.308   3.357  11.277  0.2850  0.8393  0.0642
14823TIP3   OH265883   3.245   5.806   1.866  0.6268 -0.2749 -0.0212
14823TIP3    H165884   3.230   5.783   1.958 -0.5650 -1.4777 -0.4817
14823TIP3    H265885   3.307   5.741   1.834  0.5370 -0.2552 -0.2372
14824TIP3   OH265886   0.293   5.323   4.500 -0.6093 -0.0930 -0.4587
14824TIP3    H165887   0.222   5.297   4.442 -0.8425 -2.2056  0.6804
14824TIP3    H265888   0.303   5.250   4.561  1.7142  0.6879  0.2085
14825TIP3   OH265889   5.732   0.196   1.877 -0.9317 -0.5187  0.3009
14825TIP3    H165890   5.818   0.238   1.874 -1.3036  0.3138  0.8604
14825TIP3    H265891   5.683   0.235   1.805 -0.1999 -2.5112 -1.3463
14826TIP3   OH265892   4.367   5.232  16.563 -0.0378 -0.2627 -0.2302
14826TIP3    H165893   4.282   5.189  16.547  0.7034 -1.2000 -2.0212
14826TIP3    H265894   4.428   5.183  16.508  1.3940  1.3509 -0.1458
14827TIP3   OH265895   2.095   3.416  14.411 -0.9253 -0.1692  1.0506
14827TIP3    H165896   2.036   3.409  14.336 -0.1182 -1.5871  0.5209
14827TIP3    H265897   2.048   3.374  14.483 -0.7861 -0.8189  0.7652
14828TIP3   OH265898   2.447   3.488   1.315  0.1458 -0.1366  0.2175
14828TIP3    H165899   2.463   3.464   1.407 -2.6436 -0.5932  0.6932
14828TIP3    H265900   2.433   3.404   1.271  1.5471  0.0776 -0.6902
14829TIP3   OH265901   5.517   1.685  16.066  0.0787 -0.6095 -0.0582
14829TIP3    H165902   5.540   1.776  16.086  0.9553 -0.7864 -0.2077
14829TIP3    H265903   5.423   1.680  16.082 -0.0892  0.4689 -0.5807
14830TIP3   OH265904   2.035   2.453  15.461  0.4977 -0.9124  0.0707
14830TIP3    H165905   1.963   2.504  15.497 -0.1875 -1.9455  0.2015
14830TIP3    H265906   2.114   2.501  15.486 -0.0645 -0.5591  1.2099
14831TIP3   OH265907   0.764   1.344   6.339  0.3264  0.1815  0.7114
14831TIP3    H165908   0.684   1.358   6.390 -0.0708 -0.4343  0.2691
14831TIP3    H265909   0.786   1.431   6.305 -0.6847  0.2104  0.0653
14832TIP3   OH265910   3.941   2.499  10.745 -0.1660  0.0440  0.2085
14832TIP3    H165911   3.848   2.476  10.749  0.1810 -1.3261  0.7353
14832TIP3    H265912   3.945   2.587  10.782 -1.2236  0.0291  0.3858
14833TIP3   OH265913   2.726   0.559   5.161  0.4773  0.1056  0.0482
14833TIP3    H165914   2.754   0.638   5.208 -2.5169  1.1648  0.2863
14833TIP3    H265915   2.731   0.489   5.226 -0.2418  0.8484  0.9379
14834TIP3   OH265916   0.523   3.886   5.954 -0.3156  0.0831 -0.3869
14834TIP3    H165917   0.490   3.929   5.874  0.1488 -0.4381 -0.8687
14834TIP3    H265918   0.603   3.933   5.975 -0.0883 -0.2017 -0.6100
14835TIP3   OH265919   0.928   1.697   2.550  0.2095  0.0212  0.2594
14835TIP3    H165920   0.954   1.754   2.623 -0.5067  0.9841 -0.2127
14835TIP3    H265921   0.904   1.615   2.592 -1.7031  1.0531  1.3290
14836TIP3   OH265922   2.592   5.335  12.750 -0.4480 -0.0679  0.0487
14836TIP3    H165923   2.508   5.329  12.795  0.0165 -0.5803  0.8605
14836TIP3    H265924   2.591   5.262  12.688 -1.4404  1.1325 -1.4263
14837TIP3   OH265925   4.397   3.607   4.512  0.9819 -0.3858 -0.1189
14837TIP3    H165926   4.352   3.682   4.471 -1.0293 -1.4565  0.0426
14837TIP3    H265927   4.449   3.570   4.441  0.7063  0.1879 -0.6358
14838TIP3   OH265928   1.372   3.655  15.731 -0.2867 -0.7636  0.9464
14838TIP3    H165929   1.345   3.671  15.640  1.7430 -0.1482  0.3980
14838TIP3    H265930   1.334   3.727  15.780 -0.5770 -0.5355  0.3981
14839TIP3   OH265931   3.063   5.491  11.842  0.2617  0.2260 -0.1060
14839TIP3    H165932   2.974   5.523  11.826 -0.2586 -1.2319 -0.2274
14839TIP3    H265933   3.099   5.552  11.907 -0.1638  1.9059 -1.3752
14840TIP3   OH265934   4.071   3.585   4.457  0.2251 -0.6259 -0.3029
14840TIP3    H165935   3.992   3.566   4.507 -0.8218 -1.0876 -2.0659
14840TIP3    H265936   4.073   3.681   4.451 -0.5338 -0.6385 -0.7776
14841TIP3   OH265937   6.314   3.507  15.838 -0.8553 -0.1526 -0.5775
14841TIP3    H165938   6.274   3.473  15.918 -0.8872 -2.4648 -1.5150
14841TIP3    H265939   6.265   3.467  15.767  1.1932 -0.6901 -1.7607
14842TIP3   OH265940   5.352   4.767  17.161 -0.0583  0.3102 -0.0804
14842TIP3    H165941   5.399   4.840  17.122 -2.1329  1.6530 -0.2265
14842TIP3    H265942   5.261   4.779  17.134 -0.2203 -3.7052 -2.1508
14843TIP3   OH265943   3.826   1.532  15.388 -0.7427 -0.0771 -0.2414
14843TIP3    H165944   3.746   1.536  15.335 -0.5942  0.0868 -0.4558
14843TIP3    H265945   3.827   1.614  15.437 -0.4050  0.1931 -0.6860
14844TIP3   OH265946   2.178   5.202   4.680 -0.1256  0.0046 -0.2081
14844TIP3    H165947   2.209   5.275   4.734 -0.1896 -0.4519  0.4499
14844TIP3    H265948   2.114   5.242   4.621 -1.2703  0.2275  1.1543
14845TIP3   OH265949   4.723   3.718  14.085 -0.2316  0.5387 -0.1828
14845TIP3    H165950   4.808   3.761  14.083 -0.4665  1.0578  0.6751
14845TIP3    H265951   4.719   3.677  14.172  0.1743 -1.6313 -1.1131
14846TIP3   OH265952   0.013   4.621   5.940  0.3025 -0.1229  0.2799
14846TIP3    H165953   0.076   4.564   5.985  1.2334  0.3474 -0.4002
14846TIP3    H265954  -0.062   4.564   5.922  0.2048 -0.5174  1.7395
14847TIP3   OH265955   0.447   2.007   5.836  0.3343 -0.5556  0.1472
14847TIP3    H165956   0.360   2.023   5.873  0.2375 -1.5488  0.3846
14847TIP3    H265957   0.507   2.024   5.909  0.3308 -0.0062  0.0230
14848TIP3   OH265958   5.384   0.142  10.771 -0.3506 -0.5043 -0.4461
14848TIP3    H165959   5.445   0.177  10.837  1.1473 -1.4714 -1.2639
14848TIP3    H265960   5.371   0.214  10.710  2.2792 -1.0750 -1.8171
14849TIP3   OH265961   2.577   1.278  15.751  0.0829  0.1389  0.2243
14849TIP3    H165962   2.612   1.199  15.711 -1.0945 -0.2346 -0.1016
14849TIP3    H265963   2.601   1.271  15.844  1.8188  0.4520 -0.1630
14850TIP3   OH265964   0.922   2.513   6.505 -0.0543 -0.5602  0.1790
14850TIP3    H165965   0.834   2.507   6.541  0.4742 -0.9007  1.4743
14850TIP3    H265966   0.937   2.607   6.495 -0.4340 -0.4892  0.2624
14851TIP3   OH265967   3.342   0.372  12.743 -0.0742  0.0065  0.5419
14851TIP3    H165968   3.357   0.425  12.821  0.3349  0.9154 -0.1246
14851TIP3    H265969   3.363   0.431  12.670 -2.1525 -0.2331 -0.3293
14852TIP3   OH265970   0.554   1.347   2.547  0.0119  0.2124  0.0919
14852TIP3    H165971   0.538   1.301   2.464 -0.4905 -0.2601  0.4374
14852TIP3    H265972   0.539   1.439   2.527  0.2705  0.1426 -0.4345
14853TIP3   OH265973   2.353   2.263   3.545  0.1875  0.3494  0.2778
14853TIP3    H165974   2.362   2.335   3.608 -1.4876  0.1599  0.7649
14853TIP3    H265975   2.288   2.294   3.482  0.6759 -0.0953 -0.4624
14854TIP3   OH265976   5.743   3.290   1.256  0.2695 -0.0731 -0.0461
14854TIP3    H165977   5.728   3.253   1.343  0.6229  0.5985  0.3164
14854TIP3    H265978   5.770   3.216   1.202  0.3376 -0.4488  0.4986
14855TIP3   OH265979   1.577   4.338   3.518  0.0925 -0.0421 -0.5149
14855TIP3    H165980   1.607   4.322   3.608 -3.1269  0.2509  0.7428
14855TIP3    H265981   1.655   4.323   3.464  2.2262  0.0158  2.3069
14856TIP3   OH265982   6.172   4.168  13.270 -0.5659 -0.1790 -0.1278
14856TIP3    H165983   6.240   4.202  13.329  0.7195 -1.9258 -0.5065
14856TIP3    H265984   6.116   4.115  13.327 -0.5945 -0.1320 -0.1119
14857TIP3   OH265985   2.497   5.168   3.226  0.3244 -0.3818  0.5895
14857TIP3    H165986   2.591   5.170   3.209  0.0217  1.0767 -1.2534
14857TIP3    H265987   2.479   5.248   3.275 -0.2101  0.4346 -0.8787
14858TIP3   OH265988   6.168   2.959  11.683  0.4270  0.1231 -0.6064
14858TIP3    H165989   6.089   3.001  11.718 -0.6661  0.7121 -3.5177
14858TIP3    H265990   6.139   2.871  11.657  0.9619  0.0256 -0.8936
14859TIP3   OH265991   1.910   0.724   5.313 -0.1418  0.1547 -0.1230
14859TIP3    H165992   1.899   0.789   5.244 -0.9887 -0.9149 -1.0257
14859TIP3    H265993   1.955   0.651   5.271 -0.3699 -0.3857  0.5463
14860TIP3   OH265994   4.255   5.756   3.010 -0.4129  0.0969  0.2792
14860TIP3    H165995   4.238   5.665   2.986  0.6851 -0.4312  1.4063
14860TIP3    H265996   4.344   5.772   2.980 -1.4689  1.7349 -2.4427
14861TIP3   OH265997   3.581   5.819   5.005 -0.0457 -0.5488 -0.0302
14861TIP3    H165998   3.497   5.808   5.050 -0.6674  1.4202 -0.5926
14861TIP3    H265999   3.559   5.817   4.912  0.3380  0.9148 -0.1829
14862TIP3   OH266000   4.533   5.499   2.479  0.3834  0.7027  0.5799
14862TIP3    H166001   4.605   5.532   2.424  0.4278 -0.9076 -0.4118
14862TIP3    H266002   4.463   5.479   2.416  0.5127 -1.3846  1.0378
14863TIP3   OH266003   6.161   2.751   4.329 -0.4175 -0.3468 -0.2393
14863TIP3    H166004   6.155   2.656   4.321  1.8264 -0.4706 -1.3974
14863TIP3    H266005   6.154   2.783   4.239 -0.3314  0.5174  0.0539
14864TIP3   OH266006   5.951   4.842   5.549  0.1341 -0.8990 -0.9483
14864TIP3    H166007   5.910   4.911   5.498 -2.5285  0.1832  2.3007
14864TIP3    H266008   6.002   4.889   5.615  0.3534 -2.1035 -0.2422
14865TIP3   OH266009   3.469   1.124  12.969 -0.1725 -0.3621  0.0436
14865TIP3    H166010   3.450   1.151  12.880  1.0086 -0.7065 -0.3279
14865TIP3    H266011   3.397   1.161  13.021 -1.9693 -1.7958 -1.2695
14866TIP3   OH266012   3.528   5.166  11.256 -0.2437  0.4098  0.2515
14866TIP3    H166013   3.478   5.190  11.178  0.8949  0.4179 -0.4991
14866TIP3    H266014   3.557   5.250  11.293 -0.7580  0.4051  0.6823
14867TIP3   OH266015   3.995   2.131   0.153  0.3648 -0.9894 -0.3441
14867TIP3    H166016   3.938   2.209   0.157 -1.1194 -2.0111 -0.6084
14867TIP3    H266017   4.056   2.149   0.082  1.0940  0.5881  0.6243
14868TIP3   OH266018   2.763   6.272  11.426  0.5425 -0.5622  0.1745
14868TIP3    H166019   2.804   6.344  11.474 -0.4015  0.8131 -1.0252
14868TIP3    H266020   2.830   6.244  11.363  1.3832 -1.6468  1.4953
14869TIP3   OH266021   3.815   4.526  13.002  0.7830 -0.5866 -0.2053
14869TIP3    H166022   3.807   4.613  13.040  0.9567 -0.3833 -0.6254
14869TIP3    H266023   3.909   4.512  12.991  0.7221 -0.3597 -1.1718
14870TIP3   OH266024   6.365   0.106  14.638  0.2307 -0.1833 -0.3054
14870TIP3    H166025   6.376   0.011  14.630 -0.1499 -0.4531  1.8328
14870TIP3    H266026   6.454   0.141  14.638  0.4081 -0.6343 -0.1476
14871TIP3   OH266027   3.578   5.372  14.038  0.1463 -0.5268  0.1984
14871TIP3    H166028   3.547   5.288  14.071 -0.1271 -0.8598 -0.8977
14871TIP3    H266029   3.674   5.365  14.042  0.1521 -0.1172  1.9895
14872TIP3   OH266030   0.711   3.726   2.159  0.6868 -0.5411 -0.0232
14872TIP3    H166031   0.675   3.814   2.159  0.5234 -0.6074 -0.1970
14872TIP3    H266032   0.805   3.738   2.172  0.8820 -0.2415 -1.5299
14873TIP3   OH266033   0.857   4.829   3.162  0.0525  0.2096  0.0174
14873TIP3    H166034   0.928   4.891   3.180  0.1122 -0.4425  2.3477
14873TIP3    H266035   0.783   4.861   3.214 -0.4045 -0.8039  0.0157
14874TIP3   OH266036   2.823   6.722   6.120  0.4229 -0.0627 -0.1612
14874TIP3    H166037   2.766   6.749   6.047  0.1510 -1.9643 -0.7034
14874TIP3    H266038   2.911   6.742   6.089  0.2164  0.6384 -0.3294
14875TIP3   OH266039   5.870   0.928   1.750  0.2671 -0.3235 -0.5969
14875TIP3    H166040   5.818   0.852   1.724  0.6411 -0.7370 -0.1497
14875TIP3    H266041   5.958   0.893   1.766 -0.4159 -0.6222  3.6675
14876TIP3   OH266042   4.963   0.565  10.788  0.2271  0.4875  0.6013
14876TIP3    H166043   5.054   0.586  10.770  0.1390 -0.0480 -0.5762
14876TIP3    H266044   4.960   0.469  10.789 -0.4281  0.4833 -0.0849
14877TIP3   OH266045   3.167   1.777   1.028 -0.4964 -0.0754 -0.1149
14877TIP3    H166046   3.166   1.868   1.058  2.7713  0.1118 -0.1397
14877TIP3    H266047   3.121   1.778   0.944  0.3666  1.7933 -0.6185
14878TIP3   OH266048   2.255   0.988  11.110  0.2776  0.3656  0.2914
14878TIP3    H166049   2.325   0.923  11.111  0.6424  0.7109  2.4559
14878TIP3    H266050   2.202   0.965  11.034  0.8057 -2.0369  0.5612
14879TIP3   OH266051   6.761   2.091  14.682 -0.6844  0.3341 -0.4970
14879TIP3    H166052   6.852   2.099  14.709 -0.8162  0.3292 -0.0382
14879TIP3    H266053   6.711   2.125  14.756 -1.0944 -0.7803 -0.2431
14880TIP3   OH266054   1.398   4.262   4.022  0.3412  0.2011 -0.5558
14880TIP3    H166055   1.308   4.287   4.003  0.9811  0.8663 -2.9479
14880TIP3    H266056   1.391   4.211   4.104 -1.9702  1.4734  0.1360
14881TIP3   OH266057   4.641   3.811   2.660  0.3440 -0.1007  0.2589
14881TIP3    H166058   4.553   3.775   2.665  0.9756 -1.6247  1.1575
14881TIP3    H266059   4.635   3.880   2.594 -1.6876  0.3925  0.8983
14882TIP3   OH266060   0.941   5.726  12.338 -1.3924  0.0774 -1.0212
14882TIP3    H166061   1.035   5.718  12.322 -1.4200  0.0890 -1.1896
14882TIP3    H266062   0.935   5.772  12.422 -1.2259 -1.2339 -0.2575
14883TIP3   OH266063   4.516   2.551  12.246  0.4355  0.7149  0.4769
14883TIP3    H166064   4.547   2.517  12.330 -0.3090 -1.0446  0.0904
14883TIP3    H266065   4.566   2.503  12.181  0.4888  1.5380 -0.0978
14884TIP3   OH266066   2.541   2.866   4.460 -0.6464  0.5548 -0.3937
14884TIP3    H166067   2.588   2.813   4.396 -0.2304 -0.7966  0.9686
14884TIP3    H266068   2.449   2.861   4.433 -0.8373 -2.1015  0.4550
14885TIP3   OH266069   4.514   2.342   3.267  0.0520  0.2180  0.2560
14885TIP3    H166070   4.601   2.303   3.260  0.3135  0.5715  1.3241
14885TIP3    H266071   4.469   2.288   3.333 -0.1137  0.7583  0.5962
14886TIP3   OH266072   3.831   0.194   0.059 -0.5952 -0.3445 -0.0438
14886TIP3    H166073   3.919   0.178   0.026 -0.0149  0.7283  0.8920
14886TIP3    H266074   3.836   0.281   0.100 -2.3974  0.2650 -0.9998
14887TIP3   OH266075   6.261   4.769  14.805  0.0019 -0.3656 -0.0333
14887TIP3    H166076   6.354   4.764  14.782 -0.5227 -0.1653 -2.4692
14887TIP3    H266077   6.228   4.843  14.754 -1.4042 -0.1546  1.1466
14888TIP3   OH266078   0.054   6.548  11.277  0.0323 -0.0817  0.1523
14888TIP3    H166079   0.147   6.563  11.266 -0.0217  1.4764  1.4983
14888TIP3    H266080   0.012   6.605  11.212 -0.0067 -0.8052 -0.4752
14889TIP3   OH266081   1.359   1.006  14.061  0.0512  0.2775 -0.8200
14889TIP3    H166082   1.277   1.005  14.013  1.0222 -1.1397 -2.5653
14889TIP3    H266083   1.412   0.937  14.021  1.2016 -0.5285  1.8782
14890TIP3   OH266084   5.488   3.503  11.606 -0.4193 -0.6604  0.1853
14890TIP3    H166085   5.533   3.424  11.577  0.1782 -0.1447 -0.3101
14890TIP3    H266086   5.439   3.532  11.530 -1.4410 -1.0922  0.6544
14891TIP3   OH266087   1.356   3.520   2.310 -0.3488 -0.8097 -0.5860
14891TIP3    H166088   1.382   3.592   2.368  0.4179 -1.3509 -0.2456
14891TIP3    H266089   1.370   3.553   2.222  1.8524 -1.1739 -0.4261
14892TIP3   OH266090   6.632   0.839  10.829 -0.6339  0.1264 -0.3072
14892TIP3    H166091   6.555   0.893  10.817 -1.7528 -1.6973 -1.9215
14892TIP3    H266092   6.651   0.805  10.741  0.9263 -0.8708  0.3821
14893TIP3   OH266093   3.123   5.174  13.629  0.3423 -0.2237 -0.1777
14893TIP3    H166094   3.177   5.113  13.680  0.3826  0.8518  1.1398
14893TIP3    H266095   3.056   5.119  13.589  0.0049 -1.0740  1.4707
14894TIP3   OH266096   1.899   0.041  15.187 -0.6919  0.7481 -0.1739
14894TIP3    H166097   1.837   0.023  15.117 -2.1490 -1.2870  1.5121
14894TIP3    H266098   1.876  -0.020  15.257  2.9153  0.2242  0.7805
14895TIP3   OH266099   1.157   6.471  15.187 -0.4343 -0.0600 -0.1322
14895TIP3    H166100   1.184   6.554  15.147 -0.4287 -0.5528 -1.1751
14895TIP3    H266101   1.201   6.404  15.135 -2.1353 -0.8059 -0.6950
14896TIP3   OH266102   3.957   0.560   1.668  0.3476 -0.4485  0.1558
14896TIP3    H166103   3.862   0.575   1.662 -0.5453 -3.3296  3.5742
14896TIP3    H266104   3.991   0.638   1.711 -0.8406 -0.2233  0.7294
14897TIP3   OH266105   3.331   1.279   4.692 -0.2862  0.0526 -0.7812
14897TIP3    H166106   3.282   1.330   4.757 -0.9135 -0.0271 -1.1784
14897TIP3    H266107   3.334   1.336   4.615  1.8475  0.8049 -0.1930
14898TIP3   OH266108   2.572   6.452  12.324  0.8846  0.1336  0.3109
14898TIP3    H166109   2.541   6.477  12.411 -0.7192 -0.0223 -0.1825
14898TIP3    H266110   2.629   6.376  12.340 -1.6698 -1.7654  1.0409
14899TIP3   OH266111   3.882   1.126  16.491 -0.1927  0.0267  0.1476
14899TIP3    H166112   3.793   1.092  16.502 -0.7421  1.8962  2.0826
14899TIP3    H266113   3.880   1.212  16.531  1.9897  1.0217 -1.6672
14900TIP3   OH266114   5.764   3.379  14.054  0.3218  0.3308  0.1744
14900TIP3    H166115   5.720   3.391  13.970  1.1704  0.1662 -0.3055
14900TIP3    H266116   5.756   3.463  14.097 -0.2154  0.3853 -0.0191
14901TIP3   OH266117   3.899   3.186  16.365 -0.1411  0.8356 -0.4355
14901TIP3    H166118   3.913   3.264  16.312  1.2538  0.0627 -1.2562
14901TIP3    H266119   3.950   3.118  16.321  0.8430  0.0898  1.7313
14902TIP3   OH266120   0.860   4.752  11.494 -0.0111  0.0304 -0.3615
14902TIP3    H166121   0.896   4.705  11.419  0.2886  1.2365 -0.9989
14902TIP3    H266122   0.926   4.819  11.515  1.1356 -1.8436  2.6082
14903TIP3   OH266123   5.555   1.683  13.701 -0.4322 -0.0299 -0.8748
14903TIP3    H166124   5.545   1.591  13.679 -1.0421 -0.6449  1.6132
14903TIP3    H266125   5.489   1.728  13.648 -0.0577 -1.0041 -2.1868
14904TIP3   OH266126   0.818   5.998  14.396 -0.2006 -0.6802 -0.0646
14904TIP3    H166127   0.867   6.001  14.314 -0.4513  0.3622 -0.1918
14904TIP3    H266128   0.737   5.953  14.374 -0.8428  0.7400 -0.7304
14905TIP3   OH266129   4.449   0.083   5.749  0.4122  0.3175  0.0606
14905TIP3    H166130   4.474  -0.010   5.750  1.9859  0.7129  0.2027
14905TIP3    H266131   4.404   0.097   5.832  1.7714  0.0775  0.8557
14906TIP3   OH266132   5.303   5.957  15.489 -0.4930  0.2890  0.4915
14906TIP3    H166133   5.242   5.889  15.519 -2.0401  1.1515 -0.5706
14906TIP3    H266134   5.381   5.908  15.460 -1.1087 -0.9347  0.8255
14907TIP3   OH266135   0.077   6.702  13.211 -0.5422  0.3622  0.4026
14907TIP3    H166136   0.035   6.734  13.291  0.4831  0.6670  0.8354
14907TIP3    H266137   0.092   6.609  13.227  0.0227  0.5035  0.7438
14908TIP3   OH266138   1.145   2.247   2.726  0.1461  0.1042  0.1252
14908TIP3    H166139   1.078   2.294   2.775 -0.2652 -0.0769 -0.2576
14908TIP3    H266140   1.215   2.311   2.714  0.7267 -0.1353  1.8413
14909TIP3   OH266141   0.203   3.824  14.684  0.5922 -0.2941  0.0644
14909TIP3    H166142   0.222   3.829  14.590 -1.0701  0.1823 -0.2693
14909TIP3    H266143   0.160   3.907  14.705  3.3263  0.8191  1.8786
14910TIP3   OH266144   2.034   2.955  10.330  0.0981  0.2745  0.3169
14910TIP3    H166145   1.964   2.955  10.396 -1.6629 -2.7838 -1.3020
14910TIP3    H266146   2.104   2.902  10.369  0.0909  0.5404  0.6861
14911TIP3   OH266147   5.409   3.660  11.846 -0.9025  0.0274  0.1991
14911TIP3    H166148   5.339   3.611  11.889  0.1939 -1.6108  0.2266
14911TIP3    H266149   5.433   3.605  11.771  0.5524  0.3754  0.3782
14912TIP3   OH266150   6.499   2.428  12.988  0.0637  0.2463 -0.0642
14912TIP3    H166151   6.511   2.344  12.944 -1.1935  0.1657 -0.3059
14912TIP3    H266152   6.546   2.491  12.934 -1.9609  0.2558 -1.9623
14913TIP3   OH266153   4.959   6.219   1.407  0.3875 -0.3015 -0.2682
14913TIP3    H166154   4.939   6.251   1.495  1.7658 -1.7014  0.6064
14913TIP3    H266155   4.943   6.124   1.412 -1.9413 -0.1256 -2.2713
14914TIP3   OH266156   1.895   4.969  13.746 -0.1521  0.7623  0.2409
14914TIP3    H166157   1.892   5.052  13.699 -0.0656  0.2663 -0.6637
14914TIP3    H266158   1.813   4.967  13.796 -0.3107  1.2394  0.0070
14915TIP3   OH266159   4.358   2.510  12.726 -0.1078 -0.2598 -0.0131
14915TIP3    H166160   4.280   2.560  12.706  0.2504  0.7960  1.1486
14915TIP3    H266161   4.431   2.567  12.699  0.2890 -1.2724 -1.1948
14916TIP3   OH266162   4.502   4.846   5.715  0.1120 -0.7526  0.1207
14916TIP3    H166163   4.456   4.805   5.643 -0.1021 -1.5328  0.6866
14916TIP3    H266164   4.554   4.776   5.754 -0.7515 -0.6734  1.5098
14917TIP3   OH266165   0.871   5.487  13.844 -0.0859  0.2111 -0.4139
14917TIP3    H166166   0.911   5.562  13.801 -0.8171  1.2519  0.6699
14917TIP3    H266167   0.781   5.515  13.862 -1.0388 -1.6897 -1.8625
14918TIP3   OH266168   3.615   3.708  12.397  0.2862 -0.1261 -0.0217
14918TIP3    H166169   3.639   3.630  12.448  1.6361  0.4809  0.3327
14918TIP3    H266170   3.520   3.704  12.390  0.3166 -1.8133 -0.0278
14919TIP3   OH266171   6.218   0.714  11.847  0.1008 -0.3548  0.2348
14919TIP3    H166172   6.226   0.808  11.828 -1.1225 -0.0186  1.2560
14919TIP3    H266173   6.296   0.693  11.897  1.3495 -0.3499 -1.5884
14920TIP3   OH266174   4.310   4.989  11.276  0.4693  0.8806  0.6669
14920TIP3    H166175   4.311   4.917  11.212  1.7444  0.7684  0.7770
14920TIP3    H266176   4.232   5.039  11.255  0.1473  0.0770 -0.1193
14921TIP3   OH266177   5.533   2.715   4.610 -0.1918 -0.0929 -0.0462
14921TIP3    H166178   5.499   2.802   4.633  0.9192  1.2022 -2.8537
14921TIP3    H266179   5.628   2.726   4.609 -0.0794 -0.7078 -2.4005
14922TIP3   OH266180   5.821   0.616   4.853  0.3882 -0.3862 -0.5794
14922TIP3    H166181   5.762   0.541   4.867 -0.5891  0.3232 -0.7822
14922TIP3    H266182   5.834   0.617   4.758 -0.7607  0.5403 -0.7441
14923TIP3   OH266183   0.684   0.495   4.451  0.3044 -0.1000  0.2441
14923TIP3    H166184   0.605   0.548   4.443  1.6722  1.8321 -1.3418
14923TIP3    H266185   0.652   0.404   4.451 -1.9004  0.6216 -0.1826
14924TIP3   OH266186   6.024   4.357  13.089  0.2787 -0.3228  0.0618
14924TIP3    H166187   6.064   4.317  13.011  0.4466  0.7922 -0.4363
14924TIP3    H266188   6.070   4.315  13.162  1.8076  0.3064 -0.4838
14925TIP3   OH266189   4.387   2.987   0.081  0.2520  0.1710  0.0319
14925TIP3    H166190   4.392   3.078   0.049 -2.5094 -0.0508 -1.2621
14925TIP3    H266191   4.311   2.986   0.138  0.4524 -1.2978  0.2946
14926TIP3   OH266192   5.517   0.225  12.780  0.0392  0.7612 -0.0791
14926TIP3    H166193   5.509   0.251  12.872 -1.0064  2.1189 -0.5192
14926TIP3    H266194   5.426   0.214  12.751  0.3511  0.6392 -1.0367
14927TIP3   OH266195   0.932   5.756  13.077 -0.0501  0.1751  0.9809
14927TIP3    H166196   0.923   5.724  13.167 -0.2121  1.1435  1.3219
14927TIP3    H266197   0.876   5.833  13.073  1.6996  1.4940  0.7257
14928TIP3   OH266198   3.314   2.998   4.302  0.2480  0.7033 -0.6218
14928TIP3    H166199   3.336   2.909   4.330 -0.1332  0.8375  0.1233
14928TIP3    H266200   3.307   2.991   4.207  0.3359 -0.0387 -0.5858
14929TIP3   OH266201   1.027   4.113   1.900  0.5144 -0.0946 -0.0872
14929TIP3    H166202   1.120   4.136   1.903  0.3844  0.4301  0.2400
14929TIP3    H266203   0.990   4.157   1.977 -0.2813  1.0050 -1.0565
14930TIP3   OH266204   6.706   3.557   3.746  0.0293 -0.0905  0.1246
14930TIP3    H166205   6.776   3.589   3.690  0.4049  0.7766  1.0440
14930TIP3    H266206   6.687   3.631   3.805 -1.9164 -0.1697 -0.3415
14931TIP3   OH266207   6.436   4.129   5.205 -0.1213 -0.1306  0.2817
14931TIP3    H166208   6.345   4.154   5.189 -0.7111 -1.9422  0.5866
14931TIP3    H266209   6.468   4.096   5.121  0.3381  0.6683  0.1278
14932TIP3   OH266210   4.271   1.487  15.422  0.1130 -0.4937  0.5347
14932TIP3    H166211   4.332   1.451  15.486 -0.4285 -0.7253  0.9236
14932TIP3    H266212   4.207   1.417  15.407  1.0491 -1.0104 -1.3776
14933TIP3   OH266213   2.694   3.672   3.818 -0.5751  0.1329  0.4035
14933TIP3    H166214   2.643   3.594   3.793 -1.8478  1.0996 -0.1373
14933TIP3    H266215   2.684   3.677   3.913  1.5311 -1.6862  0.8011
14934TIP3   OH266216   6.022   0.154   4.679 -0.3453  0.0454  0.4508
14934TIP3    H166217   6.021   0.063   4.651 -0.2317  0.1687  0.0434
14934TIP3    H266218   5.981   0.202   4.608  0.4675  0.4276  0.2251
14935TIP3   OH266219   2.707   3.250  16.223  0.1583 -0.1275  0.2332
14935TIP3    H166220   2.632   3.307  16.209 -0.5668 -0.9525  0.5900
14935TIP3    H266221   2.771   3.304  16.268 -1.1814 -0.0049  2.1649
14936TIP3   OH266222   4.132   3.775   0.511 -0.2246 -0.7260  0.2807
14936TIP3    H166223   4.149   3.838   0.441 -2.1332  1.3584  1.5235
14936TIP3    H266224   4.056   3.725   0.480 -1.3096  0.4526  0.9283
14937TIP3   OH266225   2.577   1.982   4.732  0.8114 -0.0581  0.2831
14937TIP3    H166226   2.605   1.935   4.653 -0.4148  0.9705 -0.7957
14937TIP3    H266227   2.486   1.956   4.745  0.3307  1.4198  0.0819
14938TIP3   OH266228   1.447   2.682   0.281  0.5144 -0.1814  0.2640
14938TIP3    H166229   1.439   2.607   0.340 -0.6414  0.0432  0.4284
14938TIP3    H266230   1.416   2.650   0.196 -1.7094  0.5142  0.7307
14939TIP3   OH266231   2.884   1.705  15.071 -0.1611  0.3175 -0.1045
14939TIP3    H166232   2.914   1.763  15.001 -0.2461 -0.7273 -1.0393
14939TIP3    H266233   2.824   1.758  15.123  1.3359  1.6909  0.3182
14940TIP3   OH266234   5.612   5.955   0.725 -0.3605 -0.4156 -0.2565
14940TIP3    H166235   5.644   5.869   0.753  0.2580  0.2711  1.2612
14940TIP3    H266236   5.673   5.982   0.656  1.5024  0.2079  1.5434
14941TIP3   OH266237   5.515   3.428  13.491  0.4954  0.2102 -0.2121
14941TIP3    H166238   5.520   3.344  13.445 -0.4747 -0.7332  1.3182
14941TIP3    H266239   5.595   3.431  13.544  0.3067  0.0230  0.0870
14942TIP3   OH266240   2.234   3.000  15.368 -0.0113  0.7680  0.4201
14942TIP3    H166241   2.172   2.963  15.305  1.3266  0.5461 -0.8420
14942TIP3    H266242   2.190   2.993  15.452 -0.9872 -1.0116 -0.1743
14943TIP3   OH266243   4.295   6.541   6.042  0.3872 -0.2279  0.6066
14943TIP3    H166244   4.213   6.493   6.035  0.3690  0.0008 -1.8247
14943TIP3    H266245   4.360   6.476   6.068 -0.2391 -0.8106  0.7155
14944TIP3   OH266246   1.226   2.279  17.282 -0.2558 -0.2392 -0.2524
14944TIP3    H166247   1.256   2.189  17.285  0.6769  0.0614  2.5426
14944TIP3    H266248   1.249   2.309  17.194  1.4880 -2.0491 -0.4876
14945TIP3   OH266249   2.501   4.555   3.602  0.3343  0.1392  0.3988
14945TIP3    H166250   2.554   4.527   3.677  0.1757 -1.7858 -0.1546
14945TIP3    H266251   2.418   4.508   3.613  0.5883 -0.7985 -1.3533
14946TIP3   OH266252   0.063   5.937   4.228 -0.0217  0.2663  0.2403
14946TIP3    H166253   0.093   5.940   4.137 -0.7332  1.6794  0.0238
14946TIP3    H266254   0.137   5.902   4.277  2.2666  3.9887 -0.2038
14947TIP3   OH266255   3.307   3.059  10.711  0.3187 -0.1351 -0.0079
14947TIP3    H166256   3.275   3.005  10.638 -1.0081 -0.1711  0.5615
14947TIP3    H266257   3.343   2.997  10.773 -2.4461 -0.6211  1.2752
14948TIP3   OH266258   2.071   1.324   1.292  0.2707 -0.2283 -0.4246
14948TIP3    H166259   2.002   1.339   1.227 -0.5533  0.4573  0.5851
14948TIP3    H266260   2.039   1.252   1.345  1.7017 -1.9525 -1.7645
14949TIP3   OH266261   5.891   2.792  13.437  0.0743  0.2699  0.2341
14949TIP3    H166262   5.796   2.789  13.447  0.1129 -2.0620  0.2908
14949TIP3    H266263   5.905   2.836  13.353 -1.0934 -0.1913 -0.2218
14950TIP3   OH266264   1.584   2.484  13.771 -0.3230 -0.0228  0.1296
14950TIP3    H166265   1.675   2.464  13.792 -0.0206 -0.8823 -1.7596
14950TIP3    H266266   1.555   2.409  13.718 -1.8595  0.6297  0.0001
14951TIP3   OH266267   4.140   4.241   1.299  0.2484 -0.4202 -0.2071
14951TIP3    H166268   4.108   4.182   1.367  2.8695 -0.5066  1.0765
14951TIP3    H266269   4.157   4.324   1.345  0.1168  0.1806 -1.2107
14952TIP3   OH266270   1.684   3.460   1.072  0.8217  0.0264  0.5659
14952TIP3    H166271   1.767   3.422   1.044 -0.3739 -1.9293 -0.5221
14952TIP3    H266272   1.657   3.516   0.999  1.2958  0.8825  1.0364
14953TIP3   OH266273   5.797   4.101   3.816  0.1131  0.3921  0.0231
14953TIP3    H166274   5.779   4.181   3.865  0.4259 -0.3458  1.4164
14953TIP3    H266275   5.892   4.094   3.817  0.3477  1.7530 -3.0907
14954TIP3   OH266276   1.553   5.794  12.987  0.4818 -0.2835  0.4913
14954TIP3    H166277   1.536   5.706  13.022  1.2408  0.3606  2.6075
14954TIP3    H266278   1.469   5.822  12.952 -0.8159 -0.3948  3.2501
14955TIP3   OH266279   3.452   4.060   5.203 -0.1276  0.2774  0.2067
14955TIP3    H166280   3.454   3.964   5.200  0.2649  0.2972 -0.2720
14955TIP3    H266281   3.474   4.087   5.114 -0.2333  0.8133  0.3412
14956TIP3   OH266282   3.365   3.784   1.669 -0.6633  0.5571  0.2081
14956TIP3    H166283   3.324   3.840   1.603 -2.2215  0.4864  1.0786
14956TIP3    H266284   3.427   3.730   1.620  0.5828  2.7256 -0.7122
14957TIP3   OH266285   4.326   5.461  13.809  0.4384  0.1018 -0.8184
14957TIP3    H166286   4.324   5.374  13.770  1.6096 -0.0663 -0.5525
14957TIP3    H266287   4.359   5.447  13.897  1.8273  0.9163 -1.1667
14958TIP3   OH266288   3.237   5.153  11.275  0.2290  0.1240  0.0325
14958TIP3    H166289   3.322   5.184  11.244 -0.1905 -0.2282 -1.5686
14958TIP3    H266290   3.225   5.069  11.231 -0.0793 -0.8105  1.8076
14959TIP3   OH266291   4.003   0.143  12.328  0.0301  0.6204  0.2061
14959TIP3    H166292   3.960   0.222  12.361  0.2042  2.0175 -2.6046
14959TIP3    H266293   3.964   0.128  12.242  1.1666 -1.4340 -0.0173
14960TIP3   OH266294   5.427   6.350   0.332  0.0756 -0.6133  0.2287
14960TIP3    H166295   5.348   6.403   0.336 -0.6276 -1.5070 -0.9296
14960TIP3    H266296   5.422   6.293   0.408 -0.2611 -0.4750  0.3116
14961TIP3   OH266297   2.906   1.549  12.583 -0.3185  0.2696 -0.6327
14961TIP3    H166298   2.974   1.506  12.532 -1.1963 -0.3232 -1.3205
14961TIP3    H266299   2.858   1.477  12.625 -0.8741  0.6502 -0.6033
14962TIP3   OH266300   5.533   4.505  14.112  0.7393 -0.1930  0.0016
14962TIP3    H166301   5.541   4.598  14.089  2.9243 -0.4450 -0.5026
14962TIP3    H266302   5.471   4.471  14.047  0.7297  0.6953 -0.4844
14963TIP3   OH266303   3.369   3.900   1.418 -0.2618  0.3646  0.2145
14963TIP3    H166304   3.307   3.902   1.345 -1.6439 -0.9258  1.2971
14963TIP3    H266305   3.449   3.940   1.382 -1.1445  0.5034 -1.7385
14964TIP3   OH266306   6.469   2.950   3.390 -0.0418  0.2601 -0.6512
14964TIP3    H166307   6.387   2.990   3.419  0.7798 -0.2220  2.8483
14964TIP3    H266308   6.530   3.023   3.384 -0.0325  0.2721 -0.4115
14965TIP3   OH266309   5.212   2.976  15.336  0.0242  0.0663 -0.8034
14965TIP3    H166310   5.169   2.905  15.384  0.3763 -0.8323 -1.7615
14965TIP3    H266311   5.282   3.005  15.394 -1.9272  1.7050  0.8821
14966TIP3   OH266312   1.858   4.873  10.406  0.0571 -0.0689 -0.5281
14966TIP3    H166313   1.797   4.832  10.468 -0.5725  1.7074  0.0973
14966TIP3    H266314   1.835   4.835  10.321 -0.4731 -0.9942  0.0026
14967TIP3   OH266315   6.029   1.609   2.320 -0.0523 -0.0332 -0.9991
14967TIP3    H166316   5.988   1.694   2.310  0.6325  0.5190  0.5317
14967TIP3    H266317   5.963   1.555   2.363  0.4791  0.6036  0.6829
14968TIP3   OH266318   0.273   3.850   5.530  0.3205 -0.3705  0.4924
14968TIP3    H166319   0.297   3.767   5.570  0.9575 -0.4085  0.0475
14968TIP3    H266320   0.180   3.861   5.551  0.4603 -0.7420  1.3359
14969TIP3   OH266321   2.198   3.391   1.098  0.5006  0.7626 -0.3323
14969TIP3    H166322   2.116   3.343   1.080  0.3338 -0.1453  2.3718
14969TIP3    H266323   2.171   3.483   1.099 -0.1386  0.6024 -1.0558
14970TIP3   OH266324   4.467   1.024  15.114  0.3456  0.4006  0.5673
14970TIP3    H166325   4.431   1.045  15.200 -3.8830 -0.7831 -0.6427
14970TIP3    H266326   4.436   1.094  15.057 -0.4908 -0.8794 -0.6359
14971TIP3   OH266327   4.099   2.828  12.061 -0.2945  0.0825  0.4930
14971TIP3    H166328   4.049   2.779  12.126 -1.7391  0.6065 -0.1939
14971TIP3    H266329   4.038   2.892  12.026  0.7784  0.5650 -0.5841
14972TIP3   OH266330   1.701   6.177   3.999 -0.3928 -0.1858 -0.2631
14972TIP3    H166331   1.623   6.227   3.974  0.1144  0.4096 -0.6875
14972TIP3    H266332   1.764   6.194   3.929  0.4921  0.2089  0.5993
14973TIP3   OH266333   6.212   0.482   1.133 -0.1905  0.1746  0.0681
14973TIP3    H166334   6.242   0.469   1.043  0.4026  1.0844  0.1256
14973TIP3    H266335   6.267   0.424   1.186  0.6961  0.9683  0.0369
14974TIP3   OH266336   1.273   2.321  15.858 -0.3489  0.1696 -0.3327
14974TIP3    H166337   1.220   2.272  15.795 -0.3551  0.2634 -0.4000
14974TIP3    H266338   1.263   2.413  15.832 -0.5494  0.2293 -0.0479
14975TIP3   OH266339   1.043   3.675  12.022 -0.2354  0.3453 -0.3600
14975TIP3    H166340   1.116   3.734  12.002  1.3415 -1.7523 -1.2238
14975TIP3    H266341   1.007   3.709  12.104  0.0323  2.9489 -1.2451
14976TIP3   OH266342   1.850   1.852  11.927 -0.7249 -0.4340  0.0945
14976TIP3    H166343   1.879   1.764  11.952 -1.7846 -0.7755  0.1693
14976TIP3    H266344   1.928   1.906  11.936  0.7285 -1.8301 -2.5585
14977TIP3   OH266345   6.386   0.958  10.835 -0.0667  0.3435  0.1191
14977TIP3    H166346   6.325   0.884  10.844 -0.0823  0.1422 -1.3914
14977TIP3    H266347   6.392   0.994  10.923 -1.6054 -0.2407  0.5079
14978TIP3   OH266348   3.907   2.922   0.616  0.2030 -0.0409  0.2581
14978TIP3    H166349   3.891   2.831   0.638 -0.3264 -0.0511 -0.1224
14978TIP3    H266350   3.861   2.935   0.533  0.6258  0.4594  0.0906
14979TIP3   OH266351   3.941   4.806  14.747  0.7062 -0.6161 -0.3191
14979TIP3    H166352   3.937   4.744  14.675  0.8848 -0.3966 -0.5161
14979TIP3    H266353   4.014   4.864  14.726  0.5829 -0.3786 -0.1053
14980TIP3   OH266354   1.975   2.505  12.130  0.1023  0.0039 -0.0055
14980TIP3    H166355   2.063   2.517  12.166  1.5182  0.3871 -3.2824
14980TIP3    H266356   1.960   2.583  12.076 -1.5382 -0.8675 -0.8895
14981TIP3   OH266357   5.209   6.651  13.532  0.2723 -0.2825  0.2098
14981TIP3    H166358   5.184   6.668  13.442 -3.0843 -1.0875  0.8459
14981TIP3    H266359   5.292   6.698  13.544  0.2014  0.8401 -2.8851
14982TIP3   OH266360   5.638   3.402  17.151  0.0464 -0.0704  1.0739
14982TIP3    H166361   5.670   3.468  17.212  0.8712 -0.2899  0.8858
14982TIP3    H266362   5.686   3.322  17.174  1.4376  0.1815 -0.7687
14983TIP3   OH266363   2.862   0.126  14.191 -0.6223  0.5337  0.0492
14983TIP3    H166364   2.800   0.068  14.146 -0.5640  0.5167 -0.0096
14983TIP3    H266365   2.947   0.083  14.182 -0.5689  0.6560 -0.0471
14984TIP3   OH266366   5.955   0.934  13.377  0.3229 -0.1556  0.1728
14984TIP3    H166367   6.026   0.948  13.314  0.0054 -1.4947 -0.5204
14984TIP3    H266368   5.913   0.853  13.349 -1.5888  0.6650  0.4900
14985TIP3   OH266369   2.802   5.712   0.571  0.2082 -0.0195  0.0468
14985TIP3    H166370   2.783   5.758   0.653  0.8333 -0.5444  0.4973
14985TIP3    H266371   2.827   5.624   0.598 -1.3189 -0.7688 -0.8138
14986TIP3   OH266372   3.569   5.067  16.456  0.4886  1.1207  0.2651
14986TIP3    H166373   3.519   5.148  16.457 -0.2861  0.6493  0.7442
14986TIP3    H266374   3.515   5.006  16.405  0.0190  0.2848  1.7022
14987TIP3   OH266375   6.039   3.708  14.179 -0.2734  0.8492  0.5031
14987TIP3    H166376   6.049   3.750  14.093 -3.0261  0.9235  0.1453
14987TIP3    H266377   6.021   3.779  14.239 -1.0664  0.5580  0.6206
14988TIP3   OH266378   4.123   3.983   2.477 -0.4509 -0.2709 -0.1262
14988TIP3    H166379   4.058   3.970   2.546 -0.6521  0.4390 -0.1732
14988TIP3    H266380   4.074   3.971   2.395 -0.1378 -1.4685 -0.1618
14989TIP3   OH266381   2.054   1.682  16.961 -0.0632  0.3104  0.0914
14989TIP3    H166382   2.100   1.625  17.023 -3.2692 -1.0844  1.4214
14989TIP3    H266383   2.080   1.650  16.875  0.6061 -1.1411  0.8011
14990TIP3   OH266384   3.710   1.244  14.385 -0.3384  0.0281 -0.1093
14990TIP3    H166385   3.677   1.218  14.471 -0.9155 -1.9736 -0.8644
14990TIP3    H266386   3.801   1.213  14.383 -0.6481 -0.9054 -0.5652
14991TIP3   OH266387   0.793   0.377  11.349  0.1542 -0.2876  0.1096
14991TIP3    H166388   0.834   0.449  11.396 -0.5698 -1.1997  2.2727
14991TIP3    H266389   0.831   0.380  11.261  3.0553  0.3228  1.2831
14992TIP3   OH266390   2.938   6.004   0.068 -0.0226  0.4127 -0.5059
14992TIP3    H166391   2.855   5.990   0.113 -1.0092 -1.1843 -2.7035
14992TIP3    H266392   3.000   6.020   0.139 -1.6728 -1.0255  1.3917
14993TIP3   OH266393   4.442   3.584  12.973 -0.4246 -0.4507  0.3795
14993TIP3    H166394   4.407   3.634  12.899 -0.3161  0.3128  0.8329
14993TIP3    H266395   4.537   3.587  12.962 -0.3707  0.2427  0.8935
14994TIP3   OH266396   4.470   6.517  13.830  0.0759  0.2386 -0.0566
14994TIP3    H166397   4.560   6.516  13.799 -0.4681 -2.0365 -1.8554
14994TIP3    H266398   4.476   6.485  13.920  1.1297  1.2452  0.2600
14995TIP3   OH266399   3.416   1.723   5.018 -0.8714 -0.1823 -0.5381
14995TIP3    H166400   3.355   1.673   5.072 -0.5790  1.4802  1.4587
14995TIP3    H266401   3.384   1.814   5.024  0.1280  0.2849 -1.8540
14996TIP3   OH266402   0.452   0.432   5.501 -0.2847 -0.2540 -0.1558
14996TIP3    H166403   0.357   0.445   5.511 -0.6429 -2.1588 -0.7834
14996TIP3    H266404   0.479   0.393   5.584 -0.1735 -0.3561 -0.2406
14997TIP3   OH266405   2.064   3.727   3.005 -0.0591 -0.3609 -0.5939
14997TIP3    H166406   2.059   3.632   3.018 -0.8909 -0.2456  0.0177
14997TIP3    H266407   2.153   3.742   2.973  0.1118 -1.3358 -0.6228
14998TIP3   OH266408   6.567   3.070  16.351  0.5552 -0.3621  0.3575
14998TIP3    H166409   6.560   3.050  16.444 -0.4960  1.0679  0.6206
14998TIP3    H266410   6.497   3.020  16.310  1.9631 -2.2007  0.0770
14999TIP3   OH266411   4.456   5.685  11.263 -0.1375 -0.3023  0.6464
14999TIP3    H166412   4.422   5.596  11.277 -0.8023 -0.2691 -0.6099
14999TIP3    H266413   4.452   5.725  11.350 -2.0923 -0.7458  0.8082
15000TIP3   OH266414   6.014   1.250  16.758 -0.3051 -0.0543 -0.4301
15000TIP3    H166415   6.044   1.326  16.708 -0.7807  1.4575  1.4531
15000TIP3    H266416   6.078   1.181  16.738  0.2301  0.8679 -2.0591
15001TIP3   OH266417   5.108   1.141  13.351  0.3172  0.4391  0.0978
15001TIP3    H166418   5.063   1.057  13.343  1.0623 -0.0684  1.0040
15001TIP3    H266419   5.182   1.135  13.292  1.2874 -0.2009  1.3228
15002TIP3   OH266420   1.027   1.124  15.532  0.1971 -0.3837 -0.3501
15002TIP3    H166421   0.941   1.149  15.499 -0.0526  0.3963  0.8508
15002TIP3    H266422   1.022   1.138  15.626  1.6876 -0.1660 -0.2759
15003TIP3   OH266423   0.170   6.516  13.721 -0.1048  0.0204 -0.6434
15003TIP3    H166424   0.177   6.459  13.798 -0.7595 -0.0424 -0.6278
15003TIP3    H266425   0.141   6.600  13.758 -1.3236 -0.2611 -0.9131
15004TIP3   OH266426   6.596   4.084   2.565 -0.4553  0.4083 -0.9139
15004TIP3    H166427   6.582   4.054   2.475 -0.2397 -0.8271 -0.5562
15004TIP3    H266428   6.527   4.041   2.615 -0.1482  0.5350 -0.3763
15005TIP3   OH266429   2.355   4.695   3.969 -0.1154  0.3445 -0.5608
15005TIP3    H166430   2.327   4.785   3.982  0.5168  0.4578  0.1488
15005TIP3    H266431   2.450   4.698   3.982 -0.3033 -0.7293  1.4548
15006TIP3   OH266432   2.960   2.600  16.565  0.4933  0.2549 -0.0487
15006TIP3    H166433   2.930   2.588  16.655  1.3313  1.4342  0.4203
15006TIP3    H266434   3.046   2.558  16.563  1.3564  1.9221  0.2901
15007TIP3   OH266435   1.873   0.048   0.834  0.1680 -0.5267 -0.1376
15007TIP3    H166436   1.892  -0.031   0.784 -0.0771  0.5155 -1.9915
15007TIP3    H266437   1.959   0.085   0.854  0.2883  0.3099 -1.9936
15008TIP3   OH266438   4.735   6.705   1.650  0.0542  0.4006  0.1218
15008TIP3    H166439   4.769   6.675   1.565  0.9517  0.8588  0.3108
15008TIP3    H266440   4.653   6.657   1.661  0.7044 -0.8503 -0.2881
15009TIP3   OH266441   3.949   5.109   4.731  0.0742  0.0302  0.6035
15009TIP3    H166442   3.951   5.065   4.816  0.8743 -0.3491  0.3939
15009TIP3    H266443   4.041   5.128   4.711 -0.2388  1.8909  0.7200
15010TIP3   OH266444   3.926   5.505  11.975  0.1254 -0.5479  0.2469
15010TIP3    H166445   3.919   5.486  11.882  1.5486  0.9924 -0.2172
15010TIP3    H266446   3.995   5.447  12.007  2.3961  1.5641 -0.5454
15011TIP3   OH266447   6.335   1.762   0.408 -0.5378 -0.1657  0.3367
15011TIP3    H166448   6.335   1.812   0.489 -0.2531  0.2683  0.0752
15011TIP3    H266449   6.406   1.698   0.418  0.6876  1.0510 -0.2596
15012TIP3   OH266450   6.564   0.406   1.593 -0.2043  0.0679  0.4583
15012TIP3    H166451   6.581   0.312   1.602  2.8496  0.5982  1.6025
15012TIP3    H266452   6.603   0.429   1.509 -1.4556  0.2549 -0.0880
15013TIP3   OH266453   2.425   6.625   1.515  0.6541 -0.4295  0.4095
15013TIP3    H166454   2.330   6.628   1.528  0.5356 -0.8517 -0.3033
15013TIP3    H266455   2.448   6.534   1.532  0.4868 -1.0232 -2.1621
15014TIP3   OH266456   2.326   5.979   5.026  0.6424  0.1214  0.1389
15014TIP3    H166457   2.295   5.982   4.936  0.9187  2.3780  0.0591
15014TIP3    H266458   2.307   5.890   5.056 -0.5734 -0.2850 -1.7346
15015TIP3   OH266459   6.373   1.511  12.258  1.1379  0.0998  0.2702
15015TIP3    H166460   6.305   1.445  12.265 -0.2892  1.5643  0.7925
15015TIP3    H266461   6.455   1.462  12.262  0.1636 -1.8633 -1.7543
15016TIP3   OH266462   4.076   2.785   1.869 -0.0041  0.0540 -0.1409
15016TIP3    H166463   3.984   2.788   1.844 -0.0369 -1.5226 -0.2735
15016TIP3    H266464   4.077   2.812   1.961 -0.5887  0.0777 -0.1407
15017TIP3   OH266465   2.525   0.247   2.403 -0.0571  0.3669 -0.0985
15017TIP3    H166466   2.444   0.215   2.362 -0.1622 -1.5929  1.4628
15017TIP3    H266467   2.587   0.176   2.391  0.6035  0.7296  1.0593
15018TIP3   OH266468   2.667   2.929  14.255 -0.3934  0.0150 -0.2046
15018TIP3    H166469   2.643   2.868  14.185  1.6681 -0.7497 -0.3153
15018TIP3    H266470   2.762   2.938  14.247 -0.5672  2.8831  0.1313
15019TIP3   OH266471   0.106   1.465  15.869  0.2538  0.3661  0.5034
15019TIP3    H166472   0.118   1.393  15.931 -0.3500 -1.2876 -1.2312
15019TIP3    H266473   0.012   1.482  15.871  0.1729  0.0310 -0.2341
15020TIP3   OH266474   2.742   3.010   0.104 -0.0838 -0.1993  0.0885
15020TIP3    H166475   2.830   3.023   0.070  0.1305 -2.2106 -0.2634
15020TIP3    H266476   2.704   2.943   0.047 -1.7140  0.3584  0.4656
15021TIP3   OH266477   1.308   1.067  13.371 -0.1728  0.7058  0.0266
15021TIP3    H166478   1.353   1.051  13.454 -2.1062  0.6659  1.1311
15021TIP3    H266479   1.244   1.136  13.392 -0.8940  0.4775 -1.3567
15022TIP3   OH266480   2.188   4.029  13.450  0.1998  0.6790  0.1327
15022TIP3    H166481   2.261   4.076  13.409  0.9708 -0.9585 -0.4568
15022TIP3    H266482   2.130   4.007  13.377  0.8946 -1.0500  0.0455
15023TIP3   OH266483   6.351   4.451   2.342  0.7695  0.2736  0.4419
15023TIP3    H166484   6.326   4.375   2.393 -3.8031  1.3043  0.2112
15023TIP3    H266485   6.381   4.416   2.258 -0.2951 -1.2997  0.6937
15024TIP3   OH266486   1.839   1.922   4.012  0.1018  0.5956 -0.3231
15024TIP3    H166487   1.754   1.888   3.984  0.8593 -0.6869 -1.1373
15024TIP3    H266488   1.903   1.865   3.969  1.3708  1.2439  0.6579
15025TIP3   OH266489   0.441   4.927   1.728  0.1497  0.1152  0.2324
15025TIP3    H166490   0.490   4.845   1.727 -0.8922 -0.5923  2.0304
15025TIP3    H266491   0.355   4.904   1.693  0.4969  0.9564 -1.2534
15026TIP3   OH266492   2.327   1.318  13.053 -0.7321  0.3836  0.1509
15026TIP3    H166493   2.404   1.353  13.098 -0.3485  0.0857 -0.2738
15026TIP3    H266494   2.353   1.311  12.962 -1.3645  0.5659 -0.0474
15027TIP3   OH266495   1.039   5.017  14.905 -0.3311  0.1405 -0.5589
15027TIP3    H166496   1.084   4.962  14.969  1.3975  3.2457  1.1666
15027TIP3    H266497   1.075   4.990  14.821  3.9322  1.4100  0.5960
15028TIP3   OH266498   3.609   5.356  16.759 -0.5196  0.0377 -0.1489
15028TIP3    H166499   3.520   5.339  16.792 -0.3496 -0.0775  0.2649
15028TIP3    H266500   3.600   5.433  16.703 -0.5708  1.1991  1.3856
15029TIP3   OH266501   6.733   2.999  11.851 -0.2706 -0.2141  0.1148
15029TIP3    H166502   6.828   3.000  11.860 -0.3521 -0.6037  1.1819
15029TIP3    H266503   6.701   3.031  11.935 -1.0759  2.2451 -1.0482
15030TIP3   OH266504   2.531   5.013  12.587  0.4521  0.0473 -0.1005
15030TIP3    H166505   2.568   5.088  12.539  1.7431 -0.8800 -0.6226
15030TIP3    H266506   2.452   4.990  12.539 -2.1993  3.3332  2.1664
15031TIP3   OH266507   4.711   6.501  14.570  0.5262 -0.2156 -0.6264
15031TIP3    H166508   4.663   6.527  14.648  0.2677 -0.5863 -0.6564
15031TIP3    H266509   4.691   6.408  14.560  1.8336 -0.5575 -0.2210
15032TIP3   OH266510   0.041   2.090  15.216 -0.3382  0.0556 -0.0771
15032TIP3    H166511  -0.031   2.112  15.275 -0.3313  0.2976 -0.1561
15032TIP3    H266512  -0.002   2.044  15.144 -0.2156 -1.1195  0.5878
15033TIP3   OH266513   1.440   4.323  14.961  0.6811 -0.6985  0.1095
15033TIP3    H166514   1.470   4.286  15.044  0.6865 -0.1898  0.3378
15033TIP3    H266515   1.372   4.386  14.985  0.7755 -0.4477 -0.2596
15034TIP3   OH266516   1.976   4.587   0.564  0.2004  0.0786 -0.1680
15034TIP3    H166517   2.052   4.602   0.509 -0.6575  0.3979 -1.3074
15034TIP3    H266518   1.909   4.646   0.530 -0.3348  0.3868  1.3063
15035TIP3   OH266519   5.275   2.854  11.798  0.1157  0.2689  0.0359
15035TIP3    H166520   5.363   2.835  11.830  0.6339  0.6272 -1.1201
15035TIP3    H266521   5.283   2.851  11.702 -1.2333 -0.1368 -0.0868
15036TIP3   OH266522   1.312   3.729  16.592  0.5776  0.0865  0.3276
15036TIP3    H166523   1.270   3.642  16.591 -0.6875  0.6424  1.3168
15036TIP3    H266524   1.278   3.770  16.672 -1.3611  2.6671 -1.6395
15037TIP3   OH266525   6.036   0.853  15.742  0.5251 -0.3972  0.0330
15037TIP3    H166526   6.117   0.818  15.777  1.8889 -1.0030 -3.3160
15037TIP3    H266527   6.050   0.948  15.738 -0.3137 -0.1043  2.4222
15038TIP3   OH266528   1.851   5.803  14.159  0.3506  0.2110  0.7044
15038TIP3    H166529   1.909   5.728  14.145 -0.6465 -0.4612  0.0074
15038TIP3    H266530   1.910   5.878  14.168  1.3265 -0.4700  0.1545
15039TIP3   OH266531   0.097   1.176  13.185  0.2331 -0.3248 -0.3822
15039TIP3    H166532   0.030   1.107  13.191  3.0231 -3.3128 -1.1744
15039TIP3    H266533   0.064   1.235  13.117 -2.5225 -0.4441  0.7016
15040TIP3   OH266534   3.222   0.887  17.207  0.0140 -0.0333 -0.2968
15040TIP3    H166535   3.278   0.962  17.227 -1.4162  0.8065  0.8422
15040TIP3    H266536   3.237   0.869  17.115  3.0325 -0.6564  0.2379
15041TIP3   OH266537   3.125   6.042   0.284 -0.6490 -0.5568  0.2077
15041TIP3    H166538   3.118   6.129   0.324  0.2082  0.0550 -0.9304
15041TIP3    H266539   3.219   6.029   0.273 -0.7553 -1.7666  0.6405
15042TIP3   OH266540   3.521   2.489   3.133  0.4977  0.4098  0.3251
15042TIP3    H166541   3.581   2.415   3.123 -1.5626 -1.3347  0.2278
15042TIP3    H266542   3.578   2.566   3.135  2.9917 -1.2805  2.8893
15043TIP3   OH266543   0.637   6.697  15.927  0.1814  0.3992  0.2327
15043TIP3    H166544   0.595   6.623  15.883 -0.2502  0.4681  0.5340
15043TIP3    H266545   0.662   6.662  16.012 -0.2176  0.6621  0.4580
15044TIP3   OH266546   2.894   2.149  15.319 -0.5013  0.0448 -0.0714
15044TIP3    H166547   2.865   2.110  15.237 -2.9005 -0.7740  1.0870
15044TIP3    H266548   2.986   2.122  15.327 -0.6111 -0.9972 -1.8059
15045TIP3   OH266549   2.582   6.127   0.978  0.1528 -0.1945 -0.8983
15045TIP3    H166550   2.618   6.196   0.922  1.4834  0.2045  0.3761
15045TIP3    H266551   2.638   6.128   1.056 -1.5632 -0.7709  0.4188
15046TIP3   OH266552   0.849   6.671   4.950  0.0995  0.0626 -0.5165
15046TIP3    H166553   0.783   6.647   4.886  0.5562  1.8779 -1.7334
15046TIP3    H266554   0.912   6.599   4.948 -0.7712 -0.7149 -0.8124
15047TIP3   OH266555   3.478   1.161  13.395 -0.0485 -0.1847  0.0843
15047TIP3    H166556   3.492   1.076  13.352 -0.8117  0.2003 -0.9643
15047TIP3    H266557   3.514   1.225  13.333  1.8865  0.2062  1.5228
15048TIP3   OH266558   6.138   4.359   5.423  0.0881  0.5543  0.3745
15048TIP3    H166559   6.109   4.316   5.504 -0.6202 -0.3074 -0.3269
15048TIP3    H266560   6.209   4.416   5.452 -0.9418  1.1826  1.8041
15049TIP3   OH266561   4.419   3.155   1.211 -0.0318 -0.1691 -0.1704
15049TIP3    H166562   4.495   3.101   1.233  0.8201  0.3849 -1.5990
15049TIP3    H266563   4.451   3.245   1.218 -1.0289  0.1433  0.7609
15050TIP3   OH266564   0.343   1.664  13.632 -0.0572 -0.3917  0.0481
15050TIP3    H166565   0.258   1.645  13.671  0.3818 -0.7714  0.8422
15050TIP3    H266566   0.352   1.601  13.561  0.0846 -1.1762  0.7480
15051TIP3   OH266567   5.350   1.581  14.320 -0.3394 -0.1860 -0.2698
15051TIP3    H166568   5.258   1.604  14.316  0.1723  1.9811 -1.1221
15051TIP3    H266569   5.365   1.524  14.244 -1.6424 -3.7613  1.9001
15052TIP3   OH266570   5.314   4.412  14.799 -0.3541  1.0192 -0.2372
15052TIP3    H166571   5.252   4.372  14.861 -1.3118  0.3710 -1.5546
15052TIP3    H266572   5.307   4.358  14.721  1.3483  1.4081 -0.6881
15053TIP3   OH266573   4.969   4.555  11.715  0.1487  0.1213 -0.2251
15053TIP3    H166574   5.029   4.501  11.664 -0.6636 -0.2226 -0.8290
15053TIP3    H266575   4.882   4.519  11.697 -0.1871  0.1937  1.1567
15054TIP3   OH266576   5.085   0.719   5.412  0.1024 -0.1818 -0.0074
15054TIP3    H166577   5.054   0.643   5.364  0.2859  0.4659 -1.1980
15054TIP3    H266578   5.174   0.696   5.439  0.2070 -0.3493 -0.4794
15055TIP3   OH266579   4.914   5.304   1.366 -0.5680  0.3661  0.1146
15055TIP3    H166580   4.822   5.325   1.383 -0.2857  1.9187 -0.0698
15055TIP3    H266581   4.956   5.308   1.452 -0.9739 -2.3066  0.5126
15056TIP3   OH266582   1.895   5.589   0.532  0.0251  0.0907  0.6705
15056TIP3    H166583   1.820   5.591   0.473  1.0306  1.2490 -0.6340
15056TIP3    H266584   1.890   5.670   0.582  0.8239  0.5694  0.0033
15057TIP3   OH266585   4.973   2.604  11.642 -0.3285 -0.1386  0.6361
15057TIP3    H166586   5.057   2.596  11.597  0.1655  0.2031  1.4591
15057TIP3    H266587   4.974   2.693  11.678 -2.4676  1.1767 -2.0930
15058TIP3   OH266588   0.568   6.646   0.667  0.4206  0.5695  0.2198
15058TIP3    H166589   0.526   6.582   0.725 -0.3054  1.3138  0.5371
15058TIP3    H266590   0.497   6.674   0.608  0.1783  2.5576  1.3674
15059TIP3   OH266591   5.457   0.967   0.558 -0.9675  0.9884 -0.6986
15059TIP3    H166592   5.395   0.917   0.610  1.0856 -0.3980  0.5387
15059TIP3    H266593   5.520   1.001   0.621  1.6901 -0.8543 -2.1735
15060TIP3   OH266594   6.699   3.871  17.300 -0.3244  0.1562  0.5754
15060TIP3    H166595   6.694   3.942  17.365 -0.3725  1.0672 -0.4007
15060TIP3    H266596   6.712   3.916  17.217 -1.6283 -0.9226 -0.2459
15061TIP3   OH266597   2.538   5.664   4.391 -0.5958  0.1566 -0.4445
15061TIP3    H166598   2.618   5.611   4.386  0.5013  1.3994  1.9838
15061TIP3    H266599   2.569   5.755   4.389 -1.7681  0.6711  1.7401
15062TIP3   OH266600   3.012   1.979  13.650  0.0721 -0.1401  0.0625
15062TIP3    H166601   3.074   1.978  13.723 -0.7759  0.4382  0.8119
15062TIP3    H266602   3.063   2.011  13.575  1.3143 -2.0085  0.0408
15063TIP3   OH266603   4.017   1.625  14.697 -0.0418 -0.3883 -0.1897
15063TIP3    H166604   4.107   1.649  14.677  0.7618 -1.5561  1.8333
15063TIP3    H266605   4.014   1.530  14.686  0.0097 -0.8988  3.1660
15064TIP3   OH266606   5.348   1.601   1.930 -0.4306  0.3528  0.3247
15064TIP3    H166607   5.419   1.543   1.955 -1.9081 -0.1986  3.8573
15064TIP3    H266608   5.272   1.543   1.922 -1.3504  1.4125  1.0624
15065TIP3   OH266609   3.966   5.526  11.699 -0.5358  0.6308 -0.5974
15065TIP3    H166610   3.995   5.462  11.634 -0.7075 -0.2294  0.1384
15065TIP3    H266611   4.047   5.567  11.730 -0.1287 -1.0810  0.7620
15066TIP3   OH266612   0.603   5.936  14.251 -0.0271 -0.3505  0.0990
15066TIP3    H166613   0.550   5.907  14.325 -0.3278 -0.3483 -0.1148
15066TIP3    H266614   0.540   5.953  14.181  0.3148 -1.1089 -0.4075
15067TIP3   OH266615   6.109   0.423   3.344  0.0039  0.3727  0.5341
15067TIP3    H166616   6.088   0.449   3.254  0.8838  1.8881  0.7209
15067TIP3    H266617   6.103   0.328   3.344  2.5997  0.0862 -1.8619
15068TIP3   OH266618   3.686   2.449  14.092 -0.1964 -0.7522  0.3992
15068TIP3    H166619   3.689   2.537  14.054  2.8376 -1.1724 -0.5983
15068TIP3    H266620   3.641   2.396  14.025 -0.0303 -0.3903 -0.0026
15069TIP3   OH266621   4.395   3.435  11.014 -0.7636 -0.0343  0.0451
15069TIP3    H166622   4.461   3.369  10.996  0.4417  0.6284  1.7936
15069TIP3    H266623   4.317   3.404  10.969 -0.1513 -2.4769  0.5557
15070TIP3   OH266624   4.597   5.432   0.045 -0.0736 -0.1016  0.1517
15070TIP3    H166625   4.682   5.476   0.043  0.0304 -0.2689  0.8434
15070TIP3    H266626   4.541   5.489   0.099  0.0820 -0.8423  1.1143
15071TIP3   OH266627   2.520   0.974   5.941 -0.0294 -0.6091 -0.6602
15071TIP3    H166628   2.474   0.907   5.992  0.1541 -0.8344 -0.7877
15071TIP3    H266629   2.461   0.992   5.867  0.3901 -1.4053 -1.2043
15072TIP3   OH266630   4.170   2.293   2.849  0.9071  0.3099 -0.6235
15072TIP3    H166631   4.204   2.361   2.792  1.4341 -1.1979 -2.2118
15072TIP3    H266632   4.246   2.262   2.898  0.7050  0.7263 -0.0389
15073TIP3   OH266633   0.391   2.820  17.162 -0.1433  0.3867  0.1388
15073TIP3    H166634   0.359   2.822  17.072 -0.0685  0.5000  0.1130
15073TIP3    H266635   0.437   2.737  17.170 -0.9546 -0.0486  0.3527
15074TIP3   OH266636   1.171   0.654   0.267  0.0867 -0.3008 -0.2158
15074TIP3    H166637   1.141   0.666   0.176 -2.1170  1.0863  0.6083
15074TIP3    H266638   1.110   0.707   0.319  1.1899 -1.1974  2.1045
15075TIP3   OH266639   2.554   1.507   3.134 -0.0893  0.1890  0.1302
15075TIP3    H166640   2.616   1.539   3.068  4.8202 -2.4325  2.8639
15075TIP3    H266641   2.557   1.573   3.203 -0.1778 -0.0281  0.3423
15076TIP3   OH266642   6.607   5.427   4.277 -0.4490  0.4126 -0.0722
15076TIP3    H166643   6.623   5.366   4.205 -1.4590 -0.8965  0.7735
15076TIP3    H266644   6.682   5.486   4.275  1.3720 -1.7489 -0.0235
15077TIP3   OH266645   2.668   4.386  14.596 -0.0719 -0.0620  0.0478
15077TIP3    H166646   2.596   4.392  14.533 -0.1284 -0.3067  0.0863
15077TIP3    H266647   2.712   4.304  14.573 -1.0112 -0.9667  1.2855
15078TIP3   OH266648   4.208   5.698   1.371  0.2589  0.0795  0.3574
15078TIP3    H166649   4.227   5.607   1.394  1.1361  0.5504  1.6311
15078TIP3    H266650   4.147   5.727   1.439  1.5177  1.0013  1.1177
15079TIP3   OH266651   5.487   2.788   0.788  0.0392  0.4197 -0.3099
15079TIP3    H166652   5.536   2.854   0.739 -0.2856  0.0885 -1.0868
15079TIP3    H266653   5.548   2.715   0.799  0.0843  0.4599 -0.2930
15080TIP3   OH266654   0.839   5.564   2.374 -0.1444  0.2274 -0.1766
15080TIP3    H166655   0.848   5.594   2.283 -2.6651  0.7989 -0.3167
15080TIP3    H266656   0.780   5.488   2.368 -0.7584  0.5926  1.0180
15081TIP3   OH266657   3.704   6.540   5.210 -0.1461  0.0271 -0.2735
15081TIP3    H166658   3.666   6.526   5.297  0.9697 -0.4580  0.1468
15081TIP3    H266659   3.744   6.457   5.187  1.7959  0.8752 -0.1204
15082TIP3   OH266660   1.503   2.301   3.471 -0.5939  0.1094 -0.0478
15082TIP3    H166661   1.488   2.352   3.392  0.9097  1.5338  0.5261
15082TIP3    H266662   1.535   2.365   3.535 -1.0599 -1.1338  1.4967
15083TIP3   OH266663   3.424   2.250  11.390  0.2148 -0.8356  0.1721
15083TIP3    H166664   3.518   2.238  11.406  0.0650 -1.8049  0.4093
15083TIP3    H266665   3.394   2.164  11.362 -0.0843  0.0735 -2.5931
15084TIP3   OH266666   2.737   0.566  13.271  0.0526  0.0609 -0.4038
15084TIP3    H166667   2.727   0.473  13.251  0.9696 -0.4402  1.2388
15084TIP3    H266668   2.697   0.575  13.358  0.6930  1.0254 -0.2052
15085TIP3   OH266669   5.777   2.677   4.030 -0.3544 -0.1829 -0.6986
15085TIP3    H166670   5.696   2.646   4.070  0.3940  0.7767  1.7393
15085TIP3    H266671   5.785   2.768   4.060  1.1559  0.0354 -1.6769
15086TIP3   OH266672   4.737   2.854  15.650  0.1006  0.1794  0.0083
15086TIP3    H166673   4.711   2.812  15.567 -0.5158  1.1998 -0.3366
15086TIP3    H266674   4.670   2.920  15.665  0.4345  0.2827  1.1300
15087TIP3   OH266675   3.504   0.053   4.406  0.5261  0.6991  0.5731
15087TIP3    H166676   3.575   0.065   4.343  0.4166  0.5762  0.4259
15087TIP3    H266677   3.531  -0.024   4.457  0.6929  0.8955  0.7850
15088TIP3   OH266678   2.607   4.360  11.175  0.2784  0.1303  0.5032
15088TIP3    H166679   2.597   4.384  11.267 -0.6725 -0.7257  0.6282
15088TIP3    H266680   2.525   4.318  11.151  0.8792 -0.5369 -0.4701
15089TIP3   OH266681   3.384   3.009  16.878 -0.0640 -0.3485  0.0780
15089TIP3    H166682   3.340   2.929  16.908 -1.1049  0.4486  0.7708
15089TIP3    H266683   3.367   3.012  16.784  0.2430 -1.0852 -0.0090
15090TIP3   OH266684   3.667   6.273   3.490 -0.0244 -0.3392 -0.0245
15090TIP3    H166685   3.676   6.328   3.413 -0.9236 -0.3107 -0.1202
15090TIP3    H266686   3.713   6.321   3.559  1.2442 -0.6216 -0.6501
15091TIP3   OH266687   1.457   6.204   4.601 -0.1696  0.0175 -0.2493
15091TIP3    H166688   1.441   6.297   4.585 -1.2832  0.0931  1.1203
15091TIP3    H266689   1.372   6.169   4.628  0.3250 -1.3182 -0.3097
15092TIP3   OH266690   0.756   5.034  14.998  0.2065  0.2119  0.2225
15092TIP3    H166691   0.849   5.041  14.978 -0.1509 -0.6967 -2.0187
15092TIP3    H266692   0.748   5.066  15.088  2.6631  0.3106  0.4576
15093TIP3   OH266693   4.248   0.420   0.668 -0.5084 -0.3136 -0.0442
15093TIP3    H166694   4.254   0.424   0.573 -0.8172  2.8770 -0.0160
15093TIP3    H266695   4.203   0.337   0.685 -0.0989 -1.1627 -2.6163
15094TIP3   OH266696   6.109   6.447  13.281 -0.0879 -0.5540 -0.0356
15094TIP3    H166697   6.122   6.541  13.297  1.6230 -1.0034  1.6011
15094TIP3    H266698   6.189   6.406  13.314 -0.3115 -2.5182 -1.7470
15095TIP3   OH266699   4.665   1.631  13.366  1.0470  0.2944  0.2093
15095TIP3    H166700   4.627   1.581  13.438 -1.6192  1.1806 -0.4876
15095TIP3    H266701   4.692   1.714  13.405  0.3782  0.4488  0.3464
15096TIP3   OH266702   6.577   5.819   6.165 -0.3748  0.1267  0.6268
15096TIP3    H166703   6.666   5.790   6.186 -0.5232 -0.8816 -0.0616
15096TIP3    H266704   6.522   5.744   6.185 -1.1908  0.9770  1.7180
15097TIP3   OH266705   1.165   2.533  13.092  0.6941  0.3298  0.1451
15097TIP3    H166706   1.171   2.628  13.106 -1.8345  0.5844 -0.0331
15097TIP3    H266707   1.237   2.514  13.032  1.8913  1.9397  0.9766
15098TIP3   OH266708   2.410   4.131  15.191 -0.2440  0.1250  0.3812
15098TIP3    H166709   2.378   4.048  15.227 -0.7644  0.1524 -0.0052
15098TIP3    H266710   2.454   4.107  15.109  0.4170  0.1302  0.7265
15099TIP3   OH266711   0.379   2.543   1.858 -0.5108  0.3282  0.0096
15099TIP3    H166712   0.431   2.462   1.851  0.0270  0.5768  0.9994
15099TIP3    H266713   0.315   2.525   1.927 -0.1421  0.8680  0.5004
15100TIP3   OH266714   1.475   2.042  12.058  0.3222 -0.2640  0.0598
15100TIP3    H166715   1.545   2.082  12.108  0.0810 -0.0284  0.2096
15100TIP3    H266716   1.456   2.105  11.988 -1.2858  0.7636  1.3318
15101TIP3   OH266717   2.995   0.899   3.626  0.5397 -0.3938 -0.0751
15101TIP3    H166718   3.020   0.832   3.562 -0.1295 -1.3376  0.6120
15101TIP3    H266719   3.061   0.892   3.695 -0.1663 -1.1762  0.5508
15102TIP3   OH266720   3.729   1.150  17.205 -0.4223  0.4188  0.0121
15102TIP3    H166721   3.759   1.084  17.143  2.5526  0.6601  1.0328
15102TIP3    H266722   3.760   1.233  17.169 -0.5321  0.8000  0.7790
15103TIP3   OH266723   2.734   1.207  16.891 -0.4026 -0.0169 -0.2309
15103TIP3    H166724   2.738   1.280  16.830 -0.7760  0.2644  0.0745
15103TIP3    H266725   2.689   1.137  16.842 -2.0938  0.7096  0.1904
15104TIP3   OH266726   4.957   5.059  12.178 -0.3552 -0.1225  0.0970
15104TIP3    H166727   5.045   5.021  12.176  0.1100  0.9232  0.3748
15104TIP3    H266728   4.958   5.118  12.254 -0.7811  1.1251 -0.8443
15105TIP3   OH266729   4.494   0.975  16.138 -0.0897 -0.2082  0.5067
15105TIP3    H166730   4.511   0.889  16.099  1.3225  0.3050 -0.0607
15105TIP3    H266731   4.572   0.994  16.191  0.1043  1.1837 -0.2303
15106TIP3   OH266732   1.077   4.072   6.118 -0.5084  0.2848  0.2137
15106TIP3    H166733   1.056   4.068   6.024 -0.0936 -0.4321  0.1422
15106TIP3    H266734   1.124   3.991   6.135  1.3615  1.3754  0.5579
15107TIP3   OH266735   4.525   5.154   3.655  0.2202  0.0711 -0.1856
15107TIP3    H166736   4.437   5.119   3.669 -1.5451  2.7402 -3.1359
15107TIP3    H266737   4.534   5.223   3.720  1.3971 -1.9783  1.9459
15108TIP3   OH266738   5.080   1.499   5.149  0.2235  0.0668  0.0351
15108TIP3    H166739   5.080   1.587   5.113  0.3908  0.5410  1.1759
15108TIP3    H266740   5.162   1.460   5.118 -0.2717 -0.0218 -1.2234
15109TIP3   OH266741   1.717   1.703   1.840  0.5089 -0.1849 -0.1132
15109TIP3    H166742   1.711   1.682   1.747  1.1568 -0.1091 -0.1746
15109TIP3    H266743   1.761   1.628   1.880 -0.7276 -0.7023  0.3144
15110TIP3   OH266744   3.639   0.292   0.952  0.5857  0.4951 -0.0946
15110TIP3    H166745   3.711   0.287   1.014  0.3211 -0.3037  0.1612
15110TIP3    H266746   3.594   0.374   0.973  0.5944  0.3093  0.6672
15111TIP3   OH266747   1.651   3.868   5.407  0.1737 -0.2905  0.2669
15111TIP3    H166748   1.646   3.959   5.379  1.2719 -0.4494 -0.5048
15111TIP3    H266749   1.692   3.872   5.493 -1.9840  0.0926  1.3628
15112TIP3   OH266750   0.428   2.972   2.588 -0.3905  0.1191 -0.0317
15112TIP3    H166751   0.476   2.898   2.551 -1.8623 -1.2324  0.7066
15112TIP3    H266752   0.479   3.049   2.561  1.7328 -1.1961  0.0623
15113TIP3   OH266753   0.583   0.093  11.868 -0.7336  0.9976 -0.1075
15113TIP3    H166754   0.514   0.051  11.920 -0.9294 -0.1090 -1.2212
15113TIP3    H266755   0.623   0.156  11.928 -0.6203 -0.5791  1.5541
15114TIP3   OH266756   3.308   4.850  14.190 -0.1978 -0.2256  0.1191
15114TIP3    H166757   3.240   4.836  14.257 -0.5553 -0.7160 -0.3333
15114TIP3    H266758   3.285   4.789  14.120 -0.0798  0.5924 -0.6453
15115TIP3   OH266759   4.732   0.108   5.290 -0.4055  0.0944 -0.0502
15115TIP3    H166760   4.750   0.106   5.384 -1.6151  1.1049  0.2406
15115TIP3    H266761   4.810   0.073   5.249 -0.1328 -1.0279  1.3713
15116TIP3   OH266762   0.206   0.861  12.420 -0.6193 -0.0888 -0.0818
15116TIP3    H166763   0.301   0.865  12.412 -0.4232  0.7325  2.0108
15116TIP3    H266764   0.190   0.781  12.469 -0.9771  0.0601  0.0454
15117TIP3   OH266765   1.402   0.680  15.103  0.4944 -0.5094  0.5005
15117TIP3    H166766   1.341   0.607  15.091 -1.0387  0.3822  2.2601
15117TIP3    H266767   1.357   0.738  15.165  2.1865  1.3274  0.0920
15118TIP3   OH266768   2.277   6.508  16.290 -0.7287  0.1472 -0.1323
15118TIP3    H166769   2.235   6.463  16.364 -2.7104 -1.8970 -2.3428
15118TIP3    H266770   2.276   6.600  16.315  1.3910 -0.6278  3.6156
15119TIP3   OH266771   2.657   5.610   3.493 -0.0197  0.2981  0.1389
15119TIP3    H166772   2.591   5.673   3.464 -0.5289 -0.7881 -1.1941
15119TIP3    H266773   2.650   5.608   3.588 -1.2231  0.9242  0.0750
15120TIP3   OH266774   1.971   4.148   1.637  0.1786  0.3819  0.1917
15120TIP3    H166775   2.059   4.112   1.640  0.4101  0.8756 -0.4400
15120TIP3    H266776   1.934   4.114   1.556 -0.8174 -1.1524  1.2269
15121TIP3   OH266777   3.527   0.309   5.175 -0.0836  0.2254 -0.1912
15121TIP3    H166778   3.552   0.292   5.266 -0.8995  2.0324  0.4098
15121TIP3    H266779   3.607   0.290   5.125  0.7940  0.5090  1.0544
15122TIP3   OH266780   1.026   5.538   4.293  0.0424  0.5433  0.1428
15122TIP3    H166781   1.066   5.598   4.356  1.0544  0.3842 -0.3305
15122TIP3    H266782   0.976   5.594   4.234  1.9713  1.0962 -1.0424
15123TIP3   OH266783   1.052   2.431   2.203  0.3406 -0.1649 -0.2478
15123TIP3    H166784   1.094   2.355   2.244 -0.9180 -0.6634  0.1743
15123TIP3    H266785   0.959   2.418   2.219  0.0228  0.9610 -1.0631
15124TIP3   OH266786   1.936   6.068  14.601 -0.3019  0.0080 -0.3106
15124TIP3    H166787   1.978   6.134  14.546 -0.7154 -0.0915 -0.7611
15124TIP3    H266788   1.989   5.989  14.590  0.1539  0.2429  0.1748
15125TIP3   OH266789   1.584   1.012   5.781  0.1734  0.4182  0.8636
15125TIP3    H166790   1.564   1.073   5.852  0.6341 -0.5097  1.8270
15125TIP3    H266791   1.679   0.998   5.788  0.0791 -0.3862  0.6595
15126TIP3   OH266792   4.013   1.980   5.782 -0.1185 -0.0237 -0.0602
15126TIP3    H166793   3.945   2.048   5.782 -2.0083 -1.7644 -2.3629
15126TIP3    H266794   3.990   1.924   5.856  1.0062  1.3008  1.3740
15127TIP3   OH266795   4.519   6.430  12.385  0.2809 -0.3819 -0.1493
15127TIP3    H166796   4.582   6.430  12.457 -0.3999 -0.3511  0.4549
15127TIP3    H266797   4.539   6.350  12.335  0.9919 -0.2129 -0.1492
15128TIP3   OH266798   0.955   3.424  13.938 -0.0291 -0.1682  0.1079
15128TIP3    H166799   0.985   3.439  14.028  0.4185  0.1167 -0.0826
15128TIP3    H266800   0.980   3.504  13.892  1.7119 -1.1817 -0.7696
15129TIP3   OH266801   6.535   0.334  16.174 -0.2717 -0.3007  0.1079
15129TIP3    H166802   6.493   0.284  16.104  0.8992 -0.8369 -0.2312
15129TIP3    H266803   6.551   0.420  16.135  0.4421 -0.6189 -0.3364
15130TIP3   OH266804   2.274   5.566   0.726 -0.3264 -0.2177 -0.2547
15130TIP3    H166805   2.194   5.606   0.691 -0.2862  1.0296  0.9565
15130TIP3    H266806   2.314   5.636   0.779  1.7983 -0.6699 -1.1593
15131TIP3   OH266807   6.438   1.030  11.095 -0.3963  0.4854  0.0004
15131TIP3    H166808   6.374   1.030  11.166 -0.9549 -1.6340 -0.4256
15131TIP3    H266809   6.503   0.965  11.121 -1.5780 -1.7012 -2.1551
15132TIP3   OH266810   2.715   2.212  14.042  0.7523  0.2888 -0.5532
15132TIP3    H166811   2.779   2.145  14.064  1.1921  0.0593 -2.3648
15132TIP3    H266812   2.755   2.261  13.970 -0.4876  1.0748 -0.7403
15133TIP3   OH266813   2.372   0.954   5.118 -0.7266 -0.2051 -0.0475
15133TIP3    H166814   2.410   0.933   5.033 -1.3408 -0.4853 -0.2618
15133TIP3    H266815   2.311   0.882   5.135 -0.7823 -0.0311  0.5233
15134TIP3   OH266816   1.623   5.090   2.731 -0.1688 -0.2357  0.0956
15134TIP3    H166817   1.578   5.051   2.656 -0.4819  1.4107 -0.5995
15134TIP3    H266818   1.556   5.096   2.799 -0.5508  0.5273 -0.3310
15135TIP3   OH266819   4.845   1.986   2.722 -0.2646 -0.4950  0.1013
15135TIP3    H166820   4.823   2.072   2.758  0.7682 -0.1076 -0.1360
15135TIP3    H266821   4.889   2.006   2.639 -1.2908 -1.3139 -0.6632
15136TIP3   OH266822   4.264   6.061  16.079 -0.1175 -0.3129 -0.6164
15136TIP3    H166823   4.289   6.103  16.162 -1.1398  0.7903 -0.8228
15136TIP3    H266824   4.239   5.972  16.103  1.8362 -0.7584 -0.1086
15137TIP3   OH266825   0.006   0.308  17.018  0.0452 -0.0370 -0.9635
15137TIP3    H166826   0.060   0.259  17.079 -2.2750  0.3295  1.6203
15137TIP3    H266827   0.051   0.301  16.934  2.8634 -1.5146  0.5282
15138TIP3   OH266828   2.738   0.472   2.981  0.3827 -0.0988 -0.2651
15138TIP3    H166829   2.744   0.376   2.982  0.1599 -0.1569 -1.6638
15138TIP3    H266830   2.708   0.492   2.892 -0.8709  1.2041  0.4214
15139TIP3   OH266831   1.755   2.447  12.303  0.4110  0.2518 -0.2503
15139TIP3    H166832   1.822   2.473  12.239  0.2481  0.7750 -0.2076
15139TIP3    H266833   1.799   2.382  12.358  2.0412  2.9631  1.9253
15140TIP3   OH266834   3.641   5.059  12.136  0.2881 -0.2021  0.4651
15140TIP3    H166835   3.709   5.008  12.092  1.3671  2.8033 -1.7397
15140TIP3    H266836   3.689   5.120  12.192 -0.9542 -1.6686  3.3293
15141TIP3   OH266837   3.256   1.432  11.395 -0.0042 -0.8457 -0.6985
15141TIP3    H166838   3.292   1.358  11.347  1.1171 -0.7152 -0.1009
15141TIP3    H266839   3.333   1.481  11.424 -0.7217  1.1349 -1.9528
15142TIP3   OH266840   4.542   5.137   5.697 -0.0887  0.5196 -0.2663
15142TIP3    H166841   4.531   5.130   5.791 -1.7063  1.6553 -0.3278
15142TIP3    H266842   4.515   5.051   5.663 -0.5266  0.4570  0.2370
15143TIP3   OH266843   0.494   2.553   3.326 -0.5736  0.2424 -0.1925
15143TIP3    H166844   0.475   2.605   3.404  0.7092  0.6256 -0.1127
15143TIP3    H266845   0.482   2.614   3.253  1.3081  0.7954 -0.0746
15144TIP3   OH266846   6.102   1.536   6.252  0.7841  0.3445 -0.0833
15144TIP3    H166847   6.066   1.449   6.231  0.3812  0.9231 -1.9423
15144TIP3    H266848   6.194   1.519   6.270  0.3640 -0.6864  1.3186
15145TIP3   OH266849   4.731   2.038  11.624 -0.0599  0.4199 -0.0238
15145TIP3    H166850   4.757   2.118  11.670  2.6314 -0.9555  1.1449
15145TIP3    H266851   4.804   2.019  11.565 -0.2351 -1.5509  0.3097
15146TIP3   OH266852   2.118   0.151   0.912  0.8115 -0.5628 -0.0905
15146TIP3    H166853   2.209   0.137   0.938  0.7526  1.1896  1.2265
15146TIP3    H266854   2.122   0.222   0.847  0.5995 -2.4299 -2.2700
15147TIP3   OH266855   0.876   3.351  13.493  0.0478  0.1364 -0.2474
15147TIP3    H166856   0.868   3.304  13.410 -0.9077  0.1305 -0.1586
15147TIP3    H266857   0.837   3.437  13.476  1.6692  0.8974 -0.3743
15148TIP3   OH266858   1.846   4.284  14.634 -0.0903  0.4784 -0.0540
15148TIP3    H166859   1.834   4.219  14.565  1.8968 -1.2730  1.1431
15148TIP3    H266860   1.842   4.234  14.715 -0.1176  2.1387  1.0174
15149TIP3   OH266861   2.759   5.541   1.641 -0.0532 -0.1279 -0.0408
15149TIP3    H166862   2.680   5.493   1.617 -0.4564  0.4828  0.0560
15149TIP3    H266863   2.728   5.621   1.683  0.6321 -0.3339  0.8931
15150TIP3   OH266864   3.755   0.261   5.020 -0.1152 -0.1831 -0.2392
15150TIP3    H166865   3.825   0.255   4.955 -2.1058 -1.2953 -2.4211
15150TIP3    H266866   3.749   0.173   5.057  1.3768  0.5686  1.9912
15151TIP3   OH266867   2.786   1.516   1.645  0.2840  0.0227 -0.3991
15151TIP3    H166868   2.825   1.429   1.653  1.6208  0.7816  2.6332
15151TIP3    H266869   2.847   1.566   1.591  0.2401 -0.4806 -0.9292
15152TIP3   OH266870   5.697   0.457   1.985 -0.4278 -0.1406 -0.2364
15152TIP3    H166871   5.647   0.376   1.980 -3.5162  1.6683 -0.9845
15152TIP3    H266872   5.690   0.495   1.898 -0.0101  1.4766  0.4020
15153TIP3   OH266873   6.008   4.366   0.167  0.2844  0.3088 -0.1517
15153TIP3    H166874   5.994   4.272   0.177  0.6388  0.2717 -0.0107
15153TIP3    H266875   5.992   4.383   0.074  0.4836  0.0648 -0.2314
15154TIP3   OH266876   2.289   6.497  13.531 -0.2187  0.2071  0.1002
15154TIP3    H166877   2.252   6.492  13.620  0.1048  1.2727  0.3111
15154TIP3    H266878   2.373   6.540  13.542 -0.5063  1.0542 -0.8055
15155TIP3   OH266879   2.975   4.836   0.833 -0.0105 -0.2873  0.4624
15155TIP3    H166880   2.888   4.799   0.815  0.0992 -1.2904  1.8689
15155TIP3    H266881   3.032   4.795   0.768 -0.4464 -0.2217  0.0302
15156TIP3   OH266882   4.752   0.960  15.582 -0.2290 -0.2374  0.4418
15156TIP3    H166883   4.833   0.974  15.631 -0.1029  0.6152  0.0071
15156TIP3    H266884   4.743   0.865  15.578  0.9944 -0.3618  0.1054
15157TIP3   OH266885   3.947   1.828  16.955  0.4314  0.0646  0.2119
15157TIP3    H166886   3.955   1.887  17.031 -0.7405  1.8616 -0.9753
15157TIP3    H266887   3.898   1.879  16.891  4.3945  0.0705 -3.2099
15158TIP3   OH266888   4.492   5.375  11.859  0.1468  0.2531 -0.1265
15158TIP3    H166889   4.555   5.448  11.863  0.6268 -0.1991  1.0822
15158TIP3    H266890   4.467   5.360  11.950  0.7429 -1.6674 -0.2418
15159TIP3   OH266891   0.435   2.809  15.703 -0.4578 -0.1023  0.0209
15159TIP3    H166892   0.506   2.802  15.766 -0.8366 -0.2528  0.4406
15159TIP3    H266893   0.477   2.836  15.621 -0.0449  0.7701  0.5101
15160TIP3   OH266894   4.264   2.483  12.119 -0.0959 -0.0940 -0.4895
15160TIP3    H166895   4.341   2.538  12.109  0.1846 -0.6163 -1.3480
15160TIP3    H266896   4.246   2.482  12.213  0.9745 -0.0086 -0.2777
15161TIP3   OH266897   2.653   1.893  16.226 -0.1337  0.0704  0.6511
15161TIP3    H166898   2.606   1.953  16.285 -1.8618 -0.5591 -0.0240
15161TIP3    H266899   2.734   1.940  16.204  0.0300  0.8098  2.5954
15162TIP3   OH266900   2.921   5.599  16.215  0.4222 -0.4241  0.3564
15162TIP3    H166901   2.981   5.617  16.287  0.2901 -1.8998  0.8724
15162TIP3    H266902   2.864   5.676  16.212  1.4428  0.3687  0.7657
15163TIP3   OH266903   6.221   1.118  16.486  0.1858  0.2759  0.0989
15163TIP3    H166904   6.317   1.111  16.484  0.3122  1.0818  1.8826
15163TIP3    H266905   6.197   1.099  16.576 -1.6184 -2.4815 -0.8153
15164TIP3   OH266906   1.470   6.346  14.026  0.5380 -0.0194 -0.1678
15164TIP3    H166907   1.429   6.272  14.070 -2.0517  0.4023 -1.7137
15164TIP3    H266908   1.477   6.413  14.094 -1.1025 -0.2387  0.2631
15165TIP3   OH266909   5.628   6.604  13.676 -0.0895  0.2486  0.0470
15165TIP3    H166910   5.693   6.667  13.706  0.1432  0.6750 -1.2727
15165TIP3    H266911   5.680   6.531  13.642 -0.2509  0.8012 -1.4612
15166TIP3   OH266912   4.877   5.822  17.100  0.1655 -0.0108  0.2407
15166TIP3    H166913   4.901   5.827  17.008  1.3692  0.3787  0.5435
15166TIP3    H266914   4.960   5.835  17.147 -0.6143  1.1040  1.3957
15167TIP3   OH266915   2.514   5.716   5.816 -0.4158 -0.3002 -0.3199
15167TIP3    H166916   2.521   5.684   5.726  0.2398  0.4548 -0.5492
15167TIP3    H266917   2.484   5.806   5.807  2.7202  0.8962 -0.0021
15168TIP3   OH266918   0.661   3.865  15.574 -0.0645  0.3545  0.0281
15168TIP3    H166919   0.646   3.915  15.494  0.3792  1.0366  0.3522
15168TIP3    H266920   0.605   3.907  15.639 -0.3417 -0.1273  0.1030
15169TIP3   OH266921   5.138   4.525   1.709 -0.0627  0.2471  0.2061
15169TIP3    H166922   5.199   4.580   1.661  1.5999 -0.1572  1.7651
15169TIP3    H266923   5.132   4.444   1.658 -0.4929  0.8431 -0.7183
15170TIP3   OH266924   0.779   3.052  14.920 -0.1311  0.3372  0.1750
15170TIP3    H166925   0.791   2.960  14.941  0.7254 -0.1471 -2.1289
15170TIP3    H266926   0.698   3.077  14.963  0.2557 -1.1443  1.8484
15171TIP3   OH266927   6.596   4.527  14.931 -0.6282 -0.2960 -0.7559
15171TIP3    H166928   6.542   4.510  15.009  0.2459 -1.6251 -0.4069
15171TIP3    H266929   6.606   4.622  14.930 -1.4235 -0.1777  0.2314
15172TIP3   OH266930   4.434   6.648   3.134 -0.0405 -0.1481 -0.3265
15172TIP3    H166931   4.343   6.675   3.142  0.4418  1.3274  0.6613
15172TIP3    H266932   4.450   6.594   3.212  0.4237  1.2263  0.5721
15173TIP3   OH266933   2.247   5.567   1.947  0.7742  0.1612 -0.4105
15173TIP3    H166934   2.336   5.532   1.953  0.8039  0.0814 -1.1919
15173TIP3    H266935   2.228   5.601   2.035  1.5543  0.1327 -0.2270
15174TIP3   OH266936   0.164   2.211   3.586 -0.1814  0.4191  0.4933
15174TIP3    H166937   0.181   2.120   3.610  1.8520  0.8523  0.8141
15174TIP3    H266938   0.104   2.204   3.511 -0.7286 -1.1368  1.0226
15175TIP3   OH266939   5.628   3.806  11.395 -0.1559  0.6950  0.3641
15175TIP3    H166940   5.567   3.777  11.327 -0.5600  1.1906  0.5114
15175TIP3    H266941   5.713   3.777  11.363 -0.5348 -0.5870  0.4812
15176TIP3   OH266942   5.840   0.814  13.033  0.0448 -0.2232  0.5921
15176TIP3    H166943   5.843   0.725  12.997  3.0735 -0.2473  0.6394
15176TIP3    H266944   5.820   0.870  12.958  0.4292 -0.7692  0.0705
15177TIP3   OH266945   4.335   0.353  14.833 -0.7650  0.1863  0.3692
15177TIP3    H166946   4.354   0.290  14.903 -1.7338 -1.0036 -0.3905
15177TIP3    H266947   4.254   0.321  14.794  1.2474 -0.9747 -3.2770
15178TIP3   OH266948   1.214   6.746  10.913  0.7621 -0.3476 -0.3218
15178TIP3    H166949   1.256   6.684  10.853  0.6348 -0.2177 -0.5481
15178TIP3    H266950   1.212   6.829  10.864  0.8843 -0.1794 -0.0422
15179TIP3   OH266951   3.709   1.429  13.123 -0.3486  0.1826  0.5530
15179TIP3    H166952   3.789   1.406  13.170  0.9625  0.5212 -1.3835
15179TIP3    H266953   3.642   1.436  13.191  1.1688 -0.4907  2.1948
15180TIP3   OH266954   0.988   0.021  13.765 -0.0052  0.0190  0.2606
15180TIP3    H166955   0.902  -0.018  13.782  0.8560 -1.0670  2.4440
15180TIP3    H266956   0.972   0.116  13.762 -1.4724 -0.2282 -0.9294
15181TIP3   OH266957   0.933   4.090  12.343  0.6366 -0.2379  0.3962
15181TIP3    H166958   1.014   4.089  12.394  0.6363 -0.3222  0.3943
15181TIP3    H266959   0.919   4.183  12.323  0.7959 -0.2343  0.2973
15182TIP3   OH266960   2.377   2.856   5.521  0.4063 -0.0791  0.5558
15182TIP3    H166961   2.305   2.793   5.508 -0.0840  0.5426  0.1989
15182TIP3    H266962   2.344   2.937   5.483  0.6755  0.6369  1.8140
15183TIP3   OH266963   4.542   2.698  15.085 -0.3984  0.0190 -0.0619
15183TIP3    H166964   4.568   2.775  15.135 -0.4401  0.6471 -1.0012
15183TIP3    H266965   4.624   2.651  15.070 -0.5602 -1.0922  2.0235
15184TIP3   OH266966   1.155   2.855  15.839  0.2243  0.7602 -0.4811
15184TIP3    H166967   1.072   2.888  15.804 -0.9898  1.5532  2.7787
15184TIP3    H266968   1.216   2.928  15.828 -0.0209  0.8719 -1.1511
15185TIP3   OH266969   1.644   5.711   0.668 -0.4884  0.2404 -0.3559
15185TIP3    H166970   1.665   5.682   0.756  2.9419  3.0421 -0.0325
15185TIP3    H266971   1.562   5.759   0.677  0.1767  1.0965  1.4902
15186TIP3   OH266972   2.915   5.250  11.763 -0.3208 -0.1476 -0.4765
15186TIP3    H166973   2.944   5.166  11.800 -2.9779 -0.9737 -0.0089
15186TIP3    H266974   2.988   5.309  11.776  2.1911 -2.6704 -1.9887
15187TIP3   OH266975   4.312   0.075  10.469 -0.1221  0.0261  0.0689
15187TIP3    H166976   4.382   0.140  10.462 -1.4542  1.4909 -0.1800
15187TIP3    H266977   4.329   0.014  10.397  0.9584  0.2825  0.0906
15188TIP3   OH266978   2.368   4.970  12.866  0.8674  0.3831 -0.1334
15188TIP3    H166979   2.425   4.961  12.790 -0.2468  0.8707 -1.0416
15188TIP3    H266980   2.352   4.880  12.895 -0.0662  0.0795 -1.5208
15189TIP3   OH266981   3.895   5.722  12.331  0.0120  0.5460  0.0522
15189TIP3    H166982   3.939   5.803  12.356  0.5523  0.7385 -1.4307
15189TIP3    H266983   3.811   5.750  12.296 -0.5814  0.3068  1.2371
15190TIP3   OH266984   0.405   6.770   0.427  0.2460  0.3849  0.4573
15190TIP3    H166985   0.387   6.703   0.361  0.5447  0.5079  0.2478
15190TIP3    H266986   0.319   6.805   0.451  0.0456 -0.3793  0.8929
15191TIP3   OH266987   3.715   2.896   1.342  0.4466 -0.2460  0.1911
15191TIP3    H166988   3.705   2.924   1.251 -0.8521  1.1226  0.6957
15191TIP3    H266989   3.807   2.871   1.350  1.2471  2.0039 -0.8944
15192TIP3   OH266990   0.849   2.957  14.230 -0.0653  0.1685 -0.1990
15192TIP3    H166991   0.821   3.029  14.286 -1.3694  0.7667 -1.5134
15192TIP3    H266992   0.767   2.912  14.207  0.8133 -2.6986  1.7379
15193TIP3   OH266993   5.141   4.723  15.894  0.0866 -0.0461  0.7243
15193TIP3    H166994   5.191   4.762  15.965  0.4997  0.6830  0.0555
15193TIP3    H266995   5.208   4.695  15.831 -0.2355 -1.3244  0.9344
15194TIP3   OH266996   3.051   3.696  15.326 -0.4604 -0.4955 -0.0817
15194TIP3    H166997   3.084   3.672  15.413  3.0733 -1.1526 -1.4277
15194TIP3    H266998   3.019   3.614  15.289  0.3165 -0.7136 -0.2780
15195TIP3   OH266999   4.268   6.564  12.360 -0.7741 -0.4543 -0.2213
15195TIP3    H167000   4.191   6.531  12.407 -0.5458  1.3780  1.5723
15195TIP3    H267001   4.340   6.508  12.390 -1.1979 -1.5313 -1.1368
15196TIP3   OH267002   3.574   5.285   0.660  0.8357  0.3413  0.2895
15196TIP3    H167003   3.544   5.235   0.736 -1.2381  0.6193 -0.3034
15196TIP3    H267004   3.571   5.376   0.688 -2.2579  0.6783 -0.7445
15197TIP3   OH267005   3.297   1.458   2.907 -0.5105  0.0814  0.4973
15197TIP3    H167006   3.252   1.380   2.874 -1.8827  0.5101  1.2923
15197TIP3    H267007   3.375   1.466   2.852 -1.0441 -1.0816 -0.4613
15198TIP3   OH267008   4.090   3.978   0.281 -0.4856  0.6072  0.4976
15198TIP3    H167009   4.076   3.896   0.233  2.1320 -0.1448  0.8781
15198TIP3    H267010   4.085   4.046   0.213  2.6053 -0.3934 -0.9528
15199TIP3   OH267011   5.146   6.257   3.336 -0.1437 -0.4851  0.1861
15199TIP3    H167012   5.194   6.326   3.383  1.4555 -0.8532 -0.8181
15199TIP3    H267013   5.159   6.179   3.390  0.3967 -0.5794 -0.0719
15200TIP3   OH267014   1.240   2.342   5.381 -0.4182  0.1584  0.7383
15200TIP3    H167015   1.305   2.272   5.389  0.3029  0.1002 -3.2675
15200TIP3    H267016   1.291   2.423   5.384 -0.4686  0.2241  0.0361
15201TIP3   OH267017   1.168   2.864  14.782  0.2402  0.0954 -0.1377
15201TIP3    H167018   1.163   2.945  14.732  0.4850  0.5624  0.5665
15201TIP3    H267019   1.120   2.883  14.863  1.2169 -0.0934  0.5042
15202TIP3   OH267020   0.646   3.970  16.473 -0.2172  0.1336  0.1348
15202TIP3    H167021   0.564   4.007  16.441 -0.7883 -2.7481 -2.1843
15202TIP3    H267022   0.714   4.029  16.442 -1.2687  1.6103  0.5475
15203TIP3   OH267023   2.684   4.932  14.573  0.4364 -0.0166 -0.0369
15203TIP3    H167024   2.756   4.940  14.635 -0.2746 -1.1815  0.9803
15203TIP3    H267025   2.686   4.840  14.546  0.3971  0.3444 -1.3376
15204TIP3   OH267026   2.919   2.023   0.797 -0.1810 -0.3348  0.2401
15204TIP3    H167027   2.950   1.932   0.797 -2.2246 -1.1425 -2.5620
15204TIP3    H267028   2.841   2.021   0.852  0.5275  0.0850  1.2965
15205TIP3   OH267029   6.543   4.260  15.728 -0.0315  0.6548  0.6586
15205TIP3    H167030   6.626   4.213  15.738  0.3720  0.9911 -0.9129
15205TIP3    H267031   6.569   4.350  15.710 -0.7135  0.6257 -0.5548
15206TIP3   OH267032   0.696   6.760   5.543 -0.1336 -0.3270 -0.5680
15206TIP3    H167033   0.768   6.822   5.530 -0.9355  0.2641 -2.7811
15206TIP3    H267034   0.696   6.707   5.463 -1.1981 -1.3542  0.0791
15207TIP3   OH267035   2.527   6.306  15.270  0.5179 -0.3562  0.0134
15207TIP3    H167036   2.442   6.264  15.255  1.0908 -2.0065  0.9941
15207TIP3    H267037   2.507   6.399  15.280 -1.7035 -0.9881  3.3301
15208TIP3   OH267038   1.571   3.859   3.235  0.5990  0.1726  0.0531
15208TIP3    H167039   1.645   3.915   3.212  0.0556  1.3314  1.0102
15208TIP3    H267040   1.579   3.846   3.329 -0.0414 -0.2456  0.0542
15209TIP3   OH267041   5.059   0.923   0.002 -0.2877  0.4169  0.5907
15209TIP3    H167042   5.148   0.927   0.036 -0.6354 -0.1403  1.6072
15209TIP3    H267043   5.036   1.013  -0.019  1.0632  0.3982 -1.1799
15210TIP3   OH267044   5.473   4.042  15.590 -0.0953 -0.2332 -0.0616
15210TIP3    H167045   5.424   3.977  15.639 -0.3516  1.0401  1.4886
15210TIP3    H267046   5.554   4.053  15.641  0.8794 -0.7981 -1.4317
15211TIP3   OH267047   1.088   5.531  16.168 -0.4604 -1.0039  0.1099
15211TIP3    H167048   1.150   5.544  16.097 -0.5302 -0.3144  0.1640
15211TIP3    H267049   1.141   5.502  16.242 -0.3563 -1.4876 -0.1508
15212TIP3   OH267050   6.665   4.598   5.210 -0.3510  0.2755 -0.0278
15212TIP3    H167051   6.701   4.661   5.148 -1.8492  1.8070  0.5711
15212TIP3    H267052   6.614   4.537   5.157  0.0630  0.3407 -0.4990
15213TIP3   OH267053   4.455   1.935   4.130  0.3550 -0.0435 -0.9026
15213TIP3    H167054   4.470   1.840   4.131  0.5518 -0.0383  1.0889
15213TIP3    H267055   4.543   1.973   4.137  0.1400  0.1700  1.5822
15214TIP3   OH267056   0.794   6.320  12.476 -0.1149 -0.1156  0.2375
15214TIP3    H167057   0.763   6.230  12.484  2.5311 -1.2990 -1.5698
15214TIP3    H267058   0.849   6.320  12.398  0.2978  3.0065  0.3906
15215TIP3   OH267059   1.067   4.702  16.327  0.1680 -0.2133 -0.2866
15215TIP3    H167060   1.161   4.686  16.324  0.2858  0.5513 -1.8289
15215TIP3    H267061   1.055   4.781  16.275 -1.1639  0.6284  1.2251
15216TIP3   OH267062   2.163   5.683   3.086 -0.1027  0.2105  0.2013
15216TIP3    H167063   2.152   5.722   2.999 -2.7217 -0.8985 -0.0647
15216TIP3    H267064   2.195   5.594   3.069 -0.0814  0.1776  0.4041
15217TIP3   OH267065   0.871   4.226  16.922  0.7196  0.2281 -0.4611
15217TIP3    H167066   0.922   4.260  16.995 -2.2834  0.1738  1.8579
15217TIP3    H267067   0.867   4.131  16.937 -0.7904  0.3357 -0.0348
15218TIP3   OH267068   3.771   5.344   0.322 -0.3016  0.2702 -0.3154
15218TIP3    H167069   3.724   5.281   0.267 -0.3187  1.0587 -1.2479
15218TIP3    H267070   3.720   5.425   0.313 -0.2195  0.4591  0.7688
15219TIP3   OH267071   5.884   3.262  16.900  0.0788  0.4154 -0.6485
15219TIP3    H167072   5.860   3.180  16.941  1.1371 -0.4817 -1.7596
15219TIP3    H267073   5.898   3.241  16.808  0.8751  1.7243 -0.8668
15220TIP3   OH267074   4.123   2.605  13.232 -0.0399 -0.0821  0.1849
15220TIP3    H167075   4.117   2.513  13.206 -0.6752 -0.0156  0.0851
15220TIP3    H267076   4.040   2.644  13.203  0.2474  0.5364  0.1679
15221TIP3   OH267077   0.820   6.105   0.610  0.0810 -0.4658  0.1247
15221TIP3    H167078   0.749   6.051   0.574 -1.4114  1.0109  0.7168
15221TIP3    H267079   0.851   6.156   0.536  0.6363 -1.2200 -0.1681
15222TIP3   OH267080   0.871   0.427   1.566 -0.4411 -0.1023  0.1284
15222TIP3    H167081   0.871   0.340   1.606 -0.6545  0.4819  1.4633
15222TIP3    H267082   0.782   0.438   1.532 -1.0810  0.3752  1.8324
15223TIP3   OH267083   3.522   5.170  14.237 -0.0983 -0.2299  0.0532
15223TIP3    H167084   3.451   5.142  14.295  0.5103 -1.0663  0.4135
15223TIP3    H267085   3.578   5.225  14.292 -0.9677  1.2686 -0.4939
15224TIP3   OH267086   3.242   1.481  12.045  0.1857  0.5826  0.4027
15224TIP3    H167087   3.262   1.390  12.023  0.9144  1.0017 -0.7879
15224TIP3    H267088   3.270   1.531  11.968  0.0747  1.8507  1.1509
15225TIP3   OH267089   0.477   1.010   1.048  0.1210  0.0020  0.6729
15225TIP3    H167090   0.420   0.963   0.987  0.9190 -0.2136  0.0598
15225TIP3    H267091   0.427   1.016   1.129 -1.6023  1.6002 -0.4056
15226TIP3   OH267092   2.196   2.339  14.804  0.5814  0.0775 -0.0309
15226TIP3    H167093   2.115   2.361  14.758 -0.2461  0.0988  1.3744
15226TIP3    H267094   2.217   2.418  14.854  0.6630 -0.4290  0.7476
15227TIP3   OH267095   6.632   0.167   2.260 -0.3030  0.1022 -0.0464
15227TIP3    H167096   6.547   0.143   2.222 -0.6485  1.2977 -0.0834
15227TIP3    H267097   6.641   0.260   2.240  1.0872 -0.0390 -0.1518
15228TIP3   OH267098   4.306   1.053   5.350 -1.0254 -0.1065  0.3049
15228TIP3    H167099   4.381   1.111   5.363 -0.9456 -0.4239  1.3200
15228TIP3    H267100   4.264   1.086   5.270  2.1422 -2.0138 -2.3611
15229TIP3   OH267101   4.371   3.905  14.904  0.0819  0.2614 -0.3616
15229TIP3    H167102   4.456   3.860  14.905 -0.0847 -0.0817  1.0099
15229TIP3    H267103   4.390   3.991  14.867  1.1498  0.4080  0.4735
15230TIP3   OH267104   2.909   3.604   5.281 -0.2303 -0.0102  0.5126
15230TIP3    H167105   2.825   3.644   5.257 -0.1929 -0.6453 -0.7407
15230TIP3    H267106   2.975   3.663   5.243 -0.1106  0.1898  1.0208
15231TIP3   OH267107   3.944   6.755  15.874  0.2757 -0.2371  0.0586
15231TIP3    H167108   3.986   6.740  15.790 -0.7615 -0.0274 -0.5073
15231TIP3    H267109   3.988   6.832  15.909  0.2679  0.0693 -0.5926
15232TIP3   OH267110   1.998   6.582   3.181 -0.5236 -0.0378  0.2120
15232TIP3    H167111   1.973   6.491   3.194 -0.5742 -0.1130 -0.4153
15232TIP3    H267112   2.082   6.578   3.135 -0.3535  0.2300  0.4905
15233TIP3   OH267113   3.739   3.873  14.235 -0.1150  0.0463 -0.0759
15233TIP3    H167114   3.653   3.839  14.209 -0.4216  0.7505 -0.0112
15233TIP3    H267115   3.797   3.849  14.163 -0.4756 -0.0053 -0.3543
15234TIP3   OH267116   0.485   4.816   4.449 -0.2657  0.0496  0.1843
15234TIP3    H167117   0.533   4.859   4.520 -0.6372  0.3018  0.2876
15234TIP3    H267118   0.546   4.750   4.415 -0.7098 -1.3210  1.9071
15235TIP3   OH267119   6.182   6.595  12.235  0.0250  0.1294  0.0351
15235TIP3    H167120   6.230   6.571  12.313  2.0391  0.2389 -1.1142
15235TIP3    H267121   6.090   6.586  12.260  0.5575  1.1647  2.7143
15236TIP3   OH267122   6.673   3.097   1.932 -0.8297  0.1803  0.0444
15236TIP3    H167123   6.684   3.162   1.862 -1.4637 -1.1953 -1.3933
15236TIP3    H267124   6.732   3.126   2.001  1.4065  0.5149 -1.8759
15237TIP3   OH267125   3.419   5.871  16.005  0.3488  0.2643 -0.3148
15237TIP3    H167126   3.402   5.915  16.089  1.0964 -0.2940  0.1421
15237TIP3    H267127   3.337   5.825  15.986  0.7843 -1.2361  1.1399
15238TIP3   OH267128   6.080   0.426  13.371  0.2223 -0.5714 -0.2709
15238TIP3    H167129   5.989   0.451  13.361  0.4498  0.5446  0.3491
15238TIP3    H267130   6.093   0.416  13.465  0.2246 -2.8246 -0.4371
15239TIP3   OH267131   1.446   4.156   2.488  0.5563  0.3309 -0.2033
15239TIP3    H167132   1.524   4.108   2.514  0.3000 -0.7127 -1.2487
15239TIP3    H267133   1.476   4.216   2.419  0.6512  0.7950  0.2393
15240TIP3   OH267134   2.549   0.060   0.424 -0.3058 -0.3080 -0.4819
15240TIP3    H167135   2.572  -0.032   0.437 -1.7825 -0.8615 -1.5614
15240TIP3    H267136   2.489   0.079   0.496 -0.2198 -0.2552 -0.4230
15241TIP3   OH267137   4.112   0.168   2.510  0.1369  0.5924 -0.0557
15241TIP3    H167138   4.107   0.131   2.422  2.4894 -0.3345  0.1352
15241TIP3    H267139   4.059   0.248   2.505 -0.7444 -0.0474 -1.9515
15242TIP3   OH267140   5.503   0.905   2.008  0.1974  0.6525 -0.0144
15242TIP3    H167141   5.551   0.912   1.926 -0.1164  0.2215 -0.2403
15242TIP3    H267142   5.554   0.845   2.061  0.0393  0.3892 -0.1596
15243TIP3   OH267143   4.598   1.571   4.859  0.3679  0.3537 -0.3238
15243TIP3    H167144   4.612   1.581   4.765 -2.0535  0.9870 -0.6694
15243TIP3    H267145   4.550   1.489   4.868  1.1979 -0.0694  0.4631
15244TIP3   OH267146   1.870   3.346  15.255 -0.1694  0.3142  0.3766
15244TIP3    H167147   1.868   3.303  15.170 -1.9206 -0.8494  0.9426
15244TIP3    H267148   1.866   3.274  15.318 -0.8016  1.2130  1.4075
15245TIP3   OH267149   0.011   2.602   3.727  0.2323  0.0170  0.0863
15245TIP3    H167150   0.029   2.635   3.815  0.0974  0.6755 -0.1320
15245TIP3    H267151  -0.063   2.654   3.696  0.0105 -0.4939 -0.2619
15246TIP3   OH267152   5.103   1.067   1.518  0.1653 -0.0948 -0.1784
15246TIP3    H167153   5.107   1.070   1.613 -2.0990  2.4097 -0.0427
15246TIP3    H267154   5.175   1.122   1.488  1.1360 -1.2245  0.0362
15247TIP3   OH267155   5.167   6.601   4.257  0.0023  0.1120 -0.1948
15247TIP3    H167156   5.139   6.600   4.166  1.5097  0.9646 -0.6886
15247TIP3    H267157   5.251   6.646   4.257 -0.2147  0.6352  1.6939
15248TIP3   OH267158   2.698   0.418   5.531  0.1615  0.4943 -0.7269
15248TIP3    H167159   2.725   0.377   5.449 -1.8093 -0.4682 -0.9605
15248TIP3    H267160   2.743   0.368   5.599  0.1740 -0.0687 -1.1409
15249TIP3   OH267161   0.317   2.741   0.597 -0.5449  0.2093  0.3623
15249TIP3    H167162   0.328   2.739   0.502  0.1365  1.7183  0.3759
15249TIP3    H267163   0.229   2.708   0.611 -0.7756  0.2502 -0.8274
15250TIP3   OH267164   5.574   5.496   3.244 -0.0732 -0.3031 -0.1597
15250TIP3    H167165   5.662   5.501   3.207  0.5459  1.3673  1.4240
15250TIP3    H267166   5.579   5.427   3.310 -0.0044 -0.3764 -0.2428
15251TIP3   OH267167   4.762   6.311  16.530  0.3905 -0.4136  0.0160
15251TIP3    H167168   4.671   6.281  16.528  0.6615 -1.2100 -1.4437
15251TIP3    H267169   4.799   6.269  16.608  0.0439 -1.7730 -0.5230
15252TIP3   OH267170   3.059   3.481  16.941 -0.3671 -0.1067 -0.1324
15252TIP3    H167171   3.079   3.388  16.946  0.5598 -0.0176 -1.5795
15252TIP3    H267172   3.038   3.496  16.849  1.9472  1.5295 -0.4931
15253TIP3   OH267173   4.494   3.974  17.152  0.0809  0.0921 -0.6879
15253TIP3    H167174   4.530   3.957  17.239 -0.9305 -1.6815 -0.5591
15253TIP3    H267175   4.549   3.923  17.092 -2.1382 -2.8733 -0.4585
15254TIP3   OH267176   2.271   0.422  12.952 -0.5427  0.0417 -0.2055
15254TIP3    H167177   2.206   0.397  13.017  1.4272 -0.0258  1.8654
15254TIP3    H267178   2.272   0.517  12.954 -0.6075  0.0440 -0.2744
15255TIP3   OH267179   1.371   3.732  14.263 -0.2045  0.5581  0.0575
15255TIP3    H167180   1.364   3.710  14.170  2.5419  1.3471 -0.4000
15255TIP3    H267181   1.429   3.665  14.300  0.6443  1.5927  0.6661
15256TIP3   OH267182   3.350   0.487  14.014 -0.0452 -0.2864  0.2969
15256TIP3    H167183   3.350   0.520  14.103  1.9181 -1.0848  0.6517
15256TIP3    H267184   3.272   0.432  14.008 -0.2314 -0.1616  1.5068
15257TIP3   OH267185   2.132   1.338  14.533  0.1917 -0.0706  0.2505
15257TIP3    H167186   2.087   1.320  14.616  0.5972 -0.6836  0.3505
15257TIP3    H267187   2.222   1.310  14.549 -0.0209 -1.4585 -0.8141
15258TIP3   OH267188   1.289   5.176  13.944  0.1251 -0.3348 -0.5913
15258TIP3    H167189   1.382   5.177  13.922  0.1030 -0.4587 -0.6911
15258TIP3    H267190   1.287   5.158  14.038  0.2443  0.8432 -0.3468
15259TIP3   OH267191   4.168   5.304   0.751  0.4100  0.3689  0.1291
15259TIP3    H167192   4.117   5.335   0.825 -0.4026  0.1314 -0.3194
15259TIP3    H267193   4.141   5.213   0.738  1.0507  0.1907 -0.0309
15260TIP3   OH267194   6.511   5.931  14.555  0.4849  0.1372 -0.7642
15260TIP3    H167195   6.430   5.899  14.595  0.4532  0.5227 -0.5214
15260TIP3    H267196   6.528   6.015  14.597  0.6243  0.4014 -1.3301
15261TIP3   OH267197   6.438   2.745   5.533  0.2643  0.3376  0.4636
15261TIP3    H167198   6.487   2.666   5.559  0.3566  0.2914  0.1572
15261TIP3    H267199   6.471   2.813   5.591  1.2973  0.4954 -0.2713
15262TIP3   OH267200   4.403   5.682  16.873  0.8959  0.4220  0.5365
15262TIP3    H167201   4.318   5.641  16.886  1.4577 -1.3611 -0.9752
15262TIP3    H267202   4.443   5.681  16.960  0.1869 -0.6780  0.8743
15263TIP3   OH267203   0.585   5.668  15.605 -0.3462  0.4370 -0.1962
15263TIP3    H167204   0.642   5.727  15.557  0.5355 -0.2290  0.0104
15263TIP3    H267205   0.637   5.638  15.679 -1.5121  1.0648  0.9287
15264TIP3   OH267206   2.478   5.803  16.349  0.5164 -0.1770  0.1449
15264TIP3    H167207   2.434   5.818  16.266 -0.6309 -0.3786  0.7046
15264TIP3    H267208   2.572   5.810  16.328  0.2189  1.9147 -0.7525
15265TIP3   OH267209   4.793   4.530   4.053 -0.0920 -0.7911  0.2659
15265TIP3    H167210   4.819   4.568   3.969 -0.6083 -0.8446  0.0810
15265TIP3    H267211   4.717   4.581   4.080 -0.3757 -1.2508  0.3440
15266TIP3   OH267212   5.509   1.833  15.023 -0.0453  0.0074  0.4361
15266TIP3    H167213   5.559   1.772  15.079  1.8885 -0.0552 -1.2464
15266TIP3    H267214   5.485   1.781  14.947 -0.5165  0.7353  0.0825
15267TIP3   OH267215   0.510   2.587  16.009  0.4363  0.1909  0.6907
15267TIP3    H167216   0.550   2.595  15.923  1.4426  0.4448  1.1649
15267TIP3    H267217   0.581   2.556  16.066  0.1705  1.3788  1.7116
15268TIP3   OH267218   4.974   4.580   5.046  0.2688 -0.3441  0.1543
15268TIP3    H167219   5.015   4.660   5.013 -1.0106  0.2577 -0.0121
15268TIP3    H267220   4.902   4.564   4.986 -1.3769  0.1155  1.9278
15269TIP3   OH267221   1.673   3.318  12.344 -0.5632 -0.5083 -0.4533
15269TIP3    H167222   1.726   3.351  12.417 -1.8903  0.4821  0.0888
15269TIP3    H267223   1.721   3.240  12.314  1.1849  0.3325  0.0100
15270TIP3   OH267224   5.649   6.443   2.564  0.3318 -0.1587 -0.1530
15270TIP3    H167225   5.619   6.509   2.626 -2.0940 -1.5346  0.2635
15270TIP3    H267226   5.671   6.367   2.619 -0.2208 -0.8256 -0.8356
15271TIP3   OH267227   6.362   4.974  11.415  0.2824 -0.2800 -0.2588
15271TIP3    H167228   6.370   5.069  11.423 -1.0261 -0.1417 -0.3977
15271TIP3    H267229   6.299   4.961  11.344 -1.1142 -1.2116  1.0961
15272TIP3   OH267230   2.377   5.530   1.109 -0.2268 -0.1102  0.4990
15272TIP3    H167231   2.359   5.603   1.049  0.7108 -1.4942 -1.5735
15272TIP3    H267232   2.293   5.484   1.116 -0.1991 -0.2944 -0.2845
15273TIP3   OH267233   3.980   2.039   5.503 -0.3506 -0.4260  0.2605
15273TIP3    H167234   4.005   2.000   5.587 -2.6894 -1.5600  0.5047
15273TIP3    H267235   4.026   2.123   5.501 -1.6548  0.5362  3.6176
15274TIP3   OH267236   1.031   4.777   0.650  0.4911 -0.1437 -0.3746
15274TIP3    H167237   1.070   4.732   0.576  0.5059 -2.4115  0.9309
15274TIP3    H267238   1.105   4.793   0.710  0.2548  0.4277 -0.2244
15275TIP3   OH267239   1.629   3.563   5.729  0.3877  0.1668  0.0066
15275TIP3    H167240   1.711   3.521   5.705  0.3392  0.4702 -0.6984
15275TIP3    H267241   1.585   3.499   5.786 -0.2130 -1.2660 -1.9608
15276TIP3   OH267242   0.645   4.788  12.198  0.0846  0.1590  0.2088
15276TIP3    H167243   0.624   4.715  12.256 -0.4636  0.7768  0.8103
15276TIP3    H267244   0.601   4.767  12.115  0.8868 -0.7373  0.0053
15277TIP3   OH267245   3.834   3.021  14.025  0.5012 -0.3344  0.5485
15277TIP3    H167246   3.901   3.001  13.960  1.0494  0.5746  0.8182
15277TIP3    H267247   3.779   3.087  13.983  1.3126  0.8360  1.2590
15278TIP3   OH267248   6.108   1.325   3.192 -0.7321  0.1632 -0.6309
15278TIP3    H167249   6.113   1.400   3.132 -1.3866  0.7581  0.0500
15278TIP3    H267250   6.094   1.364   3.278 -0.0673 -0.7044 -0.1179
15279TIP3   OH267251   1.245   2.799  13.179  0.4056 -0.1073 -0.2774
15279TIP3    H167252   1.226   2.893  13.181 -0.3912 -0.2648  1.4346
15279TIP3    H267253   1.320   2.788  13.237  0.2462 -0.5878 -0.1564
15280TIP3   OH267254   1.710   3.623   3.119 -0.7928  0.9235 -0.9411
15280TIP3    H167255   1.683   3.706   3.156 -2.1260  0.1384 -0.0736
15280TIP3    H267256   1.641   3.600   3.057 -0.8538  0.0946 -0.5849
15281TIP3   OH267257   4.749   1.791  15.379 -0.1231  0.9325  0.0494
15281TIP3    H167258   4.834   1.747  15.370  0.5842  1.9867  1.2687
15281TIP3    H267259   4.689   1.721  15.405  0.3571  0.1713 -0.8441
15282TIP3   OH267260   1.204   0.875   6.141  0.0754 -0.0103 -0.1377
15282TIP3    H167261   1.203   0.809   6.211 -2.3024 -0.2240 -0.2957
15282TIP3    H267262   1.251   0.949   6.179 -1.0739 -0.1508  1.7009
15283TIP3   OH267263   5.213   2.293   6.477  0.6731  0.9439  0.3048
15283TIP3    H167264   5.188   2.269   6.566  0.5222 -0.8779 -0.1862
15283TIP3    H267265   5.139   2.264   6.423  0.6910  2.1690 -0.4065
15284TIP3   OH267266   4.251   3.168  15.855 -0.2507  0.2393  0.1930
15284TIP3    H167267   4.244   3.213  15.771 -1.3572 -0.2749 -0.0020
15284TIP3    H267268   4.277   3.236  15.917  0.6716  0.6028 -0.5693
15285TIP3   OH267269   5.000   2.921   3.068  0.1211  0.3376  0.3654
15285TIP3    H167270   4.974   2.998   3.018  0.6303  0.2193 -0.0929
15285TIP3    H267271   5.036   2.861   3.003 -0.7629 -0.5234  0.6283
15286TIP3   OH267272   0.639   2.042  12.079 -0.3832  0.0459 -0.8210
15286TIP3    H167273   0.619   2.064  11.988  0.0477 -2.2574 -1.5343
15286TIP3    H267274   0.702   2.109  12.106  0.1610  0.2741 -2.5109
15287TIP3   OH267275   3.262   3.543   2.674  0.0573  0.8738 -0.1914
15287TIP3    H167276   3.292   3.566   2.762  1.4737 -0.1114 -0.3954
15287TIP3    H267277   3.205   3.616   2.649  0.2696  1.5622  1.2114
15288TIP3   OH267278   0.336   1.054   2.979 -0.0744  0.5618 -0.7792
15288TIP3    H167279   0.246   1.080   2.998  0.3774  0.0148  2.8528
15288TIP3    H267280   0.335   0.959   2.984  0.5588  0.4981 -1.6877
15289TIP3   OH267281   6.086   1.839   3.333 -0.0873 -0.0544  0.2696
15289TIP3    H167282   6.129   1.890   3.264 -2.7336 -1.1884 -2.3881
15289TIP3    H267283   6.150   1.771   3.355  0.5406 -0.1598 -1.6726
15290TIP3   OH267284   4.613   6.432   2.955 -0.0371  0.1230 -0.0058
15290TIP3    H167285   4.599   6.474   2.870  1.6545  1.0784  0.1571
15290TIP3    H267286   4.626   6.340   2.934  0.0248  0.2911 -0.7477
15291TIP3   OH267287   1.279   5.305  16.674  0.0541  0.0763 -0.0016
15291TIP3    H167288   1.255   5.394  16.648  0.2836 -0.3225 -1.6640
15291TIP3    H267289   1.360   5.316  16.724 -0.4861  0.8853  0.7241
15292TIP3   OH267290   2.474   3.917  11.034 -0.8411 -0.1305 -0.3459
15292TIP3    H167291   2.466   3.967  10.952  0.8981  0.5455 -0.1420
15292TIP3    H267292   2.530   3.843  11.011  2.8222  1.9961  0.9340
15293TIP3   OH267293   5.818   5.224   4.242 -0.4551 -0.4264 -0.2068
15293TIP3    H167294   5.724   5.207   4.240 -0.2857 -1.3852 -0.3959
15293TIP3    H267295   5.827   5.311   4.202 -1.5042  0.9381  2.2965
15294TIP3   OH267296   6.747   1.344   0.602 -0.9142 -0.0199 -0.1179
15294TIP3    H167297   6.674   1.287   0.625 -0.0630 -0.3444  1.9934
15294TIP3    H267298   6.711   1.432   0.606 -2.2574 -0.2484 -3.4642
15295TIP3   OH267299   1.732   4.881   5.813 -0.2804  0.3663 -0.4551
15295TIP3    H167300   1.795   4.949   5.786 -0.1667  0.1426 -0.7590
15295TIP3    H267301   1.703   4.842   5.731 -0.0725 -0.1978 -0.2594
15296TIP3   OH267302   6.762   4.286   1.201  0.0724 -0.0740 -0.0259
15296TIP3    H167303   6.795   4.263   1.115  0.6248  3.1660 -0.7920
15296TIP3    H267304   6.795   4.217   1.259  1.0728 -1.4237 -2.1097
15297TIP3   OH267305   5.984   4.287  15.708 -0.1221 -0.5406  0.0219
15297TIP3    H167306   6.023   4.232  15.776  0.4152 -1.0465 -0.6834
15297TIP3    H267307   5.993   4.236  15.628  0.1819  0.4737 -0.6046
15298TIP3   OH267308   6.015   0.053  14.458  0.4547  0.3851 -0.5082
15298TIP3    H167309   6.001   0.018  14.546 -1.2919 -1.1702 -1.3487
15298TIP3    H267310   5.927   0.070  14.424  1.0292 -0.1120 -2.3524
15299TIP3   OH267311   3.633   0.140  12.345 -0.2887 -0.0646 -0.0253
15299TIP3    H167312   3.567   0.085  12.386  0.7484 -1.2401  0.1188
15299TIP3    H267313   3.631   0.114  12.253 -0.2648  0.1414 -0.0832
15300TIP3   OH267314   6.257   3.291  11.675  0.3534  0.2328 -0.2450
15300TIP3    H167315   6.220   3.292  11.586  1.2616  1.3304 -0.6457
15300TIP3    H267316   6.181   3.297  11.733 -0.1897  0.7189 -0.9877
15301TIP3   OH267317   6.319   5.204   0.234 -0.1025  0.0371 -0.1525
15301TIP3    H167318   6.334   5.226   0.325  0.9408  0.0161 -0.3088
15301TIP3    H267319   6.337   5.285   0.186 -0.2786 -0.0506 -0.3725
15302TIP3   OH267320   0.948   0.443  14.106  0.4783 -0.0969 -0.2238
15302TIP3    H167321   0.892   0.381  14.060  0.0698 -0.4507  0.7290
15302TIP3    H267322   0.982   0.394  14.182  3.3234 -0.3941 -1.5614
15303TIP3   OH267323   1.464   2.068   0.665 -0.3140  0.3503  0.2657
15303TIP3    H167324   1.515   2.095   0.742  0.2109  0.4327 -0.0986
15303TIP3    H267325   1.462   1.973   0.670 -0.4994  0.3670  0.5176
15304TIP3   OH267326   6.130   4.161   3.116 -0.4620 -0.3885 -0.4836
15304TIP3    H167327   6.210   4.212   3.116 -0.6597 -0.0735 -0.3826
15304TIP3    H267328   6.067   4.216   3.163 -0.6990 -0.6879 -0.4503
15305TIP3   OH267329   2.044   6.477  17.233 -0.3985 -0.0229 -0.1430
15305TIP3    H167330   2.109   6.496  17.301 -1.5766  1.8631  0.5482
15305TIP3    H267331   1.984   6.415  17.273 -0.7830  0.6696  0.3898
15306TIP3   OH267332   1.706   1.963   6.088  0.0062  0.0641 -1.2932
15306TIP3    H167333   1.732   1.887   6.036 -2.9008 -0.0736 -2.7351
15306TIP3    H267334   1.672   1.926   6.169  1.4043  0.0805 -0.6655
15307TIP3   OH267335   1.576   4.680  12.704  0.3451 -0.2275 -0.1780
15307TIP3    H167336   1.562   4.598  12.751 -2.6794 -0.6949 -1.6633
15307TIP3    H267337   1.495   4.729  12.717  0.8485  1.1650 -1.9320
15308TIP3   OH267338   3.216   0.352  14.671 -0.0986  0.4615 -0.1240
15308TIP3    H167339   3.234   0.398  14.589  0.0869  0.5913 -0.0115
15308TIP3    H267340   3.241   0.261  14.654  1.7204  0.8138  0.3474
15309TIP3   OH267341   0.924   6.309   3.434 -0.0357  0.3042  0.1377
15309TIP3    H167342   0.834   6.340   3.418  0.2838  0.2011 -2.2936
15309TIP3    H267343   0.940   6.247   3.363  2.2230  0.8941  0.0686
15310TIP3   OH267344   2.775   1.038  12.060  0.4866 -0.2459  0.2887
15310TIP3    H167345   2.797   1.051  11.968 -0.8829  0.4381  0.0249
15310TIP3    H267346   2.755   1.126  12.092 -1.0140 -0.6999  0.6865
15311TIP3   OH267347   1.569   1.681   0.764 -0.0615  0.0710 -0.3271
15311TIP3    H167348   1.587   1.670   0.671  1.2757  3.7661 -0.6826
15311TIP3    H267349   1.653   1.704   0.803 -0.5033 -1.7525  1.9424
15312TIP3   OH267350   5.288   6.386   5.373 -0.2820 -0.1300  0.0700
15312TIP3    H167351   5.325   6.435   5.300 -0.6633 -1.8498 -1.3349
15312TIP3    H267352   5.347   6.404   5.446  0.7272  0.7707 -0.9355
15313TIP3   OH267353   4.254   3.971   1.248  0.2341  0.5598 -0.4649
15313TIP3    H167354   4.274   4.011   1.163  0.6356  0.5938 -0.3563
15313TIP3    H267355   4.337   3.974   1.296 -0.3541  2.0251  0.5287
15314TIP3   OH267356   2.117   3.737  13.210  0.6799  0.5669 -0.8387
15314TIP3    H167357   2.066   3.710  13.287 -0.2903 -0.1253 -1.6888
15314TIP3    H267358   2.203   3.697  13.222 -0.1697 -1.5027 -1.1988
15315TIP3   OH267359   0.153   1.502  14.933  0.0979 -0.3181  0.2379
15315TIP3    H167360   0.113   1.434  14.988 -0.6246  0.4850  0.7165
15315TIP3    H267361   0.204   1.555  14.994  0.7253 -0.4585 -0.1522
15316TIP3   OH267362   6.283   0.811  15.898  0.0033  0.3592  0.0225
15316TIP3    H167363   6.298   0.743  15.964 -1.3427 -0.3636 -0.3704
15316TIP3    H267364   6.269   0.891  15.949 -0.2408 -0.0364  0.5899
15317TIP3   OH267365   3.619   2.136   4.743 -0.9433  0.0874 -0.0630
15317TIP3    H167366   3.607   2.130   4.838  0.5790  0.3095  0.1610
15317TIP3    H267367   3.641   2.227   4.727  1.7349 -0.5163 -0.2290
15318TIP3   OH267368   1.130   6.271  14.217 -0.2574  0.3546 -0.6764
15318TIP3    H167369   1.072   6.277  14.141 -0.7157 -0.8355 -0.4266
15318TIP3    H267370   1.196   6.206  14.192  0.4791  1.0573 -0.6170
15319TIP3   OH267371   2.870   1.366  15.432 -0.5872 -1.0294 -0.1093
15319TIP3    H167372   2.802   1.322  15.382 -1.2874  0.3460 -0.4308
15319TIP3    H267373   2.944   1.374  15.371 -1.7577  1.4795 -1.3666
15320TIP3   OH267374   1.627   2.778  13.665 -0.5084  0.3954 -0.2005
15320TIP3    H167375   1.612   2.686  13.687  0.0656  0.4316  0.3960
15320TIP3    H267376   1.590   2.789  13.578 -1.9305 -0.0287  0.3309
15321TIP3   OH267377   1.958   5.853  14.859 -0.3672 -0.2542  0.1737
15321TIP3    H167378   1.901   5.811  14.923  0.6069 -0.8895  0.6496
15321TIP3    H267379   1.982   5.937  14.898 -0.2104 -0.4039  0.3979
15322TIP3   OH267380   1.849   5.490   3.758  0.4072 -0.6549 -0.2500
15322TIP3    H167381   1.786   5.434   3.803 -0.0179 -0.9441 -1.1730
15322TIP3    H267382   1.881   5.549   3.825  0.2424 -1.4662  0.5569
15323TIP3   OH267383   4.326   2.472   3.812 -0.1724 -0.0138  0.1238
15323TIP3    H167384   4.327   2.563   3.843  1.8957  0.2817 -0.6423
15323TIP3    H267385   4.395   2.430   3.863  0.1845 -0.6701 -0.8931
15324TIP3   OH267386   3.710   5.136   0.173  0.1372 -0.0198  0.3794
15324TIP3    H167387   3.638   5.083   0.207 -0.2267  0.0594 -0.2570
15324TIP3    H267388   3.769   5.073   0.132 -1.7335  0.2164 -3.0574
15325TIP3   OH267389   3.569   1.656   2.345  0.3601  0.2196  0.3170
15325TIP3    H167390   3.608   1.720   2.404  0.2698 -0.9013  1.6491
15325TIP3    H267391   3.522   1.595   2.403 -0.9738 -0.0999 -1.0131
15326TIP3   OH267392   4.938   3.641   6.276  0.5981 -0.4179  0.3466
15326TIP3    H167393   4.886   3.686   6.209  2.2358  2.0150  0.5889
15326TIP3    H267394   4.929   3.695   6.354  2.0887 -0.8861  0.8737
15327TIP3   OH267395   4.466   5.718  11.532 -0.0633 -0.1626  0.3269
15327TIP3    H167396   4.536   5.670  11.577 -0.2920 -0.6931  0.1241
15327TIP3    H267397   4.415   5.758  11.603  1.3106  1.5079  0.4433
15328TIP3   OH267398   1.178   6.157   2.832 -0.1863 -0.2027  0.3980
15328TIP3    H167399   1.175   6.120   2.744 -1.2036  0.3043  0.2044
15328TIP3    H267400   1.180   6.251   2.819  1.8388 -0.1283  0.9057
15329TIP3   OH267401   3.464   1.521   4.231  0.4022 -0.1284  0.0805
15329TIP3    H167402   3.522   1.470   4.287 -0.1451 -0.6879  0.1477
15329TIP3    H267403   3.516   1.539   4.153  1.0505  0.3595  0.6140
15330TIP3   OH267404   6.327   4.927  13.794  0.1173 -0.0876  0.3279
15330TIP3    H167405   6.403   4.895  13.843 -0.6133 -1.3828  0.6823
15330TIP3    H267406   6.267   4.958  13.861  0.0314  0.2422  0.0995
15331TIP3   OH267407   3.151   2.924  13.484  0.4774 -0.5038 -0.2942
15331TIP3    H167408   3.114   3.012  13.488  1.6846  0.0170 -0.0365
15331TIP3    H267409   3.085   2.872  13.438 -1.1014  0.0619  1.2323
15332TIP3   OH267410   5.641   6.609   1.882 -0.4817 -0.1439  0.0452
15332TIP3    H167411   5.647   6.694   1.839  0.6400 -0.1573  0.1613
15332TIP3    H267412   5.713   6.608   1.945 -1.4063 -0.5715  1.1556
15333TIP3   OH267413   4.965   0.004  12.018  0.4322 -0.2371 -0.6682
15333TIP3    H167414   5.057  -0.017  12.036  0.3014 -0.4548 -0.2401
15333TIP3    H267415   4.934  -0.069  11.964  0.6615  0.1185 -1.2920
15334TIP3   OH267416   2.897   5.453   1.062 -0.0118 -0.7202  0.2504
15334TIP3    H167417   2.907   5.511   1.138 -0.3414 -0.0608 -0.2020
15334TIP3    H267418   2.806   5.465   1.034  0.2485 -0.5843 -0.5538
15335TIP3   OH267419   6.639   4.468   3.888 -0.1557  0.3754  0.4752
15335TIP3    H167420   6.604   4.462   3.799 -0.7723 -1.4521  0.8126
15335TIP3    H267421   6.623   4.559   3.914 -0.2359  0.8539 -1.1643
15336TIP3   OH267422   1.214   5.351  12.871  0.3590  0.0002 -0.2681
15336TIP3    H167423   1.236   5.356  12.777  2.1227 -1.4115 -0.0004
15336TIP3    H267424   1.120   5.336  12.873  0.4180 -0.8122 -1.8691
15337TIP3   OH267425   6.670   3.858   4.187  0.0965 -0.4205 -0.3808
15337TIP3    H167426   6.745   3.807   4.216  1.5978  1.9861  0.2093
15337TIP3    H267427   6.624   3.881   4.267  0.6909  0.9566 -0.4078
15338TIP3   OH267428   1.781   3.923  16.563  0.1274  0.0448 -0.5181
15338TIP3    H167429   1.846   3.861  16.531 -0.9037 -2.0629  1.1827
15338TIP3    H267430   1.822   3.964  16.639 -0.0887 -0.4498 -0.1276
15339TIP3   OH267431   2.558   4.875   0.276  0.2109 -0.0402  0.1789
15339TIP3    H167432   2.464   4.892   0.290  0.3898  0.1470  1.3006
15339TIP3    H267433   2.598   4.894   0.361  1.1387 -1.0625 -0.0116
15340TIP3   OH267434   2.762   2.667  15.201 -0.5420  0.1126  0.1910
15340TIP3    H167435   2.817   2.724  15.255 -0.0292 -0.4857  0.3131
15340TIP3    H267436   2.808   2.583  15.201 -1.4249 -0.3830  0.2441
15341TIP3   OH267437   0.386   2.286  13.945 -0.3674 -0.5085  0.2531
15341TIP3    H167438   0.473   2.298  13.907 -1.2979  1.2081 -1.5258
15341TIP3    H267439   0.342   2.226  13.884 -1.0487  0.2020  0.0334
15342TIP3   OH267440   2.230   6.742  16.811 -0.1051 -0.0083 -0.2974
15342TIP3    H167441   2.273   6.820  16.846  1.0392  0.1823 -2.0251
15342TIP3    H267442   2.301   6.679  16.799 -0.5405 -0.2533 -1.7175
15343TIP3   OH267443   3.875   4.704   3.804 -0.4375 -0.5095  0.0479
15343TIP3    H167444   3.842   4.689   3.715 -0.1075 -0.0346 -0.1634
15343TIP3    H267445   3.936   4.633   3.820 -1.4519 -1.3291  0.3953
15344TIP3   OH267446   4.210   4.895  15.760 -0.4707  0.4546  0.3007
15344TIP3    H167447   4.143   4.948  15.802 -0.4513  1.6666 -1.1118
15344TIP3    H267448   4.203   4.917  15.667  0.7264 -0.7040 -0.0970
15345TIP3   OH267449   1.944   3.693   3.828  0.0128 -0.1145  0.0020
15345TIP3    H167450   1.905   3.729   3.907  1.4060  1.0284  0.2043
15345TIP3    H267451   2.020   3.643   3.860  0.2470 -0.1266 -0.5651
15346TIP3   OH267452   4.195   4.686   6.641 -0.0362 -0.1552  0.4308
15346TIP3    H167453   4.190   4.689   6.737  1.1623 -0.5493  0.5149
15346TIP3    H267454   4.267   4.626   6.622 -0.7326 -0.6688 -0.7389
15347TIP3   OH267455   5.704   4.298  13.542 -0.5359 -0.0612  0.0201
15347TIP3    H167456   5.660   4.303  13.457 -0.9597  1.7852  0.2920
15347TIP3    H267457   5.633   4.308  13.606  0.0748  1.4641  0.4974
15348TIP3   OH267458   0.563   2.612  17.175  0.0714  0.1598 -0.2489
15348TIP3    H167459   0.652   2.629  17.204 -0.0034 -1.1287  0.8298
15348TIP3    H267460   0.573   2.568  17.090  0.4019  1.0376 -0.6773
15349TIP3   OH267461   3.516   4.597   6.542  0.4291  0.2326  0.4028
15349TIP3    H167462   3.580   4.627   6.607  0.5651 -0.2873  0.5144
15349TIP3    H267463   3.513   4.502   6.553  0.2071  0.1727 -0.1304
15350TIP3   OH267464   6.630   3.303  12.576 -0.4460 -0.0130 -0.0149
15350TIP3    H167465   6.662   3.212  12.572  0.6985  0.3588  0.4407
15350TIP3    H267466   6.634   3.333  12.485 -0.8525 -0.4225 -0.1735
15351TIP3   OH267467   1.228   3.706  15.977  0.5656  0.7214  0.5138
15351TIP3    H167468   1.231   3.618  16.015  0.3145 -0.6827 -2.4813
15351TIP3    H267469   1.150   3.706  15.922  2.1210  1.7344 -1.8523
15352TIP3   OH267470   4.611   1.127  14.703  0.7547  0.4911 -0.4002
15352TIP3    H167471   4.677   1.072  14.661  0.3003  0.9130 -1.7501
15352TIP3    H267472   4.529   1.078  14.695  0.6966  0.4786  0.2193
15353TIP3   OH267473   1.656   1.742  14.112  0.0071 -0.3582  0.3265
15353TIP3    H167474   1.670   1.648  14.123  1.0581 -0.0958  1.5352
15353TIP3    H267475   1.743   1.777  14.090 -0.1227  0.4541  1.0059
15354TIP3   OH267476   1.129   5.867   1.947 -0.0890 -0.2292  0.4094
15354TIP3    H167477   1.070   5.914   2.006 -0.2826 -0.3997  0.3523
15354TIP3    H267478   1.115   5.774   1.967  0.0273 -0.2774  0.2725
15355TIP3   OH267479   6.111   5.691   0.199 -0.0767 -0.2411 -0.2304
15355TIP3    H167480   6.067   5.763   0.154 -1.3834 -1.4724 -0.9927
15355TIP3    H267481   6.045   5.657   0.260  0.4931 -0.8634  0.0462
15356TIP3   OH267482   5.985   6.589  11.851  0.1672 -0.2684 -0.6862
15356TIP3    H167483   5.972   6.684  11.853  0.8935 -0.1533 -1.2217
15356TIP3    H267484   6.021   6.568  11.937 -1.9710 -0.3797  0.2513
15357TIP3   OH267485   0.395   5.337  14.941 -0.2750 -0.1123  0.2239
15357TIP3    H167486   0.376   5.381  14.858  0.3743  0.2669  0.2679
15357TIP3    H267487   0.474   5.287  14.924  0.6193  0.9965  0.9611
15358TIP3   OH267488   5.415   6.001  15.198  0.0701  0.3307  0.0948
15358TIP3    H167489   5.415   6.088  15.237 -0.1255  0.5603 -0.4095
15358TIP3    H267490   5.452   5.944  15.265  1.4357  1.0186 -0.0556
15359TIP3   OH267491   5.377   3.197   2.067 -0.8480  0.1144 -0.0203
15359TIP3    H167492   5.333   3.149   2.137  0.4240 -0.0536  0.7104
15359TIP3    H267493   5.389   3.132   1.997 -0.5989 -0.2059  0.3096
15360TIP3   OH267494   5.742   6.590  13.286  0.5126  0.2181  0.0976
15360TIP3    H167495   5.694   6.508  13.275 -0.4216  0.8990 -1.1374
15360TIP3    H267496   5.711   6.646  13.215  3.0108  0.7789 -0.6432
15361TIP3   OH267497   0.555   4.572  12.374 -0.3873  0.1515 -0.0234
15361TIP3    H167498   0.576   4.483  12.345 -0.8887  0.2039 -0.5644
15361TIP3    H267499   0.464   4.568  12.401 -1.1740  1.0226 -2.3075
15362TIP3   OH267500   4.412   1.565  12.413  0.0875 -0.3616  0.0612
15362TIP3    H167501   4.365   1.625  12.355  0.2420  0.9187  1.2124
15362TIP3    H267502   4.379   1.478  12.390 -0.0777  0.1401 -1.7181
15363TIP3   OH267503   0.524   1.745   1.217 -0.4657 -0.5864 -0.2794
15363TIP3    H167504   0.533   1.695   1.298 -0.9362  0.4621  0.4453
15363TIP3    H267505   0.594   1.810   1.221 -0.8437 -0.1633 -0.4289
15364TIP3   OH267506   3.622   6.005  16.863 -0.0336 -0.1488 -0.3575
15364TIP3    H167507   3.669   5.936  16.910 -0.7129 -0.5010 -0.1819
15364TIP3    H267508   3.575   5.959  16.794 -1.4385 -0.0414  0.4922
15365TIP3   OH267509   0.589   2.242   5.536  0.5443 -0.0871 -0.3888
15365TIP3    H167510   0.551   2.277   5.617  0.1697 -0.7037 -0.2912
15365TIP3    H267511   0.668   2.295   5.522  0.2283  0.4942 -0.0093
15366TIP3   OH267512   2.458   4.972  17.181  0.0704  0.1480  0.5770
15366TIP3    H167513   2.390   5.032  17.212 -1.9790 -1.9288  0.3555
15366TIP3    H267514   2.469   4.993  17.088  0.1472  0.8354  0.7339
15367TIP3   OH267515   0.966   1.167  12.333  0.4780 -0.6970  0.3587
15367TIP3    H167516   0.985   1.093  12.275 -3.0250 -0.4746 -1.3434
15367TIP3    H267517   0.939   1.127  12.415 -2.3512 -1.5285 -0.8540
15368TIP3   OH267518   0.556   2.300   3.533  0.1762  0.8208 -0.1599
15368TIP3    H167519   0.498   2.347   3.474  0.6483  1.4176 -0.1538
15368TIP3    H267520   0.586   2.366   3.595  0.8090  0.5059 -0.1261
15369TIP3   OH267521   6.528   2.430   5.955  0.2256  0.0078 -0.4450
15369TIP3    H167522   6.617   2.404   5.977 -0.3061 -0.1831  1.6739
15369TIP3    H267523   6.492   2.356   5.907  0.5554 -0.8130  0.5448
15370TIP3   OH267524   3.902   6.491  15.245 -0.0864 -0.0257  0.2830
15370TIP3    H167525   3.917   6.479  15.339  0.7217 -0.9353  0.0508
15370TIP3    H267526   3.807   6.495  15.236 -0.2258 -1.2544  1.0048
15371TIP3   OH267527   2.075   2.227   3.997 -0.4275 -0.2398  0.6093
15371TIP3    H167528   2.069   2.259   4.087  0.8703 -0.5075  0.8048
15371TIP3    H267529   2.119   2.142   4.004 -1.2510 -0.7502 -0.1827
15372TIP3   OH267530   5.464   0.715  12.664 -0.1075 -0.6013  0.2892
15372TIP3    H167531   5.514   0.650  12.615  1.1698  0.2111  0.4509
15372TIP3    H267532   5.473   0.689  12.755 -0.4378 -0.7585  0.2762
15373TIP3   OH267533   5.586   6.638   2.762 -0.4317 -0.2740  0.5154
15373TIP3    H167534   5.681   6.649   2.753 -0.4831 -0.6883 -0.8464
15373TIP3    H267535   5.567   6.666   2.851  1.1539 -1.3669  1.2612
15374TIP3   OH267536   3.352   5.905   6.218  0.3262 -0.6856  0.4390
15374TIP3    H167537   3.355   5.901   6.313 -1.7788  1.4868  0.6844
15374TIP3    H267538   3.284   5.842   6.193 -0.0243 -0.3220  0.4768
15375TIP3   OH267539   6.135   5.595   5.892  0.1906 -0.3497  0.2643
15375TIP3    H167540   6.180   5.608   5.975  0.4332 -2.6298  0.5514
15375TIP3    H267541   6.103   5.505   5.896 -0.8022 -0.1325 -1.6535
15376TIP3   OH267542   4.327   5.157   4.482 -0.5943 -0.1033 -0.3115
15376TIP3    H167543   4.290   5.167   4.570 -0.0041  0.4069 -0.1162
15376TIP3    H267544   4.319   5.064   4.463  1.6750 -0.7387  1.3780
15377TIP3   OH267545   4.418   5.151   3.052  0.6183  0.0666  0.3252
15377TIP3    H167546   4.337   5.113   3.017  0.3631  1.0677 -0.2115
15377TIP3    H267547   4.412   5.139   3.146 -0.7540  1.2366  0.4141
15378TIP3   OH267548   1.664   0.819  15.211  0.0736  0.2024 -0.0087
15378TIP3    H167549   1.637   0.728  15.226 -0.6703  0.3947 -0.1129
15378TIP3    H267550   1.689   0.851  15.297  1.8045 -0.5376 -0.1917
15379TIP3   OH267551   1.518   5.903   4.983 -0.1706  0.7738  0.1046
15379TIP3    H167552   1.500   5.896   5.077  0.4443  0.8138  0.2304
15379TIP3    H267553   1.554   5.991   4.972  1.3721  0.1743  0.1213
15380TIP3   OH267554   3.243   5.536  14.793 -0.5839 -0.5175 -0.0340
15380TIP3    H167555   3.294   5.511  14.870  0.3544 -0.6975 -0.6953
15380TIP3    H267556   3.299   5.598  14.746 -2.1242  1.5274  0.6570
15381TIP3   OH267557   1.067   2.949  16.733 -1.0686  0.5986  0.3956
15381TIP3    H167558   1.108   2.863  16.722 -2.0234  0.2016 -0.2012
15381TIP3    H267559   1.043   2.953  16.825  2.2157  1.7493  1.3395
15382TIP3   OH267560   2.433   4.909  11.853 -0.0373  0.1062  0.6540
15382TIP3    H167561   2.437   5.000  11.826 -0.6542  0.1802  0.8021
15382TIP3    H267562   2.399   4.912  11.942 -2.1035 -0.3759 -0.0655
15383TIP3   OH267563   6.737   4.694   3.618  0.3666  0.0996 -0.4853
15383TIP3    H167564   6.822   4.705   3.661  0.6873 -1.5961 -0.6234
15383TIP3    H267565   6.750   4.622   3.557 -1.3846 -0.7692  0.0991
15384TIP3   OH267566   6.594   0.825   4.356 -0.7136 -0.4026 -0.0468
15384TIP3    H167567   6.513   0.785   4.325 -0.7421 -0.7960  0.5259
15384TIP3    H267568   6.581   0.837   4.450 -0.8934  1.3994 -0.2575
15385TIP3   OH267569   6.111   5.310   6.284 -0.6015 -0.0393 -0.2839
15385TIP3    H167570   6.077   5.315   6.373 -0.9734  0.1993 -0.4355
15385TIP3    H267571   6.203   5.337   6.292 -0.9740  1.2832 -0.1610
15386TIP3   OH267572   2.585   1.673  12.543 -0.2296 -0.0480 -0.8293
15386TIP3    H167573   2.642   1.597  12.533 -0.3194 -0.0644 -1.2051
15386TIP3    H267574   2.535   1.655  12.623  1.2650  0.6008  0.3087
15387TIP3   OH267575   1.712   0.215   6.172  0.0311  0.2571 -0.3600
15387TIP3    H167576   1.751   0.289   6.125 -0.9814  0.9866 -0.0633
15387TIP3    H267577   1.663   0.254   6.244  0.5157 -0.7845  0.5594
15388TIP3   OH267578   2.555   0.677  16.503 -0.5215  0.1696 -0.9311
15388TIP3    H167579   2.488   0.713  16.445 -0.2945 -0.5505 -1.6570
15388TIP3    H267580   2.616   0.750  16.518 -1.8917  1.0987  0.4392
15389TIP3   OH267581   2.270   2.577   1.620  0.6848  0.3137  0.2973
15389TIP3    H167582   2.265   2.648   1.684  0.6569 -1.2168  2.0719
15389TIP3    H267583   2.217   2.607   1.546 -0.3637  1.6129  1.5252
15390TIP3   OH267584   4.757   6.671   3.957 -0.4510 -0.0012 -0.2959
15390TIP3    H167585   4.775   6.760   3.929 -1.9616 -0.0912 -1.7034
15390TIP3    H267586   4.801   6.616   3.893 -1.0704 -0.2371 -0.5292
15391TIP3   OH267587   6.389   1.228  11.586 -0.1165 -0.0515  0.3586
15391TIP3    H167588   6.310   1.208  11.537 -0.5510  1.8334  0.2326
15391TIP3    H267589   6.412   1.146  11.630 -2.3730 -0.5222  0.7403
15392TIP3   OH267590   6.206   2.590  14.272  0.3284 -0.0741  0.0414
15392TIP3    H167591   6.259   2.667  14.250 -1.6646  1.4563  0.2514
15392TIP3    H267592   6.154   2.574  14.193  0.3182 -0.8776  0.2018
15393TIP3   OH267593   0.132   5.582   1.509  0.5129 -0.2925  0.8303
15393TIP3    H167594   0.088   5.536   1.581  1.7835 -0.3636  1.5902
15393TIP3    H267595   0.130   5.520   1.436 -0.8329 -0.2009  0.7618
15394TIP3   OH267596   1.712   3.720   6.300 -0.0215 -0.0602 -0.3271
15394TIP3    H167597   1.788   3.705   6.244  0.4234 -1.2916  0.5823
15394TIP3    H267598   1.643   3.665   6.262 -0.1497  0.2116 -0.4967
15395TIP3   OH267599   0.749   0.195   3.352  0.9978  0.1052  0.3133
15395TIP3    H167600   0.734   0.114   3.304  1.3182  0.2135  0.0260
15395TIP3    H267601   0.662   0.234   3.361  0.7302 -0.6579  1.1534
15396TIP3   OH267602   5.960   0.502   2.801  0.2816  0.1031 -0.1536
15396TIP3    H167603   5.912   0.585   2.793  1.6100  0.8194 -1.2821
15396TIP3    H267604   5.897   0.435   2.777 -0.2593  0.9783 -1.2902
15397TIP3   OH267605   2.900   2.689   1.484 -0.2350 -0.1637 -0.0572
15397TIP3    H167606   2.838   2.723   1.419 -1.7567 -1.5609  0.5813
15397TIP3    H267607   2.972   2.654   1.432  0.5532  2.3583 -0.7851
15398TIP3   OH267608   5.149   5.572  12.064  0.7154 -0.0333 -0.2027
15398TIP3    H167609   5.121   5.569  11.973  1.3763 -0.9730 -0.3905
15398TIP3    H267610   5.125   5.660  12.094 -1.3382 -0.3755 -0.6841
15399TIP3   OH267611   2.361   5.171  15.538  0.0818 -0.5178  0.2470
15399TIP3    H167612   2.355   5.264  15.518 -0.5685 -0.1869  1.7968
15399TIP3    H267613   2.277   5.150  15.581 -0.6614 -2.3138 -1.8816
15400TIP3   OH267614   5.327   5.584  14.456 -0.0776 -0.6120 -0.0726
15400TIP3    H167615   5.311   5.499  14.497 -1.4842  0.1518  1.0392
15400TIP3    H267616   5.308   5.647  14.525 -0.5787  0.6613 -1.3427
15401TIP3   OH267617   0.577   3.222  12.520  0.1518 -0.4787  0.8193
15401TIP3    H167618   0.534   3.295  12.564 -1.0259 -0.9143  0.4293
15401TIP3    H267619   0.519   3.147  12.535  0.1148 -0.8164 -0.7621
15402TIP3   OH267620   4.367   1.135  15.955  0.2099 -0.0565 -0.3677
15402TIP3    H167621   4.448   1.131  15.903  0.0788  1.0235 -0.6771
15402TIP3    H267622   4.393   1.104  16.042  0.2588 -2.6854 -1.2309
15403TIP3   OH267623   5.512   3.214   4.816 -0.3683  0.5477 -0.2505
15403TIP3    H167624   5.428   3.259   4.810 -1.4227 -0.9950  1.7030
15403TIP3    H267625   5.577   3.280   4.790 -1.9239  2.7441  1.1349
15404TIP3   OH267626   0.375   1.876   5.419 -0.5247  0.7733  0.0693
15404TIP3    H167627   0.420   1.845   5.498  0.1936  0.2530 -0.5214
15404TIP3    H267628   0.385   1.971   5.421  0.9436  0.6531 -0.2222
15405TIP3   OH267629   0.027   5.146  10.460 -0.0669 -0.3446  0.0623
15405TIP3    H167630   0.012   5.239  10.477 -0.1944 -0.4123  0.3186
15405TIP3    H267631   0.107   5.144  10.408 -0.3921 -0.0488 -0.4594
15406TIP3   OH267632   3.370   3.905  11.444 -0.8258  0.4581  0.4511
15406TIP3    H167633   3.394   3.945  11.528  0.4373  0.9820 -0.1242
15406TIP3    H267634   3.416   3.821  11.444  0.4939  1.1383 -0.3409
15407TIP3   OH267635   3.382   2.177   6.571  0.3594  0.0932 -0.3556
15407TIP3    H167636   3.356   2.103   6.626  0.6114 -0.3072 -0.7690
15407TIP3    H267637   3.357   2.254   6.621 -0.7451 -0.2680 -0.3089
15408TIP3   OH267638   1.404   2.942   4.242 -0.1003  0.7685  0.6449
15408TIP3    H167639   1.348   2.882   4.292  0.4244  0.5075  0.9211
15408TIP3    H267640   1.388   2.918   4.151  2.2518 -1.7945  0.7977
15409TIP3   OH267641   3.443   5.758  11.504  0.1645  0.1717  0.1842
15409TIP3    H167642   3.474   5.701  11.435 -0.1683 -0.4536  0.5405
15409TIP3    H267643   3.511   5.824  11.514 -0.4435  1.1659 -1.7432
15410TIP3   OH267644   3.728   3.017   1.115  0.2608 -0.9052  0.2022
15410TIP3    H167645   3.695   3.083   1.053  0.3863 -1.0950 -0.0702
15410TIP3    H267646   3.805   3.057   1.154  1.0433 -1.3369 -0.8342
15411TIP3   OH267647   4.699   3.241   4.684  0.0850  0.0219 -0.4502
15411TIP3    H167648   4.636   3.195   4.628 -1.4992  1.0944  0.3702
15411TIP3    H267649   4.661   3.328   4.696 -0.1176 -0.3828  2.9205
15412TIP3   OH267650   3.529   3.736   3.761  0.4113 -0.3243  0.3104
15412TIP3    H167651   3.508   3.674   3.831 -0.3913  0.5461  0.8749
15412TIP3    H267652   3.528   3.822   3.804 -1.5218  0.3972 -1.0231
15413TIP3   OH267653   4.803   1.557  14.350  0.7056  0.2060  0.5812
15413TIP3    H167654   4.728   1.616  14.350  0.8186  0.3515  0.8613
15413TIP3    H267655   4.780   1.488  14.413 -0.4066 -1.3292 -1.3779
15414TIP3   OH267656   4.923   6.457   4.334 -0.7181  0.2781  0.3933
15414TIP3    H167657   4.963   6.410   4.407 -0.9624 -1.7251 -0.6871
15414TIP3    H267658   4.995   6.505   4.293 -0.8314  2.7091  2.7698
15415TIP3   OH267659   0.088   6.436  13.225  0.8289 -0.0424  0.6350
15415TIP3    H167660   0.014   6.413  13.281  0.6639  0.4089  0.6016
15415TIP3    H267661   0.070   6.393  13.142  0.3248  0.5341  0.4452
15416TIP3   OH267662   3.495   6.177   2.357 -0.0112 -0.1719  0.3101
15416TIP3    H167663   3.535   6.134   2.433  0.3224  0.0543  0.2655
15416TIP3    H267664   3.486   6.107   2.292 -0.3022 -0.3661  0.5582
15417TIP3   OH267665   4.244   6.114  17.090 -0.5885  0.0238 -0.5494
15417TIP3    H167666   4.167   6.098  17.035 -0.6138 -1.2680 -0.1767
15417TIP3    H267667   4.315   6.068  17.046 -0.3468 -0.0129 -0.1270
15418TIP3   OH267668   3.955   1.269  10.963  0.0402 -0.2162  0.4467
15418TIP3    H167669   4.010   1.345  10.944  1.3573 -1.4577 -1.0824
15418TIP3    H267670   3.911   1.251  10.880 -1.0017 -0.5744  1.0574
15419TIP3   OH267671   0.353   6.344   0.254  0.4482 -0.6445 -0.8592
15419TIP3    H167672   0.301   6.380   0.325 -1.6468 -2.1027 -1.5410
15419TIP3    H267673   0.365   6.416   0.192  0.1316 -0.0253 -0.1979
15420TIP3   OH267674   4.697   6.195   5.989 -0.0455  0.4712  0.8314
15420TIP3    H167675   4.651   6.164   6.067  0.4366  0.8030  1.2540
15420TIP3    H267676   4.655   6.148   5.917 -0.1932 -0.1856  1.3315
15421TIP3   OH267677   0.130   5.998   1.280 -0.1565  0.2393  0.2707
15421TIP3    H167678   0.047   6.043   1.268 -1.2629 -1.7422  0.2077
15421TIP3    H267679   0.110   5.905   1.272  2.5274 -0.2648 -2.5884
15422TIP3   OH267680   5.063   5.538  15.075 -0.2378 -0.5729  0.0309
15422TIP3    H167681   5.137   5.574  15.124  0.0308 -0.7943 -0.2081
15422TIP3    H267682   5.045   5.453  15.116 -0.9960 -0.0971  0.7185
15423TIP3   OH267683   4.959   4.040  12.908  0.2577 -1.0985  0.0792
15423TIP3    H167684   4.890   3.995  12.859  0.7285 -2.4387  0.6075
15423TIP3    H267685   5.008   4.089  12.841 -0.3352 -1.2656 -0.4891
15424TIP3   OH267686   4.683   0.193   4.376  0.0723 -0.0427 -0.3607
15424TIP3    H167687   4.672   0.277   4.332  1.2257 -0.5597 -1.7318
15424TIP3    H267688   4.710   0.133   4.306 -0.4118 -1.4842  0.6365
15425TIP3   OH267689   1.856   1.046  16.412  0.8002  0.1279  0.9333
15425TIP3    H167690   1.850   1.133  16.451  2.1514  1.1905 -1.0452
15425TIP3    H267691   1.851   0.986  16.487 -1.4071  1.7853  2.2510
15426TIP3   OH267692   2.169   6.132   1.490  0.0735  0.1631 -0.0373
15426TIP3    H167693   2.221   6.084   1.426  1.3415  0.7289  0.5324
15426TIP3    H267694   2.232   6.156   1.559 -0.6480  2.0071  0.0325
15427TIP3   OH267695   6.303   5.022  15.009 -0.4615 -0.4982 -0.1395
15427TIP3    H167696   6.324   4.932  14.986  0.7052 -0.1058 -0.6624
15427TIP3    H267697   6.207   5.025  15.007 -0.5403 -1.8500  0.4243
15428TIP3   OH267698   5.104   3.965  16.562  0.1290 -0.3497  0.0605
15428TIP3    H167699   5.044   4.020  16.612  1.2857  0.5668  0.4496
15428TIP3    H267700   5.164   3.928  16.627 -0.2838 -1.6591 -0.2609
15429TIP3   OH267701   0.579   0.047   5.788  0.1390 -0.0870  0.3143
15429TIP3    H167702   0.590   0.027   5.695  0.3479  0.3107  0.2520
15429TIP3    H267703   0.488   0.025   5.806  0.5734 -1.8783  0.4532
15430TIP3   OH267704   0.275   1.147   3.581  0.4622 -0.5537 -0.2280
15430TIP3    H167705   0.285   1.111   3.493  1.2751  1.2842 -0.9243
15430TIP3    H267706   0.184   1.176   3.585  0.5392 -0.2656 -0.6063
15431TIP3   OH267707   6.346   5.592   6.069  0.1396  0.3934 -0.5315
15431TIP3    H167708   6.327   5.671   6.119 -1.9541  0.4454 -1.3228
15431TIP3    H267709   6.370   5.526   6.135 -0.0949  1.1340  0.3056
15432TIP3   OH267710   3.867   0.415  13.989  0.7397  0.1073  0.0216
15432TIP3    H167711   3.945   0.426  14.043  0.8000  0.3357 -0.1107
15432TIP3    H267712   3.868   0.490  13.930 -0.5325  1.0780  1.1836
15433TIP3   OH267713   3.247   1.254  13.124 -0.0664 -0.3837 -0.3546
15433TIP3    H167714   3.194   1.188  13.169  0.5349  0.0054  0.9672
15433TIP3    H267715   3.217   1.338  13.159  0.3766 -0.0679 -0.7174
15434TIP3   OH267716   3.800   2.231  15.222  0.8719  0.1948  0.6256
15434TIP3    H167717   3.790   2.136  15.225 -1.2267  0.3996  2.6210
15434TIP3    H267718   3.851   2.247  15.143 -0.6425 -2.4556 -1.0450
15435TIP3   OH267719   5.647   3.816   3.483  0.3813 -0.3313 -0.6228
15435TIP3    H167720   5.656   3.911   3.472 -0.6580 -0.2137 -0.5492
15435TIP3    H267721   5.665   3.801   3.575  1.8704 -0.3854 -0.9055
15436TIP3   OH267722   1.016   2.531  16.342  0.5157 -0.1245 -0.4060
15436TIP3    H167723   0.964   2.451  16.343  0.0293  0.1783 -1.0473
15436TIP3    H267724   1.096   2.508  16.294  0.4918 -0.2975 -0.3615
15437TIP3   OH267725   0.962   1.441   3.465  0.1719  0.0325  0.4669
15437TIP3    H167726   0.982   1.511   3.527  0.0939  0.6372 -0.1851
15437TIP3    H267727   0.869   1.425   3.476  0.2687 -0.2455  0.8974
15438TIP3   OH267728   2.683   1.065  11.592 -0.1901  0.2945  0.4546
15438TIP3    H167729   2.609   1.124  11.583 -0.5133 -0.2406 -0.5051
15438TIP3    H267730   2.681   1.011  11.513  1.3964  0.4647  0.2592
15439TIP3   OH267731   3.859   4.277  12.609 -0.0883 -0.4471  0.2334
15439TIP3    H167732   3.904   4.226  12.541 -2.1454 -2.5600  0.3405
15439TIP3    H267733   3.828   4.356  12.564 -0.2481 -1.1681 -0.9559
15440TIP3   OH267734   5.201   5.454   4.185  0.4636  0.1421  0.5663
15440TIP3    H167735   5.226   5.522   4.247 -1.1369  0.8979  0.4425
15440TIP3    H267736   5.280   5.402   4.172  1.5849  1.6949  1.0171
15441TIP3   OH267737   0.030   2.255   4.501 -0.2727 -0.4623  0.1136
15441TIP3    H167738   0.056   2.169   4.466  0.6568 -0.3108  0.4004
15441TIP3    H267739   0.061   2.318   4.435  0.8528 -0.2264  0.8309
15442TIP3   OH267740   4.150   5.914  13.162 -0.7647  0.5859 -0.1450
15442TIP3    H167741   4.128   5.901  13.070 -1.1503  1.8579 -0.2432
15442TIP3    H267742   4.225   5.974  13.160  0.6029 -1.0205  0.3132
15443TIP3   OH267743   3.688   2.848  14.548  0.2403  0.1257  0.4070
15443TIP3    H167744   3.679   2.817  14.458 -1.3664 -1.6477  1.1258
15443TIP3    H267745   3.783   2.856  14.561  0.5236 -0.0556 -1.2641
15444TIP3   OH267746   4.007   5.493   3.695 -0.8555  0.3673 -0.5510
15444TIP3    H167747   3.931   5.539   3.731 -0.1455 -0.1335  1.7583
15444TIP3    H267748   4.071   5.562   3.676 -0.8169  0.5647  0.2806
15445TIP3   OH267749   1.743   5.641   2.734  0.2592  0.0479  0.5625
15445TIP3    H167750   1.700   5.557   2.752  0.7161 -1.2534 -3.4164
15445TIP3    H267751   1.746   5.685   2.819 -1.9786 -2.9997  2.4420
15446TIP3   OH267752   1.027   6.755   3.533 -0.0225  0.7660  0.2492
15446TIP3    H167753   0.938   6.759   3.569 -1.0899  0.5790 -2.1817
15446TIP3    H267754   1.064   6.676   3.571 -2.1471 -1.0489 -1.2123
15447TIP3   OH267755   4.947   0.200   5.108 -0.2969 -0.0634 -0.2016
15447TIP3    H167756   5.021   0.260   5.101 -0.5966  0.2991 -0.2285
15447TIP3    H267757   4.979   0.130   5.166 -0.2741  0.6128  0.6243
15448TIP3   OH267758   3.599   5.243   1.071 -0.2933 -0.4305  0.3477
15448TIP3    H167759   3.524   5.237   1.011 -0.9910 -0.3866  1.2026
15448TIP3    H267760   3.668   5.193   1.027 -1.0377 -1.0662 -0.1341
15449TIP3   OH267761   2.187   0.424   3.153  0.0455 -0.1607 -0.0059
15449TIP3    H167762   2.144   0.377   3.082 -1.6803  0.1300  0.8062
15449TIP3    H267763   2.180   0.366   3.228  3.4421 -1.2646 -0.3777
15450TIP3   OH267764   1.852   4.181   2.341  0.6831  0.3051  0.0986
15450TIP3    H167765   1.855   4.175   2.437  3.0935  0.2944  0.0945
15450TIP3    H267766   1.859   4.274   2.323 -0.9298  0.4167 -0.1027
15451TIP3   OH267767   4.808   1.983   1.525 -0.6752 -0.6466 -0.0238
15451TIP3    H167768   4.871   1.958   1.456 -0.8131 -0.9986 -0.0250
15451TIP3    H267769   4.841   1.940   1.604  0.8353  1.6745  0.7015
15452TIP3   OH267770   4.727   3.044   3.263  0.0116 -0.9242  0.0326
15452TIP3    H167771   4.672   3.122   3.264  0.5216 -0.5287 -1.1731
15452TIP3    H267772   4.714   3.007   3.175  1.7750 -0.7220 -0.3424
15453TIP3   OH267773   4.800   3.747  11.132 -0.3020 -0.4711 -0.0951
15453TIP3    H167774   4.885   3.734  11.174  0.1001  2.2118  0.1467
15453TIP3    H267775   4.792   3.675  11.070  4.4149  1.4834 -3.6252
15454TIP3   OH267776   1.755   3.618  13.848 -0.5741 -0.4215 -1.3856
15454TIP3    H167777   1.673   3.666  13.838 -0.5615  0.1629  0.8019
15454TIP3    H267778   1.730   3.533  13.883 -0.2078  0.5712  1.5861
15455TIP3   OH267779   1.963   5.248  16.148  0.2518 -0.3583 -0.3178
15455TIP3    H167780   2.017   5.252  16.069  1.4728  0.4882  0.5111
15455TIP3    H267781   2.002   5.176  16.199  0.6735  0.2976  0.3137
15456TIP3   OH267782   2.890   5.918  17.122 -0.2132  0.1282 -0.0894
15456TIP3    H167783   2.890   5.904  17.217 -1.2009 -1.1705 -0.2493
15456TIP3    H267784   2.811   5.971  17.106 -0.2456  0.0413 -0.2179
15457TIP3   OH267785   3.566   2.751  17.203  0.1195 -0.1691 -0.0027
15457TIP3    H167786   3.581   2.798  17.285  2.9780 -1.8975  0.5899
15457TIP3    H267787   3.623   2.795  17.139  0.3199 -0.7947 -0.2587
15458TIP3   OH267788   4.156   6.617  17.304 -0.4013  0.2005 -0.1387
15458TIP3    H167789   4.137   6.706  17.275 -1.4202 -0.1545 -0.5973
15458TIP3    H267790   4.146   6.564  17.225  1.4422 -0.1784 -0.1710
15459TIP3   OH267791   2.581   4.722  16.807  0.0957  0.0391  0.0227
15459TIP3    H167792   2.489   4.711  16.832 -0.1498 -1.2581 -1.3349
15459TIP3    H267793   2.620   4.636  16.820  1.3178  0.7375  1.2342
15460TIP3   OH267794   4.792   2.700   3.017  0.0032 -0.5988  0.0400
15460TIP3    H167795   4.753   2.747   3.091 -1.7618 -1.6114 -0.1941
15460TIP3    H267796   4.808   2.768   2.951 -0.3120  0.0076  0.5837
15461TIP3   OH267797   4.216   5.573  17.241  0.4644 -0.1499 -0.3301
15461TIP3    H167798   4.149   5.613  17.186  1.2928 -0.9655 -1.9812
15461TIP3    H267799   4.294   5.569  17.186  1.9867  1.0117  1.6245
15462TIP3   OH267800   6.703   5.043   5.415 -0.4764 -1.0390 -0.4513
15462TIP3    H167801   6.729   4.983   5.345 -0.6811 -0.2769 -1.2096
15462TIP3    H267802   6.609   5.027   5.426 -0.6191 -0.5790 -0.9482
15463TIP3   OH267803   4.103   3.691  12.734  0.1972  0.8369 -0.0167
15463TIP3    H167804   4.193   3.724  12.737  0.2780  0.6011  0.2013
15463TIP3    H267805   4.052   3.763  12.697  0.4499  1.0294  0.0073
15464TIP3   OH267806   3.893   4.305   1.012  0.0164  0.0390  0.1988
15464TIP3    H167807   3.988   4.312   1.008 -0.0096 -0.3936 -2.3380
15464TIP3    H267808   3.877   4.224   1.061  0.8571  0.9521  2.0936
15465TIP3   OH267809   5.721   3.756  12.427 -0.2658  0.4161  0.1420
15465TIP3    H167810   5.682   3.723  12.508  0.8680 -0.2847  0.4201
15465TIP3    H267811   5.680   3.705  12.357 -2.0110  1.7207  0.1397
15466TIP3   OH267812   6.267   6.511   4.130 -0.1549  0.0389 -0.5139
15466TIP3    H167813   6.213   6.470   4.198 -0.4875  0.2301 -0.6577
15466TIP3    H267814   6.323   6.573   4.177  0.8938 -1.1153 -0.1976
15467TIP3   OH267815   4.168   3.240  12.542 -0.0298  0.1016 -0.5500
15467TIP3    H167816   4.245   3.260  12.596 -0.2618 -1.1084  0.2830
15467TIP3    H267817   4.159   3.145  12.548 -2.4101  0.3263  0.5391
15468TIP3   OH267818   1.388   6.416   0.296 -0.3550 -0.5495  0.1898
15468TIP3    H167819   1.367   6.449   0.383 -0.0511 -0.9165  0.4056
15468TIP3    H267820   1.445   6.483   0.258 -1.5473  0.2510 -0.2418
15469TIP3   OH267821   2.798   4.787  16.113 -0.1603 -0.1271  0.4966
15469TIP3    H167822   2.760   4.799  16.026 -0.7190 -1.6560  0.4929
15469TIP3    H267823   2.775   4.867  16.160  1.0775  1.2213 -1.0448
15470TIP3   OH267824   3.876   6.294   1.547  0.7197 -0.0474  0.2387
15470TIP3    H167825   3.924   6.375   1.562  0.6005 -0.1122  1.0082
15470TIP3    H267826   3.805   6.319   1.488  0.2085  0.5833  1.1007
15471TIP3   OH267827   4.497   0.581   4.580 -0.2363 -0.3311  0.0300
15471TIP3    H167828   4.467   0.560   4.491  1.0496  1.2614 -0.8367
15471TIP3    H267829   4.443   0.656   4.605  0.6233  0.3486 -0.1390
15472TIP3   OH267830   5.366   3.662   1.987 -0.1195 -0.2716  0.0656
15472TIP3    H167831   5.441   3.605   2.004  0.3296  0.3794  0.3197
15472TIP3    H267832   5.336   3.638   1.899  0.8519 -0.0342 -0.3386
15473TIP3   OH267833   2.611   5.783   0.295 -0.5039  0.1575 -0.3789
15473TIP3    H167834   2.616   5.722   0.369  0.0529  0.8706  0.1929
15473TIP3    H267835   2.652   5.863   0.328  1.1688  0.0031 -1.9644
15474TIP3   OH267836   5.738   0.066   2.128 -0.1551 -0.2903  0.2326
15474TIP3    H167837   5.741   0.123   2.051  1.1371  1.6560  1.6268
15474TIP3    H267838   5.796  -0.006   2.106  1.9027  1.3003  0.0682
15475TIP3   OH267839   0.774   2.257   2.709 -0.1562  0.1408  0.3310
15475TIP3    H167840   0.741   2.343   2.733 -0.6017  0.4691 -1.3033
15475TIP3    H267841   0.695   2.203   2.697  0.0111  0.0997 -0.6748
15476TIP3   OH267842   2.191   4.211  15.493 -0.0345  0.1763  0.3359
15476TIP3    H167843   2.188   4.177  15.403  1.0677 -2.3254  1.1519
15476TIP3    H267844   2.283   4.206  15.517 -0.3763  0.4083  1.7525
15477TIP3   OH267845   6.606   6.748   2.886  0.4980 -0.5602  0.3675
15477TIP3    H167846   6.631   6.696   2.963  1.6967  0.1668  0.4912
15477TIP3    H267847   6.516   6.723   2.869  0.6976 -1.8810  1.0834
15478TIP3   OH267848   6.061   6.144   2.146  0.0584 -0.0483 -0.3339
15478TIP3    H167849   6.010   6.085   2.201  0.4968  1.0685  1.3478
15478TIP3    H267850   6.108   6.086   2.086  0.0046 -1.3684  0.8483
15479TIP3   OH267851   3.928   4.359   3.212  0.3481 -0.5011 -0.2770
15479TIP3    H167852   3.852   4.373   3.269 -0.1765 -2.3936 -0.4504
15479TIP3    H267853   4.002   4.396   3.261  0.0269 -2.6351  2.0442
15480TIP3   OH267854   3.693   0.847   2.664  0.2538 -0.1983  0.1456
15480TIP3    H167855   3.763   0.900   2.702 -0.3409 -0.6989  2.0657
15480TIP3    H267856   3.623   0.850   2.729 -0.8075 -1.1860 -0.9080
15481TIP3   OH267857   0.843   4.807  15.438  0.0740  0.2224  0.2719
15481TIP3    H167858   0.773   4.768  15.490 -0.9866  0.2284 -1.0979
15481TIP3    H267859   0.919   4.751  15.454 -0.6835 -0.7700  0.5049
15482TIP3   OH267860   4.639   5.921   4.090  0.5358  0.2236 -0.0236
15482TIP3    H167861   4.568   5.907   4.153  1.7323 -0.4598  1.2448
15482TIP3    H267862   4.663   6.013   4.101 -0.4912  0.6210 -0.8770
15483TIP3   OH267863   0.546   3.387   5.752 -0.9557  0.3763 -0.1253
15483TIP3    H167864   0.594   3.312   5.786  0.4693  1.4190  0.2671
15483TIP3    H267865   0.501   3.354   5.675  1.4449 -0.4166 -1.3037
15484TIP3   OH267866   3.965   5.685  17.110 -0.1262 -0.1794 -0.2122
15484TIP3    H167867   3.917   5.767  17.103 -0.4778 -0.3412  0.2865
15484TIP3    H267868   3.898   5.619  17.128  0.2096 -0.5056 -0.1321
15485TIP3   OH267869   4.173   6.464  15.691 -0.2821 -0.4376  0.3262
15485TIP3    H167870   4.203   6.415  15.768  2.3442 -0.1111 -0.4092
15485TIP3    H267871   4.098   6.414  15.659 -0.5240 -1.3954  2.2196
15486TIP3   OH267872   2.458   1.550   3.797  0.0518 -0.8530 -0.0258
15486TIP3    H167873   2.385   1.571   3.854  0.1300 -0.9990  0.1302
15486TIP3    H267874   2.429   1.473   3.748 -0.7357  0.3512 -1.5283
15487TIP3   OH267875   4.516   2.244   2.835 -0.5424  0.4886 -0.1497
15487TIP3    H167876   4.470   2.186   2.896 -0.8885 -0.1584 -1.0075
15487TIP3    H267877   4.519   2.328   2.880  1.6001 -0.5874  1.9192
15488TIP3   OH267878   0.589   5.695  16.337  0.2411 -0.5729 -0.4835
15488TIP3    H167879   0.549   5.719  16.254 -0.0139 -0.5604 -0.3585
15488TIP3    H267880   0.632   5.775  16.367 -1.4504  0.0446  0.4133
15489TIP3   OH267881   0.037   4.666   1.873 -0.0292  0.3099  0.3634
15489TIP3    H167882  -0.033   4.604   1.894  0.2743  0.4149  1.7975
15489TIP3    H267883  -0.000   4.723   1.806 -1.5314  0.7133  1.4982
15490TIP3   OH267884   6.580   4.619  14.160  0.4349  0.0801  0.5338
15490TIP3    H167885   6.592   4.575  14.245  1.6725  0.0358  0.3621
15490TIP3    H267886   6.497   4.666  14.169  0.2577 -0.3951  1.5664
15491TIP3   OH267887   6.147   4.943  13.598  0.2326 -0.0282  0.4476
15491TIP3    H167888   6.233   4.963  13.634  0.1927  0.2394  0.3966
15491TIP3    H267889   6.139   4.848  13.606  1.8193 -0.5299 -2.3215
15492TIP3   OH267890   3.731   2.761  14.100 -0.3059  0.0043  0.5804
15492TIP3    H167891   3.662   2.754  14.165 -1.2211 -0.1341 -0.3752
15492TIP3    H267892   3.752   2.854  14.096  0.7316 -0.1356  2.0255
15493TIP3   OH267893   3.265   4.291   5.164 -0.0566  0.1336 -0.0344
15493TIP3    H167894   3.177   4.260   5.187  0.4071 -0.1391  1.5138
15493TIP3    H267895   3.309   4.215   5.126  0.4206 -0.6056  1.8815
15494TIP3   OH267896   5.684   4.934   0.507 -0.2701  0.0823 -0.0913
15494TIP3    H167897   5.603   4.916   0.460 -0.9735 -0.7220  1.3607
15494TIP3    H267898   5.750   4.880   0.462 -0.7404 -0.0103 -0.6781
15495TIP3   OH267899   5.583   1.994   1.449  0.8150  0.0908  0.6307
15495TIP3    H167900   5.619   1.930   1.511  1.3738 -0.6573 -0.4306
15495TIP3    H267901   5.641   1.989   1.374  1.1978  2.2771  0.7272
15496TIP3   OH267902   4.038   5.077  15.894  0.0162  0.4429 -0.3565
15496TIP3    H167903   3.956   5.083  15.845 -0.6800 -3.2565  0.0869
15496TIP3    H267904   4.014   5.035  15.976  2.3443 -0.9746 -0.3129
15497TIP3   OH267905   4.255   3.055  12.167  0.5225  0.1856  0.7884
15497TIP3    H167906   4.211   2.979  12.128  0.2269  0.3885  0.7212
15497TIP3    H267907   4.183   3.115  12.190  0.8424  1.5802 -1.5226
15498TIP3   OH267908   3.880   5.256  13.491 -0.0109  0.7336  0.3502
15498TIP3    H167909   3.864   5.340  13.533 -1.1453  1.1083 -0.7706
15498TIP3    H267910   3.976   5.251  13.482  0.1143  1.5202  1.1617
15499TIP3   OH267911   2.609   1.794  10.649  0.6874  0.2347 -0.2417
15499TIP3    H167912   2.565   1.731  10.592  2.0275 -0.0973 -0.9536
15499TIP3    H267913   2.692   1.753  10.671  0.4838  0.6529  1.4370
15500TIP3   OH267914   1.559   6.529   4.822 -0.3473 -0.2179 -0.1264
15500TIP3    H167915   1.650   6.535   4.848  0.3711 -3.1790 -1.5315
15500TIP3    H267916   1.543   6.609   4.771  0.3532  1.9850  2.8400
15501TIP3   OH267917   6.672   0.628  13.052 -0.2728 -0.1824 -0.1152
15501TIP3    H167918   6.669   0.533  13.059 -0.4022 -0.2422 -0.8919
15501TIP3    H267919   6.670   0.659  13.142  0.8093 -0.9464  0.1910
15502TIP3   OH267920   1.786   2.799   0.565 -0.2153 -0.5051 -0.2731
15502TIP3    H167921   1.857   2.864   0.566 -0.4285 -0.2461  1.0260
15502TIP3    H267922   1.732   2.824   0.490  0.4745 -0.0445 -0.6326
15503TIP3   OH267923   2.209   2.165  14.535  0.5438 -0.0188 -0.8872
15503TIP3    H167924   2.282   2.162  14.596 -0.1945  2.4370  0.2509
15503TIP3    H267925   2.141   2.112  14.576 -0.0455  1.8428  0.6634
15504TIP3   OH267926   4.255   6.248  12.251 -0.5390 -0.8959 -0.0023
15504TIP3    H167927   4.183   6.269  12.191  0.3478 -1.0525 -1.1627
15504TIP3    H267928   4.317   6.200  12.197  0.9706  0.2346  0.6627
15505TIP3   OH267929   1.431   0.877  15.734  0.2857  0.2586 -0.6207
15505TIP3    H167930   1.385   0.958  15.756 -1.7397 -0.9096 -0.3470
15505TIP3    H267931   1.515   0.885  15.781 -0.2999  1.7121  0.2745
15506TIP3   OH267932   3.224   1.122   3.703 -0.2836  0.0022  0.4743
15506TIP3    H167933   3.197   1.167   3.623 -0.0555  1.6255  1.2587
15506TIP3    H267934   3.168   1.159   3.771  0.0541 -0.7735  1.1866
15507TIP3   OH267935   6.057   5.194   1.473  0.4501 -0.3134  0.5222
15507TIP3    H167936   6.060   5.137   1.551 -1.9573 -0.8726  0.3012
15507TIP3    H267937   6.131   5.253   1.484  1.6204 -1.9274  2.0041
15508TIP3   OH267938   4.788   4.636   2.448  0.7214  0.1169 -0.0435
15508TIP3    H167939   4.830   4.679   2.522  1.4102 -2.3234  1.0685
15508TIP3    H267940   4.698   4.669   2.448  1.0083  0.9333  1.2235
15509TIP3   OH267941   5.887   4.778   0.380  0.6182 -0.1791 -0.1979
15509TIP3    H167942   5.963   4.730   0.347  2.3530 -0.0716  3.1931
15509TIP3    H267943   5.909   4.870   0.365  1.1390 -0.1546  0.6520
15510TIP3   OH267944   3.830   0.204   3.935 -0.2917 -0.1556 -0.1097
15510TIP3    H167945   3.819   0.298   3.920 -0.1531  0.0139  0.8138
15510TIP3    H267946   3.924   0.193   3.948 -0.3654 -0.3452  0.2686
15511TIP3   OH267947   4.443   1.807  15.765 -0.0124  0.0916 -0.0464
15511TIP3    H167948   4.372   1.763  15.717 -0.5310  2.3480 -1.4968
15511TIP3    H267949   4.462   1.884  15.712  2.1445  0.6185  1.4121
15512TIP3   OH267950   5.938   3.483   3.782 -0.0792  0.6514  0.5982
15512TIP3    H167951   5.998   3.553   3.759  0.5999 -0.1094 -0.0043
15512TIP3    H267952   5.854   3.527   3.797  0.2312  1.5379 -0.1790
15513TIP3   OH267953   2.188   0.690  12.903 -0.3161 -0.9738 -0.5011
15513TIP3    H167954   2.115   0.633  12.929  0.6716 -1.6968  0.7953
15513TIP3    H267955   2.172   0.707  12.810 -1.7544 -1.6797 -0.4253
15514TIP3   OH267956   1.959   5.825  15.735  0.8503  0.1770 -0.1388
15514TIP3    H167957   1.930   5.735  15.747 -0.2597  0.5836  0.4235
15514TIP3    H267958   1.995   5.850  15.820  0.8691  0.3542 -0.1983
15515TIP3   OH267959   0.206   4.006   0.251 -0.0817 -0.0827  0.1527
15515TIP3    H167960   0.254   4.073   0.300  2.9874 -1.8741 -0.1669
15515TIP3    H267961   0.271   3.937   0.234 -2.0538 -1.4173 -2.8550
15516TIP3   OH267962   1.459   4.011   0.164  0.2099  0.0548 -0.4758
15516TIP3    H167963   1.540   4.043   0.204 -0.5006  2.6768 -0.9456
15516TIP3    H267964   1.392   4.024   0.232  0.1518 -2.2339 -0.0335
15517TIP3   OH267965   6.235   3.326   6.258 -0.0301 -0.4028  0.1832
15517TIP3    H167966   6.219   3.355   6.348  0.1693  0.1494  0.0432
15517TIP3    H267967   6.263   3.405   6.212 -0.7602 -0.5455 -0.5211
15518TIP3   OH267968   5.324   2.347   0.877  0.3471  0.0609 -0.3060
15518TIP3    H167969   5.355   2.356   0.787  1.9515 -1.0667  0.1029
15518TIP3    H267970   5.383   2.283   0.917 -1.8728 -1.4076  0.8246
15519TIP3   OH267971   6.541   0.201   0.187 -0.2700 -0.2120 -0.1722
15519TIP3    H167972   6.529   0.118   0.140 -1.2998 -0.5326  0.6038
15519TIP3    H267973   6.458   0.247   0.176 -0.5321 -0.2867  1.2710
15520TIP3   OH267974   6.337   4.654   0.831 -0.3712 -0.2860  0.1152
15520TIP3    H167975   6.292   4.738   0.840 -1.4182 -0.7430 -0.6450
15520TIP3    H267976   6.270   4.594   0.798  0.3966 -1.3900  0.4930
15521TIP3   OH267977   3.440   5.674  12.409 -0.0390  0.2821 -0.8111
15521TIP3    H167978   3.515   5.672  12.351  0.4463  1.1347 -0.2420
15521TIP3    H267979   3.476   5.661  12.497 -0.5474  0.6853 -0.5310
15522TIP3   OH267980   0.583   0.592  15.347  0.4612 -1.1471 -0.5034
15522TIP3    H167981   0.560   0.518  15.291  1.0545 -1.8539  0.1669
15522TIP3    H267982   0.534   0.577  15.428 -3.5778  1.8858 -2.0302
15523TIP3   OH267983   5.535   1.519  11.046  0.5157  0.1581  0.1098
15523TIP3    H167984   5.477   1.464  10.993  0.9120 -1.1823  0.9988
15523TIP3    H267985   5.493   1.604  11.048  0.3583  0.1750 -2.1137
15524TIP3   OH267986   6.299   1.998  17.125  0.2341 -0.2182  0.4506
15524TIP3    H167987   6.308   1.986  17.219  0.9126 -1.6712  0.2323
15524TIP3    H267988   6.206   1.982  17.107 -0.2353  1.6790  1.0560
15525TIP3   OH267989   1.108   3.862  11.718 -0.0602  0.0897 -0.3416
15525TIP3    H167990   1.027   3.903  11.748  0.5007  1.2368 -0.3065
15525TIP3    H267991   1.156   3.842  11.798  0.0332  0.1620 -0.3790
15526TIP3   OH267992   6.387   5.622   1.566 -0.2387 -0.1643 -0.1090
15526TIP3    H167993   6.409   5.656   1.652  0.2553  1.8159 -0.9638
15526TIP3    H267994   6.430   5.681   1.504 -2.3543 -0.1939 -1.7511
15527TIP3   OH267995   4.814   4.589  15.231 -0.1145 -0.0649 -0.3319
15527TIP3    H167996   4.786   4.549  15.149 -3.1788 -0.0356  0.6023
15527TIP3    H267997   4.780   4.532  15.299 -0.2279  1.4594  0.9509
15528TIP3   OH267998   0.906   5.680   3.646 -0.1866 -0.1686  0.0666
15528TIP3    H167999   0.962   5.684   3.723  0.6010  0.1846 -0.5173
15528TIP3    H268000   0.822   5.649   3.680 -0.0885  0.7340  1.1948
15529TIP3   OH268001   3.070   4.366   2.711  0.0714  0.4019 -0.4781
15529TIP3    H168002   2.990   4.340   2.755 -0.8759  1.6163 -1.4259
15529TIP3    H268003   3.094   4.290   2.658  0.2715 -0.4222  0.7402
15530TIP3   OH268004   5.910   4.736  11.929  0.0540  1.2376 -0.0221
15530TIP3    H168005   5.843   4.731  11.996  0.5869  1.6411  0.5503
15530TIP3    H268006   5.888   4.666  11.867  0.5562 -0.3369  1.5022
15531TIP3   OH268007   0.754   5.663   1.426  0.8261 -0.0270  0.1091
15531TIP3    H168008   0.689   5.704   1.370  1.2418  0.2173 -0.1997
15531TIP3    H268009   0.728   5.688   1.515  0.3997 -0.0818  0.0001
15532TIP3   OH268010   3.398   5.286  11.065  0.3840  0.2485 -0.5209
15532TIP3    H168011   3.479   5.331  11.041  0.4709 -0.4995 -1.6898
15532TIP3    H268012   3.332   5.325  11.008  0.2292 -0.2268 -0.6708
15533TIP3   OH268013   3.372   4.437   0.978 -0.9680  0.2776 -0.2277
15533TIP3    H168014   3.343   4.454   1.068 -2.8857 -2.1889 -0.2735
15533TIP3    H268015   3.464   4.410   0.987 -1.0125  0.4665  0.9479
15534TIP3   OH268016   6.660   2.519  12.372 -0.3887 -0.8839  0.5291
15534TIP3    H168017   6.729   2.583  12.357 -0.0166 -0.8282  2.3056
15534TIP3    H268018   6.690   2.440  12.329 -0.3562 -0.1986 -0.7650
15535TIP3   OH268019   3.870   0.983  17.027  0.5064 -0.5066  0.4661
15535TIP3    H168020   3.963   0.986  17.051  0.3714  2.0216  0.8739
15535TIP3    H268021   3.861   1.046  16.956 -1.3067  1.2343  2.1316
15536TIP3   OH268022   6.392   6.502   5.375 -0.3541 -1.0450  0.3474
15536TIP3    H168023   6.429   6.494   5.463 -1.8554  0.8405  1.2135
15536TIP3    H268024   6.319   6.563   5.385  0.2949  0.3479 -2.4786
15537TIP3   OH268025   0.578   4.032  11.546  0.5730 -0.3266 -0.5881
15537TIP3    H168026   0.561   4.060  11.456  0.3556 -0.7274 -0.6749
15537TIP3    H268027   0.640   4.096  11.580 -2.0054  1.9147  0.1664
15538TIP3   OH268028   0.663   6.325  11.598 -0.1971 -0.4206 -0.2830
15538TIP3    H168029   0.734   6.361  11.651 -0.8370  1.9373 -0.9104
15538TIP3    H268030   0.593   6.390  11.603 -2.6093 -2.8876  0.7480
15539TIP3   OH268031   3.986   2.861  14.988  0.2057  0.0775  0.2662
15539TIP3    H168032   3.928   2.850  15.063  0.4070 -3.7718  0.0564
15539TIP3    H268033   3.969   2.785  14.933 -0.2135  2.8901 -3.9425
15540TIP3   OH268034   6.124   1.523  14.539  0.3334  0.0815  0.0437
15540TIP3    H168035   6.067   1.500  14.613  1.4987 -0.3571  0.8263
15540TIP3    H268036   6.067   1.514  14.463 -0.4797 -1.0070  0.7401
15541TIP3   OH268037   1.888   1.510   1.554  0.3068 -0.0232  0.3711
15541TIP3    H168038   1.948   1.554   1.614 -0.3759 -1.3767  2.1464
15541TIP3    H268039   1.894   1.417   1.578 -1.0451 -0.4291 -0.7250
15542TIP3   OH268040   2.778   1.208   3.889 -0.2119 -0.1300  0.0631
15542TIP3    H168041   2.711   1.143   3.910 -0.2897 -0.1690 -0.3045
15542TIP3    H268042   2.794   1.198   3.795 -1.3295  1.4144 -0.3312
15543TIP3   OH268043   5.400   2.221  16.432  0.2003 -0.1547 -0.1542
15543TIP3    H168044   5.305   2.217  16.429  0.1409  1.3015 -1.1552
15543TIP3    H268045   5.420   2.294  16.490  0.8645 -2.8784  3.4466
15544TIP3   OH268046   2.331   0.744  16.376  0.2907 -0.0910 -0.8286
15544TIP3    H168047   2.239   0.763  16.396  0.7237  0.5880  0.6725
15544TIP3    H268048   2.338   0.755  16.281 -1.0684  0.3387 -0.8987
15545TIP3   OH268049   5.032   3.128  15.989  0.1372 -0.2286  0.2449
15545TIP3    H168050   5.039   3.203  16.048  1.1275 -0.5010  0.4846
15545TIP3    H268051   4.940   3.126  15.964  0.4165  2.1283 -1.1709
15546TIP3   OH268052   6.587   0.140   1.592 -0.1101 -0.5473 -0.4473
15546TIP3    H168053   6.510   0.111   1.641 -1.2014  2.9013  0.0829
15546TIP3    H268054   6.573   0.104   1.504 -2.1597 -0.3423 -0.2537
15547TIP3   OH268055   5.846   5.264  11.650 -0.2652 -0.8696 -0.0440
15547TIP3    H168056   5.859   5.213  11.729 -2.0398 -1.8505 -0.3394
15547TIP3    H268057   5.754   5.292  11.653 -0.3274 -0.7616 -1.6462
15548TIP3   OH268058   3.419   2.882   1.442 -0.7183 -0.3213 -0.1870
15548TIP3    H168059   3.485   2.921   1.385 -1.0474 -0.9277 -1.0005
15548TIP3    H268060   3.468   2.816   1.492 -0.3382  0.5147  0.5891
15549TIP3   OH268061   2.928   1.312  14.104  0.2130  0.3719 -0.7062
15549TIP3    H168062   2.859   1.248  14.121  0.3549  0.0871 -1.1975
15549TIP3    H268063   2.990   1.267  14.047  0.3693  0.9044 -0.9695
15550TIP3   OH268064   2.971   3.661   5.900  0.5550  0.2186 -0.5517
15550TIP3    H168065   3.058   3.660   5.859  1.3846 -0.3122  1.1401
15550TIP3    H268066   2.986   3.695   5.988 -0.8836 -0.2832 -0.0840
15551TIP3   OH268067   2.524   4.790   2.957 -0.8599 -0.6054 -0.1953
15551TIP3    H168068   2.466   4.789   3.034 -1.2093 -0.5711 -0.4538
15551TIP3    H268069   2.594   4.850   2.981 -2.5943  1.9188 -1.0588
15552TIP3   OH268070   3.361   2.150   2.276 -0.4365 -0.1395  0.5399
15552TIP3    H168071   3.448   2.141   2.236 -0.3200 -2.0012  1.0949
15552TIP3    H268072   3.301   2.159   2.202 -0.1193 -2.5743 -0.1058
15553TIP3   OH268073   4.041   2.032   0.404  0.1587  0.5315  0.4057
15553TIP3    H168074   4.046   2.048   0.309  2.3937 -0.4714  0.2929
15553TIP3    H268075   4.028   2.119   0.442  0.8013  1.1570 -0.7428
15554TIP3   OH268076   3.673   5.359  11.408 -0.0316  0.0611 -0.2474
15554TIP3    H168077   3.726   5.280  11.419 -1.3984 -0.9760 -0.8879
15554TIP3    H268078   3.666   5.395  11.496  1.9551  0.4093 -0.1726
15555TIP3   OH268079   1.299   2.589  15.500  0.0823 -0.3357 -0.0016
15555TIP3    H168080   1.364   2.658  15.509  0.4057 -0.6255 -0.0878
15555TIP3    H268081   1.319   2.528  15.572  0.1604 -0.6277 -0.2687
15556TIP3   OH268082   2.730   4.544   0.584 -0.2264  0.4252 -0.0921
15556TIP3    H168083   2.661   4.594   0.540  0.7331  1.7588 -0.1422
15556TIP3    H268084   2.803   4.544   0.522  0.1757 -0.0869  0.3753
15557TIP3   OH268085   5.914   2.067   2.076  0.0819 -0.5275 -0.2464
15557TIP3    H168086   5.876   2.155   2.067  1.0081 -0.2918 -2.6296
15557TIP3    H268087   5.860   2.012   2.020 -0.2181 -1.4202  0.8917
15558TIP3   OH268088   0.319   2.622  12.248 -0.3768 -0.0512  0.2949
15558TIP3    H168089   0.298   2.538  12.208 -0.2438 -0.4491  1.0422
15558TIP3    H268090   0.374   2.666  12.184 -1.7239  0.1234 -0.7796
15559TIP3   OH268091   6.147   0.145   2.449  0.1110 -0.6006 -0.1241
15559TIP3    H168092   6.241   0.158   2.461 -0.0524  1.9552 -1.1083
15559TIP3    H268093   6.141   0.066   2.395  1.7175 -0.4452 -0.5845
15560TIP3   OH268094   0.231   2.989  11.842 -0.5563 -0.1736 -0.3066
15560TIP3    H168095   0.260   3.026  11.926 -2.0705  0.4504 -0.0177
15560TIP3    H268096   0.308   2.992  11.786  0.5093 -0.6613  1.0807
15561TIP3   OH268097   2.281   4.642  11.311  0.1202  0.1798  0.0784
15561TIP3    H168098   2.295   4.605  11.224 -2.5266  0.8188 -0.7219
15561TIP3    H268099   2.339   4.718  11.315 -0.4691  0.7570 -1.5823
15562TIP3   OH268100   0.871   4.064   0.189 -0.6520  0.3465 -0.6460
15562TIP3    H168101   0.899   4.117   0.115 -0.3775  2.1120  0.6723
15562TIP3    H268102   0.835   4.126   0.252 -0.6103 -1.0583  0.8435
15563TIP3   OH268103   2.611   4.086   2.771 -0.4319 -0.2893 -0.4297
15563TIP3    H168104   2.601   4.081   2.676  1.2814 -0.2558 -0.6427
15563TIP3    H268105   2.703   4.065   2.786 -0.4606  0.6184  1.1605
15564TIP3   OH268106   6.597   4.989  11.553  0.3157  0.3054 -0.0043
15564TIP3    H168107   6.643   4.907  11.573  0.5112  1.0038  2.6803
15564TIP3    H268108   6.514   4.960  11.515  0.5893 -1.1157  0.4189
15565TIP3   OH268109   0.735   1.787   4.952 -0.3459  0.3198  0.5052
15565TIP3    H168110   0.691   1.871   4.963 -1.1132  0.0261 -0.1812
15565TIP3    H268111   0.677   1.724   4.996 -0.7086 -0.0950 -0.5430
15566TIP3   OH268112   5.387   3.428   1.129 -0.7195  0.0251  0.1495
15566TIP3    H168113   5.301   3.470   1.134 -0.8487 -0.1014 -0.8397
15566TIP3    H268114   5.406   3.423   1.035 -0.6121 -1.9051  0.2354
15567TIP3   OH268115   6.098   1.275  15.805  0.5386  0.7967 -0.2246
15567TIP3    H168116   6.079   1.229  15.886  2.3086  1.6053  0.7004
15567TIP3    H268117   6.012   1.291  15.766 -0.2315 -1.6170  0.3090
15568TIP3   OH268118   0.807   5.582  14.514  0.1873 -0.0940  0.1636
15568TIP3    H168119   0.854   5.659  14.482  0.9325 -0.4711  0.3188
15568TIP3    H268120   0.736   5.617  14.567 -1.3725  0.5891 -2.1907
15569TIP3   OH268121   3.709   2.286  12.315  0.0304 -0.3746  0.2762
15569TIP3    H168122   3.615   2.304  12.319 -0.3924 -1.9832 -0.9856
15569TIP3    H268123   3.738   2.289  12.406 -1.2145  0.2540  0.6748
15570TIP3   OH268124   1.126   3.118   6.810 -0.0007  0.4012 -0.0920
15570TIP3    H168125   1.091   3.036   6.845 -1.0155  0.3779 -1.1020
15570TIP3    H268126   1.086   3.186   6.864  1.1020  0.2532  0.9667
15571TIP3   OH268127   5.991   5.705   2.355  0.5036  0.4217  0.0091
15571TIP3    H168128   6.036   5.661   2.427 -1.1409  1.0751  1.5187
15571TIP3    H268129   6.028   5.666   2.276  2.2654 -0.4336  1.1955
15572TIP3   OH268130   5.307   5.534   4.823 -0.3883 -0.1469 -0.5129
15572TIP3    H168131   5.362   5.463   4.790  1.2199  0.5228  0.5698
15572TIP3    H268132   5.336   5.612   4.775 -0.8814  0.1006 -0.4153
15573TIP3   OH268133   5.305   5.774  13.400 -0.0276 -0.8109 -0.1121
15573TIP3    H168134   5.232   5.819  13.357  0.8135  0.8164  0.0695
15573TIP3    H268135   5.263   5.718  13.465 -1.1240  0.4854  0.3585
15574TIP3   OH268136   5.957   3.857  15.191  0.1635  0.1032 -0.1502
15574TIP3    H168137   6.026   3.907  15.233 -0.0461 -0.3427  0.7429
15574TIP3    H268138   5.906   3.922  15.142  1.1258  0.4501 -0.7269
15575TIP3   OH268139   0.659   4.958   2.032  0.3543  0.1115 -0.1311
15575TIP3    H168140   0.648   4.995   2.120  0.6614  0.1779 -0.1215
15575TIP3    H268141   0.614   4.874   2.036 -2.9374  1.6561 -0.9740
15576TIP3   OH268142   0.289   2.959   6.754  0.2507  0.1465  0.0372
15576TIP3    H168143   0.364   2.922   6.801  0.3241  0.0660 -0.1466
15576TIP3    H268144   0.217   2.955   6.818  0.6997  1.3859  0.6600
15577TIP3   OH268145   6.329   0.305   3.682 -0.6353 -0.4741 -0.5786
15577TIP3    H168146   6.396   0.328   3.617  0.5007  0.4461  0.8360
15577TIP3    H268147   6.316   0.211   3.672 -3.6650  0.1116 -4.9661
15578TIP3   OH268148   0.292   6.321  15.434  0.0564  0.3332 -0.6922
15578TIP3    H168149   0.370   6.349  15.388  0.7095  0.1609  0.2753
15578TIP3    H268150   0.303   6.227  15.445  0.6728  0.5705  1.1243
15579TIP3   OH268151   6.174   0.173  12.308 -0.0531 -0.8310  0.2302
15579TIP3    H168152   6.195   0.091  12.263  1.1379 -0.4005 -0.0330
15579TIP3    H268153   6.109   0.216  12.251 -2.2617 -2.4684  1.3666
15580TIP3   OH268154   6.173   4.885   0.803 -0.5417 -0.1436  0.0758
15580TIP3    H168155   6.169   4.882   0.707  0.8120 -0.8690  0.0189
15580TIP3    H268156   6.144   4.974   0.825  1.3185  0.8282 -1.1671
15581TIP3   OH268157   3.805   3.158  15.934 -0.3192 -0.1454  0.0094
15581TIP3    H168158   3.775   3.204  15.855 -0.5968 -1.5462 -0.7489
15581TIP3    H268159   3.848   3.225  15.987 -0.6444  0.9487 -1.0662
15582TIP3   OH268160   4.232   3.725  16.423  0.0597 -0.4043 -0.5076
15582TIP3    H168161   4.253   3.725  16.516  0.8782  2.8030 -0.5948
15582TIP3    H268162   4.137   3.710  16.420  0.1683 -1.5318  0.7245
15583TIP3   OH268163   1.469   1.893  13.697  0.1231 -0.2626 -0.1755
15583TIP3    H168164   1.391   1.946  13.681  0.6968  0.7176  0.1856
15583TIP3    H268165   1.439   1.823  13.755 -0.4964  0.0600 -0.0996
15584TIP3   OH268166   0.706   5.826   2.569  0.0835 -0.3821  0.6722
15584TIP3    H168167   0.739   5.837   2.480 -0.9007 -0.5998  0.2665
15584TIP3    H268168   0.775   5.862   2.625  1.4694 -1.7804 -0.0771
15585TIP3   OH268169   3.851   5.385   0.707  0.6368 -0.2899 -0.4011
15585TIP3    H168170   3.771   5.343   0.739  1.4164  0.3208  2.7337
15585TIP3    H268171   3.822   5.467   0.668 -0.2539  0.7425  2.2160
15586TIP3   OH268172   3.799   2.682  12.762 -0.0456 -0.2048  0.3347
15586TIP3    H168173   3.706   2.661  12.753  0.3871 -2.6013  0.8085
15586TIP3    H268174   3.833   2.615  12.821  1.3700  2.5322  2.9405
15587TIP3   OH268175   1.548   3.666   1.365  0.1361  0.0890 -0.1607
15587TIP3    H168176   1.473   3.711   1.326 -0.0770 -0.1807 -0.0687
15587TIP3    H268177   1.579   3.725   1.433  1.7564  1.4984 -2.0136
15588TIP3   OH268178   2.697   4.907   1.558  0.1349 -0.2479  0.7671
15588TIP3    H168179   2.618   4.862   1.527 -0.2057  1.3865 -0.9364
15588TIP3    H268180   2.765   4.840   1.556 -0.8077 -1.2317  0.4358
15589TIP3   OH268181   4.764   2.915   2.072  0.3161  0.1913 -0.5271
15589TIP3    H168182   4.711   2.854   2.123 -1.9584  0.3713 -2.4879
15589TIP3    H268183   4.753   3.000   2.116  1.3868 -0.2821  0.7175
15590TIP3   OH268184   4.098   1.338   3.193  0.5077 -0.1030 -0.1188
15590TIP3    H168185   4.175   1.332   3.137  0.2979 -1.4450 -0.2859
15590TIP3    H268186   4.133   1.339   3.282  0.7418 -0.1761 -0.2102
15591TIP3   OH268187   5.824   2.900  16.103 -0.2296  0.3537  0.1262
15591TIP3    H168188   5.888   2.913  16.173 -0.9515  2.1196  0.5252
15591TIP3    H268189   5.797   2.989  16.079 -0.6138 -0.2364 -1.8390
15592TIP3   OH268190   6.742   2.111   0.778 -0.2715 -0.1520  0.3518
15592TIP3    H168191   6.683   2.169   0.729 -0.6893 -1.4497 -0.7358
15592TIP3    H268192   6.808   2.170   0.815  0.6064  0.8463 -2.5278
15593TIP3   OH268193   2.288   1.796   4.549  0.2543 -0.3286 -0.6343
15593TIP3    H168194   2.214   1.857   4.550 -1.0901 -1.9125 -0.0200
15593TIP3    H268195   2.333   1.813   4.632  0.2647  0.2303 -0.7444
15594TIP3   OH268196   5.874   1.701  17.068 -0.4241 -0.0053 -0.0251
15594TIP3    H168197   5.889   1.695  16.973 -2.0424  0.5098 -0.3557
15594TIP3    H268198   5.779   1.689  17.077 -0.1631 -1.0313  1.6415
15595TIP3   OH268199   0.562   0.334  11.097  0.5331  0.4840  0.2295
15595TIP3    H168200   0.611   0.297  11.023  1.4073 -1.2352  1.5834
15595TIP3    H268201   0.616   0.314  11.173 -1.0996  0.7869  1.5178
15596TIP3   OH268202   6.223   3.210  16.914 -0.0853  0.4264  1.0005
15596TIP3    H168203   6.149   3.261  16.881  0.8448  1.4305  0.3663
15596TIP3    H268204   6.199   3.186  17.003 -2.3756 -1.7141 -0.0749
15597TIP3   OH268205   5.660   2.318  16.942  0.8790  0.2332 -1.0183
15597TIP3    H168206   5.609   2.239  16.957  0.3864  0.5666 -0.9322
15597TIP3    H268207   5.732   2.312  17.005  0.0998  0.5076 -0.0796
15598TIP3   OH268208   5.699   3.996   1.346  0.9351  0.4984 -0.0277
15598TIP3    H168209   5.632   3.928   1.359 -0.4452  1.8985  0.5618
15598TIP3    H268210   5.702   4.008   1.251  1.0587 -0.2634 -0.1228
15599TIP3   OH268211   0.989   3.441   2.093 -0.4666 -0.5078  0.6072
15599TIP3    H168212   0.894   3.429   2.094 -0.6955  1.0289  0.5119
15599TIP3    H268213   1.019   3.389   2.019 -1.0962 -1.8118  1.2320
15600TIP3   OH268214   1.923   3.244   1.841 -0.1322  0.1859  0.4726
15600TIP3    H168215   1.882   3.163   1.871 -1.1145  0.7860  0.8055
15600TIP3    H268216   1.936   3.230   1.747  1.5625 -1.1145  0.8658
15601TIP3   OH268217   5.327   3.975  15.250  0.7834  0.1247  0.3090
15601TIP3    H168218   5.284   3.890  15.253 -1.5777  1.2274  0.0612
15601TIP3    H268219   5.265   4.034  15.293  2.8231  1.5705  1.4526
15602TIP3   OH268220   5.124   3.060  11.246 -0.0013 -0.1659  0.0467
15602TIP3    H168221   5.113   3.070  11.341  0.0561  0.2499  0.0115
15602TIP3    H268222   5.217   3.045  11.235  0.1162  0.5380  0.0006
15603TIP3   OH268223   0.800   5.135  15.960  0.2140 -0.2754  0.0643
15603TIP3    H168224   0.861   5.139  16.033  0.3625 -0.7740 -0.0229
15603TIP3    H268225   0.812   5.217  15.912  3.3112 -1.7038 -1.9036
15604TIP3   OH268226   2.528   1.707   3.316  0.2787  0.3135 -0.2135
15604TIP3    H168227   2.434   1.702   3.333  0.0189 -1.5337 -1.8531
15604TIP3    H268228   2.569   1.684   3.400 -0.6829  1.6191  0.6512
15605TIP3   OH268229   0.715   3.228   2.671 -0.5012 -0.3054 -0.5101
15605TIP3    H168230   0.768   3.279   2.609 -0.9592  1.5699  0.5537
15605TIP3    H268231   0.714   3.140   2.634 -0.7127  0.6934 -3.1505
15606TIP3   OH268232   4.027   0.035  15.049  0.3299 -0.5479  0.4917
15606TIP3    H168233   3.999   0.125  15.064  1.1843 -0.2251  0.2473
15606TIP3    H268234   4.006   0.019  14.957 -1.7459 -1.3401  1.0552
15607TIP3   OH268235   4.727   0.161  12.972  0.5051  0.1816 -0.4650
15607TIP3    H168236   4.778   0.242  12.961 -0.9196  0.9421 -1.8904
15607TIP3    H268237   4.760   0.123  13.053  0.0659  3.1011  1.2278
15608TIP3   OH268238   5.906   5.245  16.581  0.0216  0.0628 -0.3388
15608TIP3    H168239   5.868   5.159  16.563  0.4509  0.1511 -1.7930
15608TIP3    H268240   5.997   5.238  16.553  0.0860  0.9542 -0.3849
15609TIP3   OH268241   4.327   2.481   4.657  0.7545  0.4317 -0.4270
15609TIP3    H168242   4.417   2.463   4.682  0.6301 -1.2158 -1.0190
15609TIP3    H268243   4.274   2.429   4.717  0.2454  0.5959 -0.7188
15610TIP3   OH268244   2.697   3.827  13.779  0.2971  0.1293 -0.6894
15610TIP3    H168245   2.628   3.798  13.839  0.6095  1.2821  0.2492
15610TIP3    H268246   2.764   3.867  13.836 -0.0348  2.5284 -1.8692
15611TIP3   OH268247   5.443   5.678  13.171  0.4771 -0.3172  0.1187
15611TIP3    H168248   5.403   5.723  13.245 -1.3601  0.1436 -1.0971
15611TIP3    H268249   5.480   5.748  13.117  0.3741 -0.5150 -0.2135
15612TIP3   OH268250   2.041   5.198   0.728  0.6187 -0.2462 -0.9703
15612TIP3    H168251   2.109   5.231   0.786 -0.8324 -3.2890  2.8399
15612TIP3    H268252   1.962   5.243   0.757  0.0446 -1.0044 -1.3362
15613TIP3   OH268253   0.364   5.491  11.086 -0.7573 -0.1456  0.0695
15613TIP3    H168254   0.327   5.406  11.062  0.8818 -0.9245  0.1683
15613TIP3    H268255   0.354   5.544  11.007 -1.2319 -0.6256 -0.2030
15614TIP3   OH268256   3.318   2.991  13.280  0.1672  0.0411  0.2457
15614TIP3    H168257   3.281   2.951  13.358  1.7885 -0.7132  0.6620
15614TIP3    H268258   3.400   2.945  13.266  0.7805  1.3994 -0.8499
15615TIP3   OH268259   2.459   5.853   1.740 -0.0063 -0.0260  0.3001
15615TIP3    H168260   2.386   5.893   1.787  0.2872  1.5228 -0.5186
15615TIP3    H268261   2.417   5.795   1.676 -0.4149 -2.0544  2.2598
15616TIP3   OH268262   2.944   6.205   1.700 -0.1973 -0.1374 -0.5472
15616TIP3    H168263   2.879   6.274   1.706  0.4024  0.3439  1.0272
15616TIP3    H268264   2.975   6.194   1.790 -0.1149 -2.3022 -0.7889
15617TIP3   OH268265   1.609   0.169   0.573 -0.2796 -0.2208  0.4080
15617TIP3    H168266   1.570   0.082   0.586 -1.4120  0.0678 -0.8251
15617TIP3    H268267   1.696   0.151   0.539 -0.5223 -0.8893  0.1222
15618TIP3   OH268268   0.825   4.033   5.565  0.1811  0.2109 -0.0900
15618TIP3    H168269   0.791   3.947   5.588 -1.0320  0.3675 -1.2174
15618TIP3    H268270   0.834   4.078   5.649 -1.5167 -0.1764  0.3317
15619TIP3   OH268271   5.093   2.364  11.433 -0.3963  0.4034  0.0897
15619TIP3    H168272   5.130   2.387  11.347 -1.5141  3.2359  0.2707
15619TIP3    H268273   5.146   2.414  11.495 -1.3326  0.5257  0.7988
15620TIP3   OH268274   5.652   6.774   0.043 -0.3479 -0.2236 -0.1140
15620TIP3    H168275   5.745   6.757   0.056 -0.9862 -2.9848  1.5157
15620TIP3    H268276   5.637   6.858   0.087  1.8810  2.1023 -3.3429
15621TIP3   OH268277   6.281   6.552  11.524 -0.4221  0.0724  0.6482
15621TIP3    H168278   6.359   6.500  11.538  0.2016  0.9242  0.4551
15621TIP3    H268279   6.301   6.604  11.446 -1.7589 -0.7647 -0.2896
15622TIP3   OH268280   5.127   5.791   4.537 -0.3151  0.4464  0.0950
15622TIP3    H168281   5.086   5.752   4.614  0.0401  0.0701  0.0982
15622TIP3    H268282   5.079   5.754   4.463  0.6553 -0.7594  0.0601
15623TIP3   OH268283   5.078   6.021   2.571 -0.0467  0.3577 -0.2741
15623TIP3    H168284   5.120   6.011   2.656  1.6346 -2.5584 -1.2875
15623TIP3    H268285   5.144   6.066   2.517 -0.9026  1.7351 -0.2306
15624TIP3   OH268286   0.200   5.921   2.434  0.1186 -0.7914  0.7790
15624TIP3    H168287   0.194   5.837   2.480  0.3574  0.2308  2.8093
15624TIP3    H268288   0.246   5.978   2.495  0.7852  0.5814 -0.9327
15625TIP3   OH268289   3.308   5.331   4.618 -0.0951 -0.4676  0.2242
15625TIP3    H168290   3.233   5.333   4.558  1.1662 -2.0296 -1.4976
15625TIP3    H268291   3.312   5.241   4.649  0.8101 -0.2869  0.6624
15626TIP3   OH268292   2.214   6.272   6.462  0.5952 -0.0523 -0.2079
15626TIP3    H168293   2.258   6.221   6.531  1.9153  1.1255 -0.1253
15626TIP3    H268294   2.184   6.351   6.507 -2.2364 -1.0490 -0.1301
15627TIP3   OH268295   3.867   2.189  12.104  0.4365 -0.3052  0.1671
15627TIP3    H168296   3.872   2.098  12.074 -0.9146 -0.4464  0.3076
15627TIP3    H268297   3.817   2.184  12.186  1.3471  0.4445  0.7982
15628TIP3   OH268298   4.247   1.558   5.789  0.5200 -0.2276  0.4264
15628TIP3    H168299   4.320   1.592   5.840  0.7232 -1.8749  1.3036
15628TIP3    H268300   4.219   1.631   5.734  0.2473  1.6578  2.9304
15629TIP3   OH268301   6.367   1.551   1.744 -0.0097  0.1547 -0.0866
15629TIP3    H168302   6.309   1.599   1.803 -0.4414  1.2663 -1.3467
15629TIP3    H268303   6.434   1.513   1.800 -0.6301  0.8392  1.1472
15630TIP3   OH268304   0.771   3.804  15.004 -0.6016  0.2591 -0.1637
15630TIP3    H168305   0.736   3.811  15.093  0.4393  0.9573  0.2068
15630TIP3    H268306   0.850   3.857  15.005  0.1917 -0.8424 -1.1253
15631TIP3   OH268307   0.935   1.880  12.899 -0.7387 -0.2247 -0.1245
15631TIP3    H168308   0.991   1.860  12.824  1.2942  0.6037  1.0991
15631TIP3    H268309   0.917   1.795  12.938  1.5532 -0.3981  0.7013
15632TIP3   OH268310   5.460   0.059  16.796 -0.2975  0.0498 -0.7689
15632TIP3    H168311   5.384   0.011  16.828 -0.2106  0.7251  0.4914
15632TIP3    H268312   5.477   0.125  16.863  1.7069 -0.4170 -0.7642
15633TIP3   OH268313   4.794   2.692   5.900 -0.1398  0.0524 -0.1660
15633TIP3    H168314   4.742   2.619   5.934 -2.1806  0.4326 -2.2575
15633TIP3    H268315   4.730   2.750   5.857  1.5181  2.6126  0.5582
15634TIP3   OH268316   3.069   1.158   1.921 -0.1100 -0.2518 -0.0035
15634TIP3    H168317   3.009   1.085   1.908 -0.2997  0.0187 -0.6444
15634TIP3    H268318   3.108   1.173   1.835 -0.5583  0.8293 -0.0257
15635TIP3   OH268319   0.577   5.805   1.280 -0.1482 -0.0699 -0.1191
15635TIP3    H168320   0.569   5.859   1.202 -0.1917 -1.2791 -0.9882
15635TIP3    H268321   0.499   5.749   1.278 -0.3121  0.1023  0.9726
15636TIP3   OH268322   1.357   4.685   2.119  0.2102  0.0182  0.3930
15636TIP3    H168323   1.266   4.657   2.117  0.2523 -0.1987  1.0414
15636TIP3    H268324   1.390   4.651   2.202  1.2156 -0.9259 -0.3653
15637TIP3   OH268325   2.936   2.418   3.747  0.8224  0.2618  0.4984
15637TIP3    H168326   3.027   2.421   3.717 -0.2482  0.1038 -3.3216
15637TIP3    H268327   2.902   2.336   3.712 -0.9302  0.5700  1.3807
15638TIP3   OH268328   3.249   5.304  13.887 -0.2533 -0.1148 -0.0274
15638TIP3    H168329   3.227   5.229  13.942 -0.8748 -0.3324 -0.5597
15638TIP3    H268330   3.268   5.266  13.801 -0.6006  0.3336 -0.3086
15639TIP3   OH268331   0.047   1.275   4.883 -0.1482 -0.1596 -0.6819
15639TIP3    H168332   0.120   1.233   4.837 -0.2866 -3.0295  1.4833
15639TIP3    H268333   0.083   1.297   4.969 -1.2758  0.4569 -0.3453
15640TIP3   OH268334   5.045   5.290  15.168  0.1569 -0.0029  0.0849
15640TIP3    H168335   5.108   5.251  15.108 -1.1559 -2.2248  0.0177
15640TIP3    H268336   5.047   5.233  15.245 -1.5873 -0.0226  0.1625
15641TIP3   OH268337   4.606   6.238  14.550  0.1532 -0.5459  0.0303
15641TIP3    H168338   4.542   6.217  14.482 -0.9306  1.5608  0.3222
15641TIP3    H268339   4.685   6.192  14.523 -0.2586  0.1253 -2.6365
15642TIP3   OH268340   6.256   5.827  14.703 -0.1069 -0.6511  0.3519
15642TIP3    H168341   6.233   5.890  14.771 -0.1546 -1.1722  0.8228
15642TIP3    H268342   6.177   5.817  14.651 -0.2827 -0.7819  0.6438
15643TIP3   OH268343   2.625   0.366  12.273 -0.1266  0.3207  0.4935
15643TIP3    H168344   2.546   0.376  12.326  0.3552  1.1211  1.0803
15643TIP3    H268345   2.611   0.423  12.198  0.1292  0.9189  0.8911
15644TIP3   OH268346   6.638   3.281  14.136  0.1707  0.2664  0.5142
15644TIP3    H168347   6.708   3.238  14.185 -0.0599 -0.4540  0.2192
15644TIP3    H268348   6.646   3.373  14.159 -0.2550 -0.1155  2.3121
15645TIP3   OH268349   3.348   0.923   1.598  0.4312  0.1244  0.2679
15645TIP3    H168350   3.336   0.845   1.545 -0.9700  1.1824 -1.0312
15645TIP3    H268351   3.408   0.978   1.548 -0.1760  0.7345  0.1885
15646TIP3   OH268352   6.476   0.035   2.029  0.7724 -0.0010  0.9443
15646TIP3    H168353   6.406  -0.009   1.980  1.3624 -1.0323  0.9927
15646TIP3    H268354   6.484   0.121   1.988  0.2921 -0.3214  0.1595
15647TIP3   OH268355   0.580   3.512   4.334 -0.6928  0.2987  0.1594
15647TIP3    H168356   0.579   3.445   4.265 -1.8921  0.0042  0.4438
15647TIP3    H268357   0.649   3.483   4.394 -0.8707 -0.4349  0.0262
15648TIP3   OH268358   6.220   3.420  16.230 -0.6116 -0.8126  0.0062
15648TIP3    H168359   6.163   3.386  16.298 -0.9976 -2.6678 -1.1620
15648TIP3    H268360   6.308   3.389  16.253  0.0548  1.9857  1.7681
15649TIP3   OH268361   4.003   0.304  13.194  0.0566 -0.5996  0.3635
15649TIP3    H168362   3.964   0.311  13.281 -2.6721 -0.4063 -0.7759
15649TIP3    H268363   4.063   0.378  13.188  1.3273 -1.3602  2.5023
15650TIP3   OH268364   1.266   0.539  16.154  0.8472  0.3769 -0.0340
15650TIP3    H168365   1.208   0.614  16.143 -0.3425 -0.1219  2.2119
15650TIP3    H268366   1.324   0.542  16.078 -1.0299  1.8683 -1.5019
15651TIP3   OH268367   3.105   2.740  11.742  0.6718 -0.6540 -0.4906
15651TIP3    H168368   3.070   2.725  11.654  0.7112 -0.6913 -0.5000
15651TIP3    H268369   3.139   2.654  11.769 -0.6249 -1.0023  0.1378
15652TIP3   OH268370   1.056   3.875   0.315 -0.2042  0.1433 -0.2874
15652TIP3    H168371   0.977   3.929   0.306  0.3986  0.9583 -0.7509
15652TIP3    H268372   1.069   3.837   0.228 -0.1094 -0.0421 -0.1935
15653TIP3   OH268373   0.039   5.034  13.211 -0.3842 -0.5281  0.3762
15653TIP3    H168374   0.035   4.999  13.300  0.7348 -0.2781  0.5414
15653TIP3    H268375   0.129   5.066  13.202 -0.9263  0.8875 -0.3009
15654TIP3   OH268376   1.437   2.958  15.271 -0.1604  0.4145  1.0334
15654TIP3    H168377   1.356   2.941  15.319 -0.9287 -1.1622 -0.7035
15654TIP3    H268378   1.506   2.918  15.324 -1.0089 -1.4754  0.7638
15655TIP3   OH268379   6.178   2.865  12.249 -0.3675  0.4953  0.0106
15655TIP3    H168380   6.176   2.781  12.202 -1.3093 -0.1660  1.1858
15655TIP3    H268381   6.216   2.926  12.186  2.1511 -1.1865 -0.2602
15656TIP3   OH268382   6.047   0.878   2.379 -0.6567 -0.0167  0.0002
15656TIP3    H168383   6.012   0.955   2.424 -0.7321  0.0232 -0.1278
15656TIP3    H268384   6.106   0.913   2.312  1.5234 -0.1192  1.7497
15657TIP3   OH268385   0.245   3.802  10.948 -0.6469  0.1058 -0.0174
15657TIP3    H168386   0.286   3.716  10.953  0.8340  0.8110  0.7161
15657TIP3    H268387   0.217   3.810  10.857  0.9620 -0.3956 -0.5934
15658TIP3   OH268388   1.425   3.243  13.518 -0.0936  0.3751 -0.0010
15658TIP3    H168389   1.339   3.213  13.549  0.0787  1.6964  1.9336
15658TIP3    H268390   1.407   3.327  13.476 -0.1772 -0.9588 -2.8663
15659TIP3   OH268391   2.216   3.640   0.112  0.0125  0.4500  0.9033
15659TIP3    H168392   2.154   3.569   0.100  1.0569 -0.3363 -0.0408
15659TIP3    H268393   2.243   3.634   0.203  0.2265 -0.4962  0.7894
15660TIP3   OH268394   0.056   1.974   6.114  0.1128 -0.1389 -0.3656
15660TIP3    H168395   0.086   1.899   6.165  0.7036  0.6922  0.5722
15660TIP3    H268396   0.134   2.028   6.102 -0.2787  0.2883 -1.0852
15661TIP3   OH268397   6.099   0.980   2.691  0.1741 -0.4159  0.0336
15661TIP3    H168398   6.034   1.045   2.663  0.0486 -0.7826 -0.5670
15661TIP3    H268399   6.171   0.989   2.628  0.3834 -0.5054  0.2581
15662TIP3   OH268400   4.682   2.387  13.408 -0.3775 -0.2765  0.3241
15662TIP3    H168401   4.728   2.396  13.492 -0.9959  0.6636  0.5772
15662TIP3    H268402   4.735   2.437  13.346 -0.2047 -0.5248  0.2731
15663TIP3   OH268403   1.770   3.366   0.168 -0.3735 -0.3927 -0.1995
15663TIP3    H168404   1.740   3.332   0.083 -0.6618 -0.7033  0.0233
15663TIP3    H268405   1.730   3.307   0.232 -2.4465  1.4449  0.3116
15664TIP3   OH268406   2.271   6.741  11.458  0.2487  0.1602 -0.3957
15664TIP3    H168407   2.298   6.649  11.453  0.1773  0.1062  0.1121
15664TIP3    H268408   2.232   6.759  11.373 -2.2349 -1.0904  0.3586
15665TIP3   OH268409   2.915   3.409   2.558 -0.1777 -0.0487  0.3468
15665TIP3    H168410   3.006   3.392   2.536 -0.3054  1.7109 -1.8561
15665TIP3    H268411   2.878   3.322   2.577  1.6603 -0.9053  0.1900
15666TIP3   OH268412   5.510   6.672  14.253 -0.5922  0.5319  0.0255
15666TIP3    H168413   5.579   6.610  14.232  0.3891  1.2802  0.9682
15666TIP3    H268414   5.459   6.629  14.321  0.5883  1.0600  1.2870
15667TIP3   OH268415   1.444   0.403  14.187  0.4038  0.0012 -0.0921
15667TIP3    H168416   1.433   0.488  14.229  0.9470  0.8829 -1.6208
15667TIP3    H268417   1.500   0.353  14.247  0.9561  1.1117  0.3490
15668TIP3   OH268418   5.211   2.921   0.749 -0.1857 -0.3810 -0.0127
15668TIP3    H168419   5.290   2.971   0.727 -0.2486 -0.8925 -1.5138
15668TIP3    H268420   5.217   2.908   0.844  0.0967  1.9895  0.3619
15669TIP3   OH268421   4.563   3.827   1.794  0.3435 -0.4221  0.6453
15669TIP3    H168422   4.494   3.889   1.817  0.9095  0.8202 -0.8632
15669TIP3    H268423   4.621   3.827   1.871  0.4372  1.0960  0.6119
15670TIP3   OH268424   2.339   5.482   2.971 -0.0831  0.2698 -0.5163
15670TIP3    H168425   2.405   5.450   2.910  0.6677 -1.1815  0.9496
15670TIP3    H268426   2.389   5.509   3.048 -1.0765  0.7620 -0.0208
15671TIP3   OH268427   3.449   3.374  11.421  0.4875  0.0930 -0.3532
15671TIP3    H168428   3.432   3.344  11.332  0.9623  0.8291 -0.6975
15671TIP3    H268429   3.432   3.297  11.476 -0.0932 -0.2821 -1.0436
15672TIP3   OH268430   6.584   4.710   2.779 -0.1188 -0.3609  0.0857
15672TIP3    H168431   6.621   4.622   2.794 -1.4441 -0.6979  1.6989
15672TIP3    H268432   6.599   4.727   2.686  2.0756 -1.3773  0.1931
15673TIP3   OH268433   1.403   5.685   5.402  0.0578  0.0944 -0.1317
15673TIP3    H168434   1.313   5.655   5.394  0.9067 -2.0723 -4.0389
15673TIP3    H268435   1.396   5.774   5.437 -3.7259  0.6859 -1.9113
15674TIP3   OH268436   5.449   1.362   0.590 -0.0471 -0.0643  0.2521
15674TIP3    H168437   5.439   1.456   0.573  0.1036 -0.1988 -0.6590
15674TIP3    H268438   5.467   1.356   0.684  0.4902  0.8635  0.2222
15675TIP3   OH268439   2.310   3.277   3.672  0.3757  0.3089 -0.0159
15675TIP3    H168440   2.247   3.342   3.641 -1.9375 -2.2343 -1.1106
15675TIP3    H268441   2.320   3.217   3.598  2.6902 -0.4184  0.8076
15676TIP3   OH268442   5.816   5.044  17.203  0.2455  0.7059  0.2818
15676TIP3    H168443   5.804   5.133  17.235 -0.1718  0.2298  1.5102
15676TIP3    H268444   5.841   5.054  17.111  1.5214  2.1314  0.7478
15677TIP3   OH268445   3.341   3.020   5.667  0.5259 -0.1999  0.3894
15677TIP3    H168446   3.389   3.058   5.594  1.1875  1.7333  1.7410
15677TIP3    H268447   3.405   3.019   5.739 -0.6787 -0.1060  1.4937
15678TIP3   OH268448   2.175   1.587  12.913 -0.2098  0.2868  0.1962
15678TIP3    H168449   2.087   1.582  12.952 -0.3445  0.6780 -0.0579
15678TIP3    H268450   2.175   1.670  12.865  0.2398  0.1999  0.0497
15679TIP3   OH268451   6.164   6.644  14.247  0.0078  0.0502  0.6715
15679TIP3    H168452   6.131   6.580  14.310 -0.0822 -0.0750  0.4979
15679TIP3    H268453   6.141   6.729  14.286  0.7699  0.0011  1.2477
15680TIP3   OH268454   4.993   6.295   6.021  0.4270 -0.1133 -0.4521
15680TIP3    H168455   5.005   6.309   6.115  1.3693  0.0056 -0.5868
15680TIP3    H268456   4.899   6.281   6.012  0.1310  1.1167  0.3499
15681TIP3   OH268457   4.070   0.327   3.437  0.6531  0.3370 -0.1006
15681TIP3    H168458   4.110   0.411   3.414  1.0266  0.2315  0.1436
15681TIP3    H268459   4.090   0.270   3.363  1.4840  0.1172  0.2785
15682TIP3   OH268460   2.003   2.682   1.640  0.2670  0.1846  0.0592
15682TIP3    H168461   2.063   2.746   1.602  0.8980 -0.4041  0.0451
15682TIP3    H268462   2.060   2.614   1.677 -0.3912 -0.8979 -0.8344
15683TIP3   OH268463   2.876   0.094   2.166  0.2066 -0.0913 -0.0997
15683TIP3    H168464   2.872   0.105   2.261  0.7285 -0.2977 -0.0488
15683TIP3    H268465   2.788   0.115   2.136  0.4953  1.8837  0.2417
15684TIP3   OH268466   4.541   5.640  11.004 -0.2076 -0.0633 -0.3578
15684TIP3    H168467   4.517   5.644  11.096 -1.0567  1.4940 -0.6108
15684TIP3    H268468   4.632   5.611  11.004 -0.1650  0.0291  0.9699
15685TIP3   OH268469   6.692   0.820  16.377  0.2897  0.3872 -0.1263
15685TIP3    H168470   6.710   0.892  16.436  0.1415  0.5004 -0.2184
15685TIP3    H268471   6.723   0.742  16.423 -0.1255  0.4359  0.2434
15686TIP3   OH268472   2.109   0.582   6.252  0.0967 -0.8723  0.2918
15686TIP3    H168473   2.164   0.618   6.321  1.5779 -1.8091 -0.3588
15686TIP3    H268474   2.026   0.563   6.296  0.6641 -0.5203  1.5723
15687TIP3   OH268475   4.568   0.557   1.563  0.2478  0.3925  0.0402
15687TIP3    H168476   4.508   0.562   1.488 -0.2591 -3.2409  0.0583
15687TIP3    H268477   4.642   0.505   1.531  1.0093  0.5033  1.5196
15688TIP3   OH268478   4.058   3.248   2.137 -0.5827 -0.0257  0.5530
15688TIP3    H168479   4.077   3.154   2.128  0.5571  0.3017 -0.9212
15688TIP3    H268480   4.126   3.280   2.197 -0.4784  0.0039  0.4182
15689TIP3   OH268481   2.975   0.331  14.353 -0.3951 -0.6361 -0.3225
15689TIP3    H168482   2.937   0.289  14.430 -0.8365 -1.2458 -0.8593
15689TIP3    H268483   2.926   0.294  14.279 -0.0854  0.0497 -0.8841
15690TIP3   OH268484   0.283   1.623  13.126  0.7286  0.3809 -0.1122
15690TIP3    H168485   0.341   1.574  13.068  0.6244  0.5926 -0.3968
15690TIP3    H268486   0.325   1.619  13.212  1.0719  0.3841 -0.2811
15691TIP3   OH268487   3.770   1.155   0.427 -0.0934  0.2379 -0.7952
15691TIP3    H168488   3.705   1.177   0.494  0.5761 -0.3625  0.0791
15691TIP3    H268489   3.723   1.098   0.366 -0.3002 -0.5165  0.0461
15692TIP3   OH268490   2.356   0.274   0.031 -0.0800  0.5178  0.3989
15692TIP3    H168491   2.324   0.345   0.087  2.5861  1.6554  0.6194
15692TIP3    H268492   2.393   0.210   0.092  1.6147  1.1331  0.0765
15693TIP3   OH268493   4.556   6.639   3.741  0.7882  0.4937 -0.1791
15693TIP3    H168494   4.515   6.725   3.742  1.9535  1.0767 -0.6787
15693TIP3    H268495   4.495   6.584   3.693 -1.0599  0.4339  2.0524
15694TIP3   OH268496   2.305   1.004  13.128  0.0092  0.1047  0.7502
15694TIP3    H168497   2.221   0.973  13.093 -0.5262 -0.0751  2.1443
15694TIP3    H268498   2.310   1.096  13.102 -1.0713  0.3784  1.4619
15695TIP3   OH268499   5.594   2.248  14.302  0.1406 -0.0283  0.2969
15695TIP3    H168500   5.675   2.245  14.354  1.3283 -1.0447 -1.4679
15695TIP3    H268501   5.528   2.205  14.357  1.4812 -1.5987  0.7799
15696TIP3   OH268502   1.518   1.670   3.893  0.1896  0.4463  0.0642
15696TIP3    H168503   1.571   1.717   3.828  0.6950  1.0126  0.8629
15696TIP3    H268504   1.579   1.610   3.935 -0.2012 -0.1238 -0.1773
15697TIP3   OH268505   6.746   0.458   2.410  0.6225 -0.3214  0.1452
15697TIP3    H168506   6.783   0.423   2.492  0.1425 -1.5453 -0.1452
15697TIP3    H268507   6.795   0.414   2.341  0.5028  0.1363 -0.2374
15698TIP3   OH268508   5.994   3.724  15.567 -0.2880  0.5424  0.0939
15698TIP3    H168509   6.082   3.721  15.604 -0.3808 -0.0956  0.2760
15698TIP3    H268510   5.954   3.640  15.592  0.2262 -0.6875 -2.8153
15699TIP3   OH268511   1.617   3.947  15.824 -0.0492  0.1695 -0.1159
15699TIP3    H168512   1.702   3.990  15.832  0.8454 -1.1254 -1.8581
15699TIP3    H268513   1.639   3.857  15.799 -1.9234 -0.3343 -0.0453
15700TIP3   OH268514   5.420   3.654   5.122 -0.6337  0.6336  0.4467
15700TIP3    H168515   5.463   3.721   5.175 -2.0690  1.4828  0.5935
15700TIP3    H268516   5.415   3.578   5.180  1.3271  0.2315  0.1558
15701TIP3   OH268517   5.949   1.182   2.546  0.1891 -0.1720 -0.5863
15701TIP3    H168518   5.913   1.184   2.458 -1.2424  0.6030 -0.0259
15701TIP3    H268519   6.021   1.245   2.544 -0.7897  0.9806 -0.8464
15702TIP3   OH268520   3.301   3.689  10.655  0.0829 -0.4738 -0.6261
15702TIP3    H168521   3.235   3.757  10.638 -1.2725 -1.7814 -0.8008
15702TIP3    H268522   3.381   3.738  10.672 -0.8555  1.1769 -0.6911
15703TIP3   OH268523   4.595   0.125  14.339 -0.2344  0.3724  0.0705
15703TIP3    H168524   4.663   0.090  14.397  0.2744  1.7588  0.3485
15703TIP3    H268525   4.517   0.131  14.395 -0.8807 -1.9682 -0.4490
15704TIP3   OH268526   4.845   6.419  12.314 -0.5632 -0.4072 -0.4156
15704TIP3    H168527   4.800   6.336  12.332  0.3660 -1.2034 -1.6078
15704TIP3    H268528   4.862   6.456  12.400 -1.3255 -1.2789  0.1295
15705TIP3   OH268529   5.176   5.414  11.273  0.1506  0.9326 -0.3083
15705TIP3    H168530   5.098   5.457  11.239  0.4841  0.8120 -1.2373
15705TIP3    H268531   5.175   5.434  11.367 -0.6147  1.5190 -0.4342
15706TIP3   OH268532   3.913   1.403  13.543 -0.2945  0.5782 -0.1626
15706TIP3    H168533   3.923   1.411  13.638  0.8768  1.1329 -0.3167
15706TIP3    H268534   3.841   1.462  13.521 -1.0340 -0.0739  0.4558
15707TIP3   OH268535   4.084   2.982  15.948  0.6408 -0.3186  0.3695
15707TIP3    H168536   4.137   3.049  15.905 -1.0683  1.4377  0.7997
15707TIP3    H268537   3.998   2.990  15.906  1.1378 -4.7499 -2.0870
15708TIP3   OH268538   1.754   4.830  11.975 -0.2517 -0.2985 -0.5449
15708TIP3    H168539   1.711   4.906  12.016 -0.2086 -1.6947  2.3787
15708TIP3    H268540   1.688   4.796  11.914 -0.3234  1.9267 -1.8141
15709TIP3   OH268541   5.823   1.811  10.687 -0.6336  0.7325  0.4085
15709TIP3    H168542   5.767   1.833  10.612 -0.2079  1.5465  0.3146
15709TIP3    H268543   5.838   1.895  10.730 -1.4295  0.1851  1.8076
15710TIP3   OH268544   2.343   2.054  11.390  0.0941 -0.0486  0.0490
15710TIP3    H168545   2.428   2.020  11.418  1.1643  0.8976 -1.8580
15710TIP3    H268546   2.364   2.117  11.320 -2.2072 -0.1346 -0.7998
15711TIP3   OH268547   3.254   3.757   5.436 -0.6061  0.0128 -0.7196
15711TIP3    H168548   3.317   3.772   5.366  1.0650 -2.0190  0.2059
15711TIP3    H268549   3.271   3.667   5.465 -1.4653  0.6118  2.0259
15712TIP3   OH268550   2.968   3.468   3.865 -0.3606  0.5872  0.5753
15712TIP3    H168551   3.013   3.547   3.833 -1.7385  1.1301 -0.0938
15712TIP3    H268552   2.922   3.496   3.944 -0.5715  0.3632  0.5327
15713TIP3   OH268553   2.787   1.893   1.115 -0.0747  0.4403  0.0785
15713TIP3    H168554   2.760   1.831   1.047 -0.8478  0.9892 -0.1351
15713TIP3    H268555   2.792   1.840   1.195 -0.4431  0.0483 -0.1544
15714TIP3   OH268556   1.282   0.854  12.643 -0.3654 -0.4037 -0.3377
15714TIP3    H168557   1.259   0.843  12.735  0.1141  0.2485 -0.1308
15714TIP3    H268558   1.347   0.786  12.626 -0.8915 -0.9139 -0.3688
15715TIP3   OH268559   0.968   0.302  15.321 -1.0338 -0.1065 -0.0181
15715TIP3    H168560   1.041   0.341  15.369  0.0932 -1.4901 -0.5395
15715TIP3    H268561   0.950   0.220  15.367  0.6195 -1.8905 -2.2824
15716TIP3   OH268562   3.471   5.859  13.657 -0.2995 -0.3148 -0.4617
15716TIP3    H168563   3.474   5.888  13.748 -0.0786 -2.9681  0.4916
15716TIP3    H268564   3.562   5.859  13.628 -0.2772 -0.2373 -0.3904
15717TIP3   OH268565   1.817   5.147   4.207  0.3198 -0.0793 -0.0510
15717TIP3    H168566   1.750   5.132   4.274  1.3446 -0.4402  0.9303
15717TIP3    H268567   1.795   5.087   4.136 -0.0007 -0.6988  0.5612
15718TIP3   OH268568   2.317   2.483   5.574  0.0108  0.3434  0.1437
15718TIP3    H168569   2.267   2.562   5.554  0.8662  0.8684  0.0115
15718TIP3    H268570   2.325   2.437   5.491  0.9629  0.9907 -0.1420
15719TIP3   OH268571   6.705   6.751   4.758  0.2677 -0.5668  0.3251
15719TIP3    H168572   6.646   6.685   4.722  0.7535  0.0621 -1.7391
15719TIP3    H268573   6.715   6.816   4.688  2.0014  0.2655  1.2652
15720TIP3   OH268574   0.100   1.416  12.723  0.3323  0.0159 -0.6764
15720TIP3    H168575   0.026   1.416  12.663 -0.3707  0.8860  0.1504
15720TIP3    H268576   0.127   1.507  12.729 -0.2616  0.1170  1.0684
15721TIP3   OH268577   1.573   6.460  12.925  0.2181  0.2208 -0.0787
15721TIP3    H168578   1.614   6.465  12.838  0.2411  1.7261 -0.0052
15721TIP3    H268579   1.482   6.437  12.907  0.2690  0.3261 -0.4993
15722TIP3   OH268580   0.724   4.974  16.964  0.3418  0.7699  0.3384
15722TIP3    H168581   0.648   5.028  16.943  0.2570  0.1811 -0.9382
15722TIP3    H268582   0.741   4.924  16.885  0.8063 -0.6263  1.2869
15723TIP3   OH268583   0.391   3.561  16.148 -0.6504  0.3564 -0.1290
15723TIP3    H168584   0.379   3.581  16.055 -1.4380  2.2767  0.3258
15723TIP3    H268585   0.397   3.647  16.190  1.8321 -0.4262  1.3686
15724TIP3   OH268586   5.874   6.630  13.532  0.2070  0.0541 -0.2003
15724TIP3    H168587   5.914   6.543  13.538  0.2773  0.1552  1.0533
15724TIP3    H268588   5.823   6.627  13.451 -0.9282 -1.6408  0.5107
15725TIP3   OH268589   5.312   4.431  11.641 -0.7346  0.1812 -1.4041
15725TIP3    H168590   5.284   4.484  11.715  0.3430  0.1053 -0.9160
15725TIP3    H268591   5.237   4.430  11.581 -1.8393 -0.2606 -0.0474
15726TIP3   OH268592   4.623   4.692   6.023  0.2034  0.2815 -0.0107
15726TIP3    H168593   4.537   4.654   6.007 -0.1272  0.7326  0.6559
15726TIP3    H268594   4.627   4.705   6.118  2.0381 -2.1657  0.3454
15727TIP3   OH268595   4.351   4.489   0.838 -0.1798  0.0289 -0.5393
15727TIP3    H168596   4.306   4.571   0.858 -0.5715  0.2675 -2.2725
15727TIP3    H268597   4.289   4.421   0.865 -1.5264  0.3564 -2.6051
15728TIP3   OH268598   1.859   0.751   2.295  0.1104 -0.5037 -0.1044
15728TIP3    H168599   1.780   0.803   2.308 -0.7716 -1.4794 -1.2723
15728TIP3    H268600   1.896   0.783   2.213  0.0801 -1.0691 -0.3446
15729TIP3   OH268601   2.995   1.759   0.799 -0.4475  0.6710  0.2422
15729TIP3    H168602   2.916   1.724   0.841 -0.6795  0.7365 -0.1316
15729TIP3    H268603   3.015   1.697   0.729  0.3467  0.1861  0.8789
15730TIP3   OH268604   4.868   5.060  14.148  0.5755  0.7248  0.2997
15730TIP3    H168605   4.935   5.028  14.087 -0.9061 -0.2667 -0.8607
15730TIP3    H268606   4.805   5.106  14.092  0.2960  1.6681  1.3751
15731TIP3   OH268607   1.565   4.231  16.348 -0.0581  0.1714  0.0900
15731TIP3    H168608   1.504   4.298  16.317  0.6348  0.6081 -0.3852
15731TIP3    H268609   1.611   4.203  16.269  0.5577  0.0630  0.4825
15732TIP3   OH268610   6.004   5.806   5.772  0.0650 -0.0904 -0.3202
15732TIP3    H168611   6.068   5.746   5.810  0.8983 -0.0819 -1.6215
15732TIP3    H268612   5.944   5.826   5.843  1.0388 -0.7531  0.7211
15733TIP3   OH268613   2.885   4.374  13.403 -0.1092  0.5766  0.4389
15733TIP3    H168614   2.941   4.451  13.411 -0.1562  0.6000  0.5427
15733TIP3    H268615   2.842   4.384  13.318  0.2892  0.3966  0.2137
15734TIP3   OH268616   3.256   3.056  16.580 -0.1270 -0.0582  0.7472
15734TIP3    H168617   3.163   3.060  16.604 -0.0682  0.7716  0.8583
15734TIP3    H268618   3.261   2.984  16.517 -1.2526  1.2652 -0.9462
15735TIP3   OH268619   2.911   5.415  15.577  0.6781 -0.1945 -0.2714
15735TIP3    H168620   2.949   5.494  15.541 -0.4039  0.2274 -0.5163
15735TIP3    H268621   2.984   5.371  15.622  1.1937  1.1543  0.2534
15736TIP3   OH268622   5.130   4.179  11.736  0.5271  0.1726  0.2701
15736TIP3    H168623   5.172   4.231  11.667  2.0984 -1.4451 -0.0824
15736TIP3    H268624   5.190   4.106  11.750 -1.3097 -1.2463  1.1405
15737TIP3   OH268625   4.356   6.070  14.017 -0.5744  0.0679  1.0363
15737TIP3    H168626   4.412   6.012  14.068  0.3821  1.0971  1.1997
15737TIP3    H268627   4.270   6.029  14.019 -0.4868 -0.1145  3.1685
15738TIP3   OH268628   4.902   1.649   2.958  0.2745  0.5039  0.0927
15738TIP3    H168629   4.931   1.700   3.034  2.8457  1.0857 -1.1699
15738TIP3    H268630   4.955   1.681   2.885 -0.7617 -1.3263 -1.5827
15739TIP3   OH268631   0.445   4.713   2.358  0.3193 -0.3765  0.0818
15739TIP3    H168632   0.518   4.775   2.369 -1.0204  1.1945  0.5672
15739TIP3    H268633   0.461   4.645   2.423  1.3524 -0.0562  0.1793
15740TIP3   OH268634   5.685   5.787   0.971 -0.0989 -0.1850  0.3651
15740TIP3    H168635   5.651   5.783   1.060  1.2389 -0.8208  0.8792
15740TIP3    H268636   5.723   5.701   0.956  1.1392  0.4271 -0.2031
15741TIP3   OH268637   4.771   3.867   1.993 -0.3233 -0.1133 -0.1819
15741TIP3    H168638   4.767   3.893   2.085 -0.1770  0.0044 -0.2101
15741TIP3    H268639   4.813   3.940   1.948  0.2481 -0.4623 -0.2307
15742TIP3   OH268640   1.197   0.885  12.027 -0.3527 -0.3207  0.1429
15742TIP3    H168641   1.265   0.871  12.094  1.5086 -1.1391 -1.8103
15742TIP3    H268642   1.207   0.977  12.003  0.4699 -0.5616 -0.4986
15743TIP3   OH268643   0.409   4.219  14.807 -0.4554  0.3321  0.5100
15743TIP3    H168644   0.452   4.272  14.740 -1.3326 -0.9841 -1.1503
15743TIP3    H268645   0.467   4.227  14.884 -0.3594  3.3104  0.2448
15744TIP3   OH268646   1.902   0.613   2.919 -0.0005 -0.2296  0.1001
15744TIP3    H168647   1.926   0.641   2.830 -1.7469  0.9922 -0.0405
15744TIP3    H268648   1.817   0.655   2.935  0.9279  0.7705  2.9096
15745TIP3   OH268649   1.712   1.632   5.110 -0.1358  0.2395 -0.0047
15745TIP3    H168650   1.663   1.714   5.121  0.8662  0.6669  1.8281
15745TIP3    H268651   1.687   1.600   5.024 -1.7879  1.6495 -0.1077
15746TIP3   OH268652   0.054   6.252  15.958 -0.0950  0.9278  0.2080
15746TIP3    H168653   0.059   6.331  15.904  0.1983  1.4475  0.9716
15746TIP3    H268654   0.007   6.280  16.037 -1.6777 -0.1355 -0.3194
15747TIP3   OH268655   2.299   4.948  14.063  0.7168 -0.2468 -0.0679
15747TIP3    H168656   2.371   4.887  14.052  0.6652 -0.2269 -0.5486
15747TIP3    H268657   2.341   5.034  14.075  0.7771 -0.2778 -0.0589
15748TIP3   OH268658   4.413   1.979  14.018  0.4136  0.7096  0.6344
15748TIP3    H168659   4.507   1.972  14.006  0.2659  0.4766 -0.4635
15748TIP3    H268660   4.398   2.072  14.036  0.7153  1.0306 -0.6569
15749TIP3   OH268661   6.076   2.442  10.694 -0.6230  0.1176 -0.2877
15749TIP3    H168662   6.154   2.485  10.730  0.4049 -0.6139 -1.5863
15749TIP3    H268663   6.020   2.514  10.665 -0.4428  0.6435  0.6302
15750TIP3   OH268664   4.750   6.492  11.346  0.0274 -0.2460  0.2494
15750TIP3    H168665   4.825   6.499  11.406 -0.1822 -1.2129  0.6419
15750TIP3    H268666   4.674   6.508  11.401 -0.2383 -2.1370  0.5033
15751TIP3   OH268667   1.479   4.080   2.860 -0.8343 -0.8930  0.1314
15751TIP3    H168668   1.431   4.053   2.939 -1.0854 -3.8907 -0.9122
15751TIP3    H268669   1.522   4.000   2.830 -0.4245  0.2507 -2.5719
15752TIP3   OH268670   0.021   0.403  15.119  0.5246  0.0186  0.6638
15752TIP3    H168671   0.110   0.368  15.124 -0.0253 -1.2207  3.1653
15752TIP3    H268672   0.033   0.498  15.124  1.6929 -0.1267  1.0444
15753TIP3   OH268673   5.529   0.374   5.644  0.6736  0.4806  0.2472
15753TIP3    H168674   5.542   0.450   5.587  1.4670  0.4319  0.3616
15753TIP3    H268675   5.456   0.399   5.701  1.1430  1.2813  0.4981
15754TIP3   OH268676   2.131   5.539  15.900  0.1695 -0.0707 -0.4193
15754TIP3    H168677   2.040   5.511  15.896  0.7274 -1.8889 -1.5723
15754TIP3    H268678   2.181   5.466  15.863  2.0003  1.3423 -0.9166
15755TIP3   OH268679   6.263   4.528  13.031 -0.2724  0.2305  0.1071
15755TIP3    H168680   6.252   4.512  13.124 -1.1663  1.0357  0.1643
15755TIP3    H268681   6.347   4.488  13.008 -0.2575 -0.3502  1.1594
15756TIP3   OH268682   6.542   6.507   1.293 -0.2840  0.4118 -0.1190
15756TIP3    H168683   6.507   6.426   1.329  0.2523 -0.8932 -2.3442
15756TIP3    H268684   6.633   6.486   1.271  0.1062  1.8777  0.0059
15757TIP3   OH268685   3.347   5.677  13.466 -0.8760 -0.3782  0.0145
15757TIP3    H168686   3.382   5.730  13.539 -1.3875 -4.2777  3.4308
15757TIP3    H268687   3.424   5.636  13.427 -0.8629 -1.2167  0.9064
15758TIP3   OH268688   4.412   2.904  13.924 -0.6733 -0.3357 -0.1510
15758TIP3    H168689   4.400   2.989  13.882 -2.2175 -0.4618 -0.0062
15758TIP3    H268690   4.425   2.842  13.852  0.1442 -0.0382 -0.2692
15759TIP3   OH268691   4.272   5.149   0.463 -0.2029 -0.0660 -0.0071
15759TIP3    H168692   4.185   5.188   0.458  0.8495  2.4724 -0.3277
15759TIP3    H268693   4.323   5.197   0.397  1.1582 -2.3113 -0.6705
15760TIP3   OH268694   1.076   0.305  16.246 -0.0380  0.1859  0.1153
15760TIP3    H168695   1.085   0.264  16.161  0.2609  0.6746 -0.0969
15760TIP3    H268696   1.085   0.399  16.229  0.2307  0.2764  0.7069
15761TIP3   OH268697   4.521   3.162   2.214  0.0816 -0.5832 -0.6349
15761TIP3    H168698   4.522   3.253   2.182 -1.7902  0.8856  2.9352
15761TIP3    H268699   4.609   3.148   2.248  0.2907 -0.0117 -0.9146
15762TIP3   OH268700   0.338   2.646  13.232 -0.0698  0.5095 -0.5275
15762TIP3    H168701   0.283   2.641  13.311 -0.4162 -1.7760 -0.8401
15762TIP3    H268702   0.297   2.586  13.171  2.2261 -0.5456 -1.1228
15763TIP3   OH268703   1.218   5.354   1.073  0.0084 -0.1972  0.0376
15763TIP3    H168704   1.180   5.368   1.160  1.1767 -1.9720  0.8944
15763TIP3    H268705   1.226   5.441   1.036  0.1555  0.6854  2.0093
15764TIP3   OH268706   4.130   4.452  13.892  0.0468  0.1263  0.0370
15764TIP3    H168707   4.037   4.469  13.876 -0.1353 -1.0430 -0.2416
15764TIP3    H268708   4.175   4.487  13.815  0.0484  2.3035  0.9590
15765TIP3   OH268709   1.367   1.252  15.491 -0.2588  0.3639  0.3286
15765TIP3    H168710   1.371   1.164  15.454 -1.7773  0.3924 -0.0014
15765TIP3    H268711   1.390   1.241  15.583  1.7730  0.0012 -0.1920
15766TIP3   OH268712   3.149   3.698   3.792  0.1861 -0.0926 -0.1987
15766TIP3    H168713   3.239   3.668   3.795  0.2353  0.1707  1.3595
15766TIP3    H268714   3.141   3.739   3.705  1.5072 -0.2433 -0.4139
15767TIP3   OH268715   3.391   6.169   1.097 -0.4626  0.5862  0.1854
15767TIP3    H168716   3.344   6.165   1.014  0.4339  0.8406 -0.3478
15767TIP3    H268717   3.426   6.081   1.109 -0.4574  0.5921  0.2141
15768TIP3   OH268718   2.542   2.389  12.860  0.2483 -0.0399 -0.4035
15768TIP3    H168719   2.596   2.429  12.928  0.1789 -0.4141 -0.1255
15768TIP3    H268720   2.503   2.313  12.902  0.4939 -0.4850 -0.9724
15769TIP3   OH268721   2.658   4.916   2.214 -0.1587 -0.2126 -0.5784
15769TIP3    H168722   2.592   4.967   2.168  1.1627  0.9841 -1.2612
15769TIP3    H268723   2.619   4.830   2.226 -1.4553  0.1643 -1.8248
15770TIP3   OH268724   4.235   2.314  15.410  0.0300 -0.0034  0.1086
15770TIP3    H168725   4.252   2.349  15.323 -0.7122 -0.8340 -0.3920
15770TIP3    H268726   4.235   2.390  15.468 -0.4906  0.6842 -0.7788
15771TIP3   OH268727   2.243   4.214   3.379 -0.5636 -0.6423 -0.0008
15771TIP3    H168728   2.299   4.255   3.314  0.7109 -0.9303  0.8768
15771TIP3    H268729   2.162   4.265   3.376 -0.0538  0.1585 -0.8904
15772TIP3   OH268730   6.564   6.573  11.705 -0.8573  0.4346 -0.6453
15772TIP3    H168731   6.522   6.551  11.788 -1.2072  0.5049 -0.8030
15772TIP3    H268732   6.647   6.524  11.706  1.0020  3.2690  1.4213
15773TIP3   OH268733   4.972   5.423   4.632 -0.3359  0.5118  0.1652
15773TIP3    H168734   4.986   5.500   4.688 -3.6132  0.9250  0.5917
15773TIP3    H268735   4.938   5.356   4.692  0.5489 -0.6327 -0.5715
15774TIP3   OH268736   0.878   4.688   2.514 -0.2277 -0.4602 -0.5417
15774TIP3    H168737   0.917   4.685   2.427  1.9752  2.5194  0.1843
15774TIP3    H268738   0.924   4.621   2.564  1.1391  0.2704 -0.7779
15775TIP3   OH268739   4.329   1.872   5.998 -0.1128  0.5290  0.6301
15775TIP3    H168740   4.272   1.837   6.067  0.9009 -1.0220  0.7245
15775TIP3    H268741   4.283   1.951   5.968 -2.3097 -0.6291  0.6842
15776TIP3   OH268742   4.425   3.980   1.509  0.0533  0.2248 -0.6287
15776TIP3    H168743   4.485   4.040   1.553  0.0688 -1.5761  2.0638
15776TIP3    H268744   4.345   3.984   1.560 -0.7993 -0.2311 -1.8800
15777TIP3   OH268745   1.015   4.385   3.798 -0.0603  0.0177 -0.4546
15777TIP3    H168746   0.945   4.330   3.833  1.2625 -1.1467  0.4905
15777TIP3    H268747   1.026   4.356   3.708 -1.5052  0.9879 -0.9830
15778TIP3   OH268748   4.684   5.940  16.213  0.4030 -0.1349  0.2005
15778TIP3    H168749   4.635   5.996  16.153 -1.9102 -2.5081 -0.2987
15778TIP3    H268750   4.728   5.877  16.156  0.0575 -1.0038  0.8762
15779TIP3   OH268751   2.707   5.303  14.875 -0.3767  0.7838 -0.2784
15779TIP3    H168752   2.713   5.210  14.856 -1.0889  0.2729  1.7668
15779TIP3    H268753   2.791   5.324  14.917 -1.0783  0.4957  1.3375
15780TIP3   OH268754   4.955   5.720  12.448 -0.2388  0.0401  0.2045
15780TIP3    H168755   4.941   5.625  12.439  0.1582  0.0869 -1.2774
15780TIP3    H268756   4.872   5.753  12.481 -0.5037 -0.7825  0.3993
15781TIP3   OH268757   6.718   1.310  15.368 -0.5441  0.3128  0.2681
15781TIP3    H168758   6.804   1.269  15.376 -0.2982  0.2884 -2.0134
15781TIP3    H268759   6.694   1.333  15.458  0.4690 -2.4370  1.3469
15782TIP3   OH268760   4.759   5.202  13.935 -0.0677 -0.4095 -0.1019
15782TIP3    H168761   4.787   5.162  13.853  1.5116  2.0230 -0.8893
15782TIP3    H268762   4.699   5.272  13.908  0.2604  0.2488  0.8231
15783TIP3   OH268763   4.479   6.359  14.080  0.2081  0.2903 -0.7677
15783TIP3    H168764   4.551   6.329  14.136  1.1221  0.7873 -1.6429
15783TIP3    H268765   4.422   6.282  14.072  0.2751  0.0905  0.4868
15784TIP3   OH268766   5.201   4.620  16.824 -0.3524 -0.5800 -0.3163
15784TIP3    H168767   5.283   4.665  16.844 -0.2049 -0.7474 -0.5466
15784TIP3    H268768   5.147   4.686  16.780  0.6961 -1.2218 -2.6955
15785TIP3   OH268769   5.051   5.975   2.089 -0.4774 -0.2513  0.3050
15785TIP3    H168770   5.070   5.945   2.177 -1.8721 -0.8086  0.4288
15785TIP3    H268771   5.024   6.066   2.100  2.1382  0.6367  0.1027
15786TIP3   OH268772   0.856   5.172   5.398 -0.4692  0.0571 -0.6991
15786TIP3    H168773   0.789   5.147   5.461  0.9878 -0.6240  0.6414
15786TIP3    H268774   0.839   5.118   5.322 -0.5556 -1.1969  0.1860
15787TIP3   OH268775   0.165   1.232  11.567  0.4192 -0.3564 -0.2187
15787TIP3    H168776   0.245   1.279  11.591  0.9329 -1.2618 -0.0963
15787TIP3    H268777   0.120   1.291  11.506  1.6950 -0.2437 -1.1081
15788TIP3   OH268778   5.521   0.266   5.331 -0.6362  0.2198  0.1559
15788TIP3    H168779   5.427   0.282   5.345 -1.5353 -2.7549 -1.4990
15788TIP3    H268780   5.526   0.228   5.243  2.1606  0.3719  0.1599
15789TIP3   OH268781   1.227   3.592   1.166  0.2449 -0.0140 -0.0508
15789TIP3    H168782   1.279   3.523   1.207 -0.4255 -0.6571 -0.2649
15789TIP3    H268783   1.199   3.555   1.082 -0.6259  0.2880  0.0976
15790TIP3   OH268784   4.068   5.574   4.337 -0.1934 -0.1463 -0.3525
15790TIP3    H168785   4.120   5.590   4.258  1.2239 -0.2331  0.5292
15790TIP3    H268786   3.981   5.551   4.304  1.2409 -3.8687 -2.0625
15791TIP3   OH268787   2.947   4.314  17.167 -0.1332 -0.1903 -0.2869
15791TIP3    H168788   2.918   4.367  17.092 -1.5458 -2.1082 -1.1760
15791TIP3    H268789   3.028   4.273  17.136  0.1759  0.3014 -0.1386
15792TIP3   OH268790   5.408   4.359   2.646 -0.2765  0.2224 -0.5402
15792TIP3    H168791   5.437   4.268   2.648  0.0882  0.3373 -0.2477
15792TIP3    H268792   5.386   4.379   2.737  0.1859  0.5889 -0.5047
15793TIP3   OH268793   4.988   5.544   3.207 -0.4088  0.0726  0.2194
15793TIP3    H168794   4.978   5.485   3.133 -0.3923 -0.2092  0.4393
15793TIP3    H268795   4.947   5.498   3.280 -0.5410  0.4030  0.3569
15794TIP3   OH268796   1.611   2.543  16.550 -0.4442  0.7516 -0.0227
15794TIP3    H168797   1.600   2.567  16.458  0.9728 -0.9159 -0.6823
15794TIP3    H268798   1.689   2.488  16.552 -0.2443  1.0083  2.2450
15795TIP3   OH268799   5.287   1.731  11.197 -0.2073  0.2907  0.3038
15795TIP3    H168800   5.244   1.715  11.113  1.2769  2.0053 -0.8670
15795TIP3    H268801   5.378   1.753  11.174 -0.3034  3.1046  2.1144
15796TIP3   OH268802   1.848   0.608  15.866  0.4970 -0.1672 -0.2101
15796TIP3    H168803   1.840   0.581  15.774 -0.2379  0.1955 -0.2573
15796TIP3    H268804   1.919   0.672  15.865  1.6051 -1.3452 -0.2490
15797TIP3   OH268805   0.008   0.582  16.478 -0.2406 -0.1630  0.2956
15797TIP3    H168806   0.019   0.511  16.414 -1.6715  0.3756 -0.5879
15797TIP3    H268807  -0.079   0.569  16.514  0.4576 -0.3287  2.0450
15798TIP3   OH268808   3.417   6.235  17.067  0.3102 -0.2894 -0.1180
15798TIP3    H168809   3.487   6.300  17.077  0.7820 -0.9494  1.1288
15798TIP3    H268810   3.460   6.151  17.082 -1.1029 -0.5939  3.0830
15799TIP3   OH268811   1.070   3.174  15.759 -0.0260  0.8935 -0.0619
15799TIP3    H168812   1.071   3.204  15.668 -0.0624 -1.9927 -1.1075
15799TIP3    H268813   1.162   3.154  15.778 -0.1627  0.4564  0.1427
15800TIP3   OH268814   3.236   4.220   0.503 -0.3733  0.3241 -0.4975
15800TIP3    H168815   3.292   4.298   0.501  0.5034 -0.3216 -1.6861
15800TIP3    H268816   3.295   4.147   0.482 -1.0428 -0.7707  1.2248
15801TIP3   OH268817   5.393   6.223   3.900  0.2040 -0.1158 -0.0845
15801TIP3    H168818   5.350   6.286   3.842 -0.3591  2.3502  2.7580
15801TIP3    H268819   5.336   6.147   3.898 -0.4054  0.3338 -1.8230
15802TIP3   OH268820   2.875   4.343  12.962 -0.5898  0.2017 -0.2737
15802TIP3    H168821   2.794   4.340  13.012 -1.5198  0.5661 -1.6991
15802TIP3    H268822   2.939   4.300  13.018 -1.4888  0.9208  1.3603
15803TIP3   OH268823   5.267   0.508   5.656 -0.4000  0.1165  0.5639
15803TIP3    H168824   5.204   0.451   5.612  0.5173 -0.0235 -0.6017
15803TIP3    H268825   5.222   0.535   5.736 -1.4453 -1.0018  0.3906
15804TIP3   OH268826   5.140   4.265   5.390 -0.0640  0.1280 -0.4769
15804TIP3    H168827   5.096   4.259   5.306  2.0787 -0.7510 -1.6255
15804TIP3    H268828   5.157   4.174   5.415  0.6346  0.4125  0.1480
15805TIP3   OH268829   2.984   0.657   0.729 -0.2438 -0.1357 -0.3589
15805TIP3    H168830   2.894   0.679   0.753  0.6350  2.1619  1.2037
15805TIP3    H268831   3.035   0.732   0.758  2.0707 -0.8982 -2.1682
15806TIP3   OH268832   0.942   2.849  13.801 -0.2202 -1.0398  0.0332
15806TIP3    H168833   0.920   2.785  13.869  0.9331 -2.2125 -0.6367
15806TIP3    H268834   0.897   2.817  13.723 -1.0530 -0.0295  0.0725
15807TIP3   OH268835   2.174   2.088   2.494 -0.1753  0.4682 -0.1657
15807TIP3    H168836   2.207   2.178   2.500 -0.6355  0.7653 -1.5404
15807TIP3    H268837   2.249   2.033   2.515  0.1416  1.1708  0.5846
15808TIP3   OH268838   0.988   0.859  15.646  0.3413 -0.5780 -0.2141
15808TIP3    H168839   1.016   0.778  15.604 -1.1738 -0.8797 -0.7056
15808TIP3    H268840   1.019   0.929  15.589 -0.4856 -0.9304 -1.1150
15809TIP3   OH268841   1.660   2.335  12.657  0.4992  0.0001 -0.1588
15809TIP3    H168842   1.652   2.243  12.635 -0.9578 -0.4254  1.9062
15809TIP3    H268843   1.577   2.374  12.628  0.0633  0.1296  1.1986
15810TIP3   OH268844   6.369   0.937  15.526 -0.5786 -0.3947  0.0767
15810TIP3    H168845   6.343   1.006  15.587  2.0865 -0.4665  1.4005
15810TIP3    H268846   6.394   0.984  15.447 -0.5627 -0.0106  0.3089
15811TIP3   OH268847   6.139   5.347   4.781 -0.2675  0.2005  0.1937
15811TIP3    H168848   6.227   5.328   4.751 -0.9421 -1.9376 -0.6439
15811TIP3    H268849   6.090   5.367   4.701 -0.9195 -0.3815  0.4393
15812TIP3   OH268850   6.190   1.411   2.204  0.7165  0.4290 -0.8135
15812TIP3    H168851   6.139   1.478   2.249 -0.8797 -0.9496 -0.4668
15812TIP3    H268852   6.160   1.328   2.243  2.1724 -0.5392 -1.6542
15813TIP3   OH268853   4.486   2.355   2.542 -0.2383 -0.3357 -0.0308
15813TIP3    H168854   4.503   2.295   2.468 -0.4326  0.1175 -0.4486
15813TIP3    H268855   4.509   2.304   2.619 -1.6561 -1.4279 -0.2883
15814TIP3   OH268856   5.401   3.271  17.131  0.0356 -0.0373  0.2338
15814TIP3    H168857   5.465   3.202  17.151  0.3988  0.9298  2.7637
15814TIP3    H268858   5.454   3.347  17.107 -0.3472 -0.3743 -1.8736
15815TIP3   OH268859   2.461   0.313   0.359 -0.1098 -0.2074  0.3944
15815TIP3    H168860   2.501   0.236   0.399  2.3787  0.0795 -1.2985
15815TIP3    H268861   2.535   0.366   0.330 -1.7298  1.1756 -1.5229
15816TIP3   OH268862   2.013   4.560  15.233 -0.4328  0.1012  0.4066
15816TIP3    H168863   2.025   4.545  15.140  0.8763  0.7525  0.4509
15816TIP3    H268864   2.028   4.654  15.245 -0.6203  0.0358  1.2672
15817TIP3   OH268865   4.288   1.146   0.569 -0.0637  0.4873  0.1552
15817TIP3    H168866   4.247   1.216   0.620 -0.9666  0.5450 -0.6112
15817TIP3    H268867   4.219   1.118   0.509 -0.4423 -2.5134  1.8150
15818TIP3   OH268868   6.393   0.500   0.222 -0.1960  0.2195 -0.0616
15818TIP3    H168869   6.435   0.478   0.305  0.5570 -1.3270 -0.8064
15818TIP3    H268870   6.446   0.572   0.187  2.5833 -2.2057 -1.3734
15819TIP3   OH268871   0.561   1.440   2.012  0.7264  1.0674 -0.4162
15819TIP3    H168872   0.595   1.453   2.101 -1.2265  0.1215  0.5609
15819TIP3    H268873   0.552   1.345   2.004 -1.1023  1.2181 -0.7676
15820TIP3   OH268874   1.086   4.988  15.658  0.4701  0.5157 -0.3556
15820TIP3    H168875   1.026   5.060  15.677  0.8916  1.3992 -2.1400
15820TIP3    H268876   1.173   5.022  15.682  0.3473 -0.7348  2.1602
15821TIP3   OH268877   3.900   1.805  16.066 -0.4039  0.2002 -0.8108
15821TIP3    H168878   3.970   1.755  16.024  0.9736  1.6037 -0.3034
15821TIP3    H268879   3.919   1.799  16.159 -1.3031  0.1397 -0.6235
15822TIP3   OH268880   6.660   0.439   4.467 -0.2232  0.5635  0.4591
15822TIP3    H168881   6.616   0.389   4.536  1.1116 -0.2718  0.7652
15822TIP3    H268882   6.675   0.525   4.505  0.7728  0.0147  1.3686
15823TIP3   OH268883   4.596   0.918  14.103 -0.3357  0.1429  0.3333
15823TIP3    H168884   4.661   0.884  14.041 -0.6968  0.8268 -0.4364
15823TIP3    H268885   4.516   0.926  14.052 -0.7824  0.2283  1.0315
15824TIP3   OH268886   1.360   4.335   1.646  0.3978  0.2674 -0.0072
15824TIP3    H168887   1.341   4.242   1.652 -2.4766  0.6430 -1.6837
15824TIP3    H268888   1.366   4.353   1.553 -1.6524  2.1100  0.1179
15825TIP3   OH268889   0.683   2.216   3.263  0.5645  0.0921 -0.2292
15825TIP3    H168890   0.680   2.125   3.294 -2.0011 -0.1599 -0.9978
15825TIP3    H268891   0.646   2.267   3.335  1.5140  0.4883 -0.0076
15826TIP3   OH268892   5.601   0.872   3.146  0.3003 -0.6195 -0.1938
15826TIP3    H168893   5.639   0.789   3.119 -1.7428 -1.5490 -0.3753
15826TIP3    H268894   5.510   0.869   3.116  0.2420  1.8367 -0.5256
15827TIP3   OH268895   1.639   2.116  14.597 -0.3387 -0.0418  0.4275
15827TIP3    H168896   1.633   2.159  14.512  0.0019 -0.6597  0.0804
15827TIP3    H268897   1.595   2.175  14.657  0.5822  1.0519  0.0624
15828TIP3   OH268898   3.138   1.951  16.966 -0.2388 -0.5858 -0.1717
15828TIP3    H168899   3.106   1.981  17.051  0.3042  1.7634 -0.7096
15828TIP3    H268900   3.159   1.859  16.979 -3.6153 -1.3339  1.2059
15829TIP3   OH268901   1.942   5.018   6.245  0.3797 -0.1034 -0.6305
15829TIP3    H168902   1.894   4.941   6.214  0.2374 -0.3601  0.2003
15829TIP3    H268903   1.890   5.051   6.318  1.2873 -0.1903  0.0778
15830TIP3   OH268904   2.737   2.762   0.324  0.1597 -0.6731  0.4661
15830TIP3    H168905   2.664   2.700   0.314  0.1661 -0.5211 -0.7217
15830TIP3    H268906   2.697   2.848   0.315  0.4995 -0.5963 -0.4519
15831TIP3   OH268907   1.814   1.938  15.847  0.2221  0.5515 -0.6861
15831TIP3    H168908   1.785   1.972  15.763  0.3207  0.2255 -0.8569
15831TIP3    H268909   1.750   1.870  15.869  0.7868 -0.1077 -1.0226
15832TIP3   OH268910   5.416   1.728   1.702  0.2223  0.5581  0.3247
15832TIP3    H168911   5.396   1.686   1.786  0.6080  2.2792  1.3133
15832TIP3    H268912   5.331   1.735   1.659 -0.2462  1.2124  1.3285
15833TIP3   OH268913   3.177   0.834  12.086  0.0098  0.2998 -0.6150
15833TIP3    H168914   3.190   0.763  12.149 -2.0792 -0.6322 -1.1379
15833TIP3    H268915   3.138   0.904  12.139 -2.8812 -0.9103 -0.9467
15834TIP3   OH268916   3.386   3.129  14.995  0.9401  0.2286  0.0425
15834TIP3    H168917   3.462   3.071  14.983  1.2250  0.6426 -0.1947
15834TIP3    H268918   3.364   3.158  14.906  1.5200  1.3808  0.2578
15835TIP3   OH268919   6.449   0.844   3.951  0.0274 -0.2941  0.4671
15835TIP3    H168920   6.437   0.752   3.925  1.2157 -0.2533 -0.3169
15835TIP3    H268921   6.378   0.891   3.908 -0.7980 -0.8770  1.1523
15836TIP3   OH268922   6.286   3.840   6.190 -0.0469 -0.5304 -0.0075
15836TIP3    H168923   6.193   3.851   6.171 -0.2259 -2.3514 -0.3694
15836TIP3    H268924   6.291   3.834   6.285 -0.0339  1.4302  0.1543
15837TIP3   OH268925   1.943   3.747   4.146 -0.2071 -0.5104  0.4073
15837TIP3    H168926   1.943   3.799   4.227  1.0510  0.0709  0.0511
15837TIP3    H268927   1.955   3.811   4.076 -1.7665 -0.9475 -0.3113
15838TIP3   OH268928   2.356   1.208  12.533  0.4884 -0.4303  0.0525
15838TIP3    H168929   2.339   1.115  12.546  0.8313 -0.5215 -0.1562
15838TIP3    H268930   2.451   1.216  12.539  0.4091  0.0210  0.8550
15839TIP3   OH268931   2.805   2.336  16.147 -0.2020  0.2669  0.5229
15839TIP3    H168932   2.869   2.337  16.218 -0.0166  1.1371  0.3613
15839TIP3    H268933   2.849   2.382  16.075 -1.1289  1.1842  0.5227
15840TIP3   OH268934   0.498   4.142   0.856  0.1461 -0.0943  0.4119
15840TIP3    H168935   0.428   4.173   0.914  0.4842 -1.9682  1.9504
15840TIP3    H268936   0.573   4.132   0.914  1.4385  0.9460 -1.0238
15841TIP3   OH268937   2.293   3.142  12.670  0.3379 -0.1297  0.0626
15841TIP3    H168938   2.274   3.123  12.578 -0.1261  1.2067 -0.1313
15841TIP3    H268939   2.381   3.107  12.684  0.7998  0.4884 -1.1450
15842TIP3   OH268940   0.972   6.641  10.843  0.1057  0.0638 -0.3129
15842TIP3    H168941   0.953   6.702  10.773  1.1373 -0.1737 -0.8192
15842TIP3    H268942   1.043   6.682  10.893  0.4793 -0.4803 -0.3761
15843TIP3   OH268943   3.173   6.287   3.473  0.4918 -0.4258 -0.5626
15843TIP3    H168944   3.133   6.242   3.548  1.9075  0.9038  1.0841
15843TIP3    H268945   3.217   6.217   3.424  0.7052 -1.1666  0.6413
15844TIP3   OH268946   3.957   5.388   1.445  0.3045 -0.1361  0.0310
15844TIP3    H168947   3.927   5.435   1.367 -2.8939 -0.7707  0.7430
15844TIP3    H268948   3.939   5.296   1.425  0.5633 -0.4161  1.0437
15845TIP3   OH268949   6.015   6.768   1.092 -0.2320 -0.3697  0.0059
15845TIP3    H168950   5.946   6.709   1.122  1.3555 -2.2953  0.1384
15845TIP3    H268951   5.980   6.809   1.013 -2.2685  0.3242  1.2074
15846TIP3   OH268952   3.948   5.538  12.526  0.2122 -0.1157  0.8381
15846TIP3    H168953   4.008   5.474  12.489  0.1983  0.2359  0.1826
15846TIP3    H268954   3.949   5.611  12.463 -2.6554 -1.0410 -0.4787
15847TIP3   OH268955   5.970   4.497   4.964  0.0686 -0.7086  0.0635
15847TIP3    H168956   5.939   4.439   4.895 -1.6769 -0.5474  0.6461
15847TIP3    H268957   5.989   4.580   4.920 -0.2162 -0.8647 -0.3559
15848TIP3   OH268958   0.666   6.559   4.782 -0.3906 -0.0688  0.0949
15848TIP3    H168959   0.622   6.520   4.857 -1.6053  0.5569 -0.2710
15848TIP3    H268960   0.596   6.581   4.720  0.5478 -0.2817 -1.1011
15849TIP3   OH268961   5.783   2.516  13.580 -0.2912 -0.0472 -0.2379
15849TIP3    H168962   5.808   2.503  13.489  2.5991  2.6881  0.0089
15849TIP3    H268963   5.723   2.591  13.578 -2.2377 -1.5125 -0.0159
15850TIP3   OH268964   3.215   1.636   0.403 -0.0608 -0.2986 -0.1412
15850TIP3    H168965   3.132   1.589   0.413 -1.0571  1.3382 -0.2880
15850TIP3    H268966   3.238   1.663   0.492  1.6917 -2.8440  0.2926
15851TIP3   OH268967   6.737   5.744  13.279 -0.4429 -0.1599  0.2938
15851TIP3    H168968   6.826   5.714  13.296 -0.8815 -2.1001 -0.5478
15851TIP3    H268969   6.721   5.811  13.346  0.9328 -1.2035  1.7431
15852TIP3   OH268970   3.797   5.047  13.327 -0.1470 -0.6754 -0.3590
15852TIP3    H168971   3.826   5.128  13.369 -1.1136  0.1009 -1.1542
15852TIP3    H268972   3.707   5.036  13.357  0.0486 -1.5906 -0.0778
15853TIP3   OH268973   5.057   4.188  14.751  0.1887 -0.1325 -0.4042
15853TIP3    H168974   5.020   4.260  14.699 -0.4225  0.0466  0.2575
15853TIP3    H268975   5.093   4.231  14.829  1.8607 -0.3052 -1.0527
15854TIP3   OH268976   0.860   4.943  10.614 -0.2797  0.1680 -0.3615
15854TIP3    H168977   0.896   5.027  10.641  0.3604 -0.8530  2.2586
15854TIP3    H268978   0.768   4.960  10.597 -0.1736  1.3870  0.2282
15855TIP3   OH268979   1.180   6.714  12.042  0.0839 -0.4944 -0.3807
15855TIP3    H168980   1.190   6.619  12.034  2.6643 -0.2865 -0.7286
15855TIP3    H268981   1.106   6.735  11.985 -0.0214 -2.2156 -0.9516
15856TIP3   OH268982   4.979   4.669   1.912  0.5053  0.2194  0.2822
15856TIP3    H168983   5.044   4.685   1.980  0.3793  0.8695  0.2525
15856TIP3    H268984   5.029   4.632   1.839  0.7253  0.0450  0.5195
15857TIP3   OH268985   0.840   6.517   4.293  0.3318 -1.1329 -0.1028
15857TIP3    H168986   0.922   6.546   4.254  0.1378  0.1346  0.3851
15857TIP3    H268987   0.810   6.447   4.236  0.1820  0.4900 -2.1381
15858TIP3   OH268988   0.765   0.108  14.447 -0.4645 -0.0140 -0.4240
15858TIP3    H168989   0.761   0.042  14.377 -0.8924 -1.5152  0.9335
15858TIP3    H268990   0.830   0.171  14.418  1.3482 -2.0335 -1.0019
15859TIP3   OH268991   3.580   2.473  17.157 -0.3537 -0.4676  0.2337
15859TIP3    H168992   3.584   2.567  17.171  0.2330 -0.1926 -1.4715
15859TIP3    H268993   3.525   2.463  17.079  3.2512 -1.1119 -2.4634
15860TIP3   OH268994   1.479   0.504  12.654  0.0564 -0.3155  0.4697
15860TIP3    H168995   1.544   0.554  12.704 -0.5202 -0.1562  1.0819
15860TIP3    H268996   1.531   0.447  12.597  0.7608 -1.2358  1.9641
15861TIP3   OH268997   6.273   6.232  16.807  0.4174 -0.4482 -0.0748
15861TIP3    H168998   6.352   6.183  16.786  1.4139  1.3416 -0.7499
15861TIP3    H268999   6.247   6.273  16.724 -0.0313  0.5895  0.5529
15862TIP3   OH269000   2.421   5.607  14.598  0.1929  0.4955 -0.3305
15862TIP3    H169001   2.489   5.550  14.634 -1.2576 -0.4978  0.9823
15862TIP3    H269002   2.442   5.694  14.631  1.2470  0.3545 -0.5956
15863TIP3   OH269003   3.677   5.135   3.662  0.4820 -0.4489 -0.1378
15863TIP3    H169004   3.643   5.090   3.740  0.1706  1.1052  0.6694
15863TIP3    H269005   3.770   5.151   3.682  0.3971 -0.0313 -0.0520
15864TIP3   OH269006   2.128   1.000   4.649  0.2098 -0.3276  0.4069
15864TIP3    H169007   2.042   0.960   4.656  0.7742 -1.3538  2.3709
15864TIP3    H269008   2.137   1.052   4.729  1.1006  0.4129 -0.1589
15865TIP3   OH269009   4.791   6.739  12.225 -0.0671  0.0674 -0.4836
15865TIP3    H169010   4.708   6.763  12.185  0.0775  4.2710  1.2729
15865TIP3    H269011   4.855   6.745  12.155 -0.5275  2.2923 -0.7664
15866TIP3   OH269012   2.607   3.490  13.017 -0.2793 -0.4421 -0.3105
15866TIP3    H169013   2.666   3.564  13.035 -1.1613  0.1972  0.0162
15866TIP3    H269014   2.641   3.451  12.936  1.7748 -1.3130  0.8958
15867TIP3   OH269015   5.037   2.605   4.499  0.0642 -0.5329 -0.5442
15867TIP3    H169016   5.046   2.528   4.555  2.2929  1.0766  1.5291
15867TIP3    H269017   5.047   2.572   4.410  0.5975 -2.6837  0.2549
15868TIP3   OH269018   6.454   6.242  13.073 -0.5050 -0.2505  0.3602
15868TIP3    H169019   6.427   6.280  12.989 -0.4742 -1.4882 -0.2397
15868TIP3    H269020   6.432   6.309  13.138 -1.0395  0.5126 -0.5758
15869TIP3   OH269021   1.903   5.866   3.394 -0.3652  0.0899 -0.5332
15869TIP3    H169022   1.895   5.905   3.481 -1.0622 -1.2772  0.0413
15869TIP3    H269023   1.912   5.772   3.409 -0.6621 -0.1976 -1.9352
15870TIP3   OH269024   0.672   3.052  10.956 -0.2691  0.1805 -0.4212
15870TIP3    H169025   0.680   3.138  10.997 -0.7824  0.4134 -0.7995
15870TIP3    H269026   0.583   3.023  10.978  0.7428 -1.4353  1.9643
15871TIP3   OH269027   4.745   0.226  16.256  0.3192 -0.3448 -0.7252
15871TIP3    H169028   4.684   0.199  16.325  1.2691  0.5094  0.4779
15871TIP3    H269029   4.762   0.318  16.273 -0.2006  0.1688 -2.7364
15872TIP3   OH269030   6.487   6.036   0.516  0.3828  0.0906  0.0231
15872TIP3    H169031   6.418   5.970   0.515  1.6414 -1.2790 -0.4763
15872TIP3    H269032   6.515   6.040   0.608 -1.5306  1.9934  0.5908
15873TIP3   OH269033   4.675   2.388  13.694  0.0792 -0.2355  0.1265
15873TIP3    H169034   4.733   2.312  13.704 -0.3938 -0.5603  0.4623
15873TIP3    H269035   4.598   2.366  13.747 -1.3346 -0.7859 -2.0423
15874TIP3   OH269036   0.106   0.242   0.036 -0.1994 -0.3630 -0.4178
15874TIP3    H169037   0.021   0.284   0.024 -0.0054  0.5679  1.1658
15874TIP3    H269038   0.093   0.152   0.006 -1.6571 -0.1602 -0.4686
15875TIP3   OH269039   4.387   0.347   0.258  0.2370 -0.5345  0.8598
15875TIP3    H169040   4.314   0.405   0.279  0.2005 -0.5148  0.6794
15875TIP3    H269041   4.349   0.280   0.201  0.9406  1.1271 -1.7554
15876TIP3   OH269042   5.266   0.061  16.415  0.1250 -0.2086  0.6111
15876TIP3    H169043   5.286  -0.025  16.451  0.8020 -0.9654 -1.4252
15876TIP3    H269044   5.180   0.051  16.374  0.1165  0.1533  0.5333
15877TIP3   OH269045   0.633   2.582   5.860  0.0828 -0.1501 -0.1679
15877TIP3    H169046   0.694   2.509   5.875  1.5300  0.8893 -0.7265
15877TIP3    H269047   0.580   2.554   5.786  1.1340 -0.3550 -0.8674
15878TIP3   OH269048   3.597   0.359   0.504 -0.0530 -0.1965 -0.0958
15878TIP3    H169049   3.558   0.305   0.573  0.4425 -0.2882  0.1179
15878TIP3    H269050   3.687   0.329   0.499  0.7719  1.8091  1.2879
15879TIP3   OH269051   4.433   1.253  14.968  0.5724  0.2944 -1.0117
15879TIP3    H169052   4.465   1.281  14.883 -1.1419  0.2802 -1.6961
15879TIP3    H269053   4.431   1.333  15.021  0.5339  0.5132 -1.3476
15880TIP3   OH269054   2.030   4.031   4.973 -0.2907 -0.1511  0.0683
15880TIP3    H169055   2.005   3.968   4.905 -0.9892 -1.0279  1.0903
15880TIP3    H269056   2.124   4.016   4.985 -0.7211 -2.2505  1.4419
15881TIP3   OH269057   0.358   4.339  12.574 -0.1484  0.0362  0.2201
15881TIP3    H169058   0.439   4.290  12.588  0.4049  0.9103  0.1237
15881TIP3    H269059   0.299   4.306  12.641 -0.4087 -2.0517 -0.9348
15882TIP3   OH269060   2.201   0.051   4.548 -0.2222  0.0936 -0.5859
15882TIP3    H169061   2.142  -0.024   4.549  0.2530 -0.2875 -0.6387
15882TIP3    H269062   2.277   0.021   4.499  0.4983  0.1980  0.4325
15883TIP3   OH269063   5.591   5.375   2.464 -0.0820 -0.1123  0.3391
15883TIP3    H169064   5.656   5.368   2.393  0.2740  0.5871  0.5918
15883TIP3    H269065   5.519   5.426   2.426 -0.3649 -0.6389  0.1525
15884TIP3   OH269066   0.142   1.021   3.963  0.3145 -0.3135 -0.5595
15884TIP3    H169067   0.070   1.051   4.017 -0.0960  0.5045 -1.5211
15884TIP3    H269068   0.106   1.017   3.874  1.4298  0.0818 -1.0562
15885TIP3   OH269069   6.710   1.611   0.561  0.5260 -0.0836 -0.4829
15885TIP3    H169070   6.725   1.705   0.566  1.5194 -0.2903  1.7420
15885TIP3    H269071   6.619   1.602   0.532 -0.0285  1.6008  0.6046
15886TIP3   OH269072   2.539   6.712   4.758  0.4657  0.4898 -0.3649
15886TIP3    H169073   2.470   6.646   4.750  2.2876 -1.5552 -0.0033
15886TIP3    H269074   2.554   6.742   4.669  0.5381 -0.6260 -0.7498
15887TIP3   OH269075   2.829   6.049   2.862  0.1215 -0.3089 -1.0444
15887TIP3    H169076   2.762   5.983   2.879 -0.2070  0.4407  0.8178
15887TIP3    H269077   2.786   6.133   2.879  0.5986  0.4205 -3.1229
15888TIP3   OH269078   2.448   6.622  10.832  0.0626  0.6426 -0.3376
15888TIP3    H169079   2.461   6.717  10.840  1.0449  0.4928  0.0045
15888TIP3    H269080   2.430   6.608  10.739 -2.3989  1.4064 -0.0496
15889TIP3   OH269081   0.488   3.485   3.979  0.4118 -0.3148 -0.3562
15889TIP3    H169082   0.415   3.546   3.994 -0.5390 -1.1696 -1.2960
15889TIP3    H269083   0.482   3.464   3.886  0.5916 -2.0091 -0.0097
15890TIP3   OH269084   6.725   2.293   2.021  0.3167  0.1901 -0.3109
15890TIP3    H169085   6.706   2.294   2.115  1.7976  1.6552  0.0210
15890TIP3    H269086   6.705   2.382   1.991  0.2320 -0.1507 -1.3131
15891TIP3   OH269087   5.440   1.679  14.778 -0.2960  0.7269  0.1268
15891TIP3    H169088   5.382   1.649  14.848  0.8886 -1.0619  0.4215
15891TIP3    H269089   5.424   1.619  14.705  1.2817  0.0498  0.2977
15892TIP3   OH269090   0.353   2.577  11.684 -0.3780 -0.0369  0.1454
15892TIP3    H169091   0.393   2.642  11.628 -1.0302  0.1512 -0.1112
15892TIP3    H269092   0.340   2.501  11.628 -0.0616 -0.2229  0.3191
15893TIP3   OH269093   0.866   4.073   0.832 -0.2845  0.7094 -1.0129
15893TIP3    H169094   0.952   4.052   0.869 -0.8840  1.9034  1.2566
15893TIP3    H269095   0.805   4.018   0.880 -0.8893  0.5315 -1.9657
15894TIP3   OH269096   6.648   1.713   4.549  0.1546  0.3125  0.0224
15894TIP3    H169097   6.582   1.709   4.480 -0.8786 -0.8625  1.0155
15894TIP3    H269098   6.645   1.627   4.590  1.7243  0.5297  0.6512
15895TIP3   OH269099   0.250   4.839  16.319 -0.5681 -0.5355 -0.5946
15895TIP3    H169100   0.251   4.876  16.230  0.1200  1.0467  0.0349
15895TIP3    H269101   0.229   4.914  16.375 -3.1474 -1.9071  0.4481
15896TIP3   OH269102   3.400   3.627  13.828 -0.2495 -0.4194 -0.1615
15896TIP3    H169103   3.352   3.597  13.751  0.9608 -0.8797 -0.7682
15896TIP3    H269104   3.457   3.553  13.851 -1.6176 -0.8617  2.0821
15897TIP3   OH269105   3.718   6.066   0.331 -0.4585  0.3592  0.7208
15897TIP3    H169106   3.644   6.074   0.392 -1.8283 -1.1529 -0.6820
15897TIP3    H269107   3.701   6.132   0.264  1.4313  2.5356  2.2342
15898TIP3   OH269108   0.001   0.438   2.124 -0.1072  0.4430 -0.2211
15898TIP3    H169109   0.088   0.476   2.122 -1.0086  2.9924 -4.3478
15898TIP3    H269110   0.012   0.351   2.086  0.6822  0.7698 -0.7645
15899TIP3   OH269111   3.321   4.909   3.012  0.6164  0.5603 -0.4021
15899TIP3    H169112   3.318   4.870   2.924  1.3262  0.1782 -0.2623
15899TIP3    H269113   3.313   4.836   3.072 -2.0989  1.0149 -0.1106
15900TIP3   OH269114   5.802   0.215   5.508  0.7317  0.1120 -0.0793
15900TIP3    H169115   5.814   0.279   5.438  1.8946  0.4729  0.4200
15900TIP3    H269116   5.863   0.144   5.487  0.5600 -0.1209  0.1886
15901TIP3   OH269117   5.807   3.231   0.350 -0.0257  0.2094 -0.0820
15901TIP3    H169118   5.814   3.326   0.348  3.4278  0.0530 -0.6501
15901TIP3    H269119   5.754   3.209   0.273 -0.0773  1.6161 -0.4660
15902TIP3   OH269120   0.721   0.215  12.076 -0.2000  0.3355  0.0575
15902TIP3    H169121   0.815   0.222  12.089 -0.4542  0.8152  2.0701
15902TIP3    H269122   0.694   0.142  12.131 -0.8641 -0.7233 -1.5904
15903TIP3   OH269123   2.125   2.375  14.370  0.0859 -0.1068 -0.0647
15903TIP3    H169124   2.125   2.306  14.437 -2.0818  0.9470  1.1372
15903TIP3    H269125   2.134   2.328  14.287  0.4576 -1.6614  0.8141
15904TIP3   OH269126   4.362   4.688   1.086 -0.4446 -0.1245 -0.6339
15904TIP3    H169127   4.398   4.602   1.105  0.2211  0.5653  1.6587
15904TIP3    H269128   4.438   4.743   1.069 -0.3023  1.0071  2.7825
15905TIP3   OH269129   6.393   3.371   6.707 -0.2808 -1.0066 -0.1534
15905TIP3    H169130   6.404   3.456   6.749  1.7146 -1.9062  1.3911
15905TIP3    H269131   6.300   3.364   6.688 -0.7475  0.8264  1.2424
15906TIP3   OH269132   2.163   4.360   2.243  0.2754 -0.2439 -0.0444
15906TIP3    H169133   2.145   4.378   2.335  1.8123  0.8579  0.0763
15906TIP3    H269134   2.228   4.290   2.244 -0.9545 -1.4493 -0.3774
15907TIP3   OH269135   5.656   1.916  16.172  0.5103 -0.0388 -0.3778
15907TIP3    H169136   5.739   1.926  16.126  1.2362  1.3189  1.1357
15907TIP3    H269137   5.618   2.004  16.172  0.7046  0.0890  1.8576
15908TIP3   OH269138   2.479   0.724   1.860 -0.4049 -0.7484  0.0873
15908TIP3    H169139   2.531   0.672   1.799 -0.1837  0.7732 -1.0872
15908TIP3    H269140   2.423   0.778   1.803  0.9942  1.9488  1.0900
15909TIP3   OH269141   2.692   2.048   0.286  0.0410  0.3329  0.1098
15909TIP3    H169142   2.774   2.061   0.238  0.5186 -0.5979  0.6460
15909TIP3    H269143   2.717   1.996   0.363 -1.3083 -1.4515 -0.5851
15910TIP3   OH269144   3.905   0.747  10.511  0.1372  0.3724  0.3786
15910TIP3    H169145   3.817   0.781  10.531 -0.0168 -0.7680  1.7855
15910TIP3    H269146   3.952   0.822  10.475 -1.2076  1.1796  0.2286
15911TIP3   OH269147   0.749   0.623  12.422 -0.4216 -0.0785 -0.1864
15911TIP3    H169148   0.784   0.622  12.333  0.5654  1.5872  0.1430
15911TIP3    H269149   0.685   0.694  12.423 -0.0269  0.2793  0.5621
15912TIP3   OH269150   1.645   2.077   0.939  0.5325  0.0224 -0.2782
15912TIP3    H169151   1.672   2.003   0.992  0.1832 -0.2940 -0.5337
15912TIP3    H269152   1.724   2.130   0.928  0.1744  1.2812  2.4190
15913TIP3   OH269153   1.630   4.031   1.309 -0.1911  0.2236  0.0991
15913TIP3    H169154   1.570   4.069   1.245 -0.3697 -0.1363  0.0509
15913TIP3    H269155   1.573   3.994   1.377 -0.0360 -0.3759 -0.0927
15914TIP3   OH269156   3.824   1.411  12.892  0.4988  0.0336 -0.3666
15914TIP3    H169157   3.914   1.383  12.908 -0.2621 -1.1773  2.3873
15914TIP3    H269158   3.790   1.434  12.978 -2.1007 -0.4054 -1.1673
15915TIP3   OH269159   4.820   2.939  17.011  0.1781  0.3847 -0.3040
15915TIP3    H169160   4.842   3.027  17.041 -0.8951  0.5567  0.0265
15915TIP3    H269161   4.843   2.938  16.918 -1.5985  1.6697 -0.8102
15916TIP3   OH269162   6.693   0.921  15.347 -0.5453  0.1689  0.4603
15916TIP3    H169163   6.698   1.009  15.384  0.4893 -0.1507  1.1261
15916TIP3    H269164   6.670   0.865  15.422 -3.7978  0.1364 -0.4062
15917TIP3   OH269165   0.433   3.116  11.205 -0.5756 -0.8672 -0.6267
15917TIP3    H169166   0.356   3.101  11.151 -1.1690  0.1653 -0.1048
15917TIP3    H269167   0.400   3.166  11.280  0.4188 -1.3111  0.1323
15918TIP3   OH269168   3.498   6.091   5.890  0.1636 -0.4030 -0.1728
15918TIP3    H169169   3.427   6.050   5.840  0.0051 -1.2789  0.7447
15918TIP3    H269170   3.550   6.018   5.922  0.3791  0.1529  0.7846
15919TIP3   OH269171   0.036   6.140   5.349  0.0094  0.1005  0.2389
15919TIP3    H169172   0.111   6.098   5.306  0.9249  0.3794  1.5110
15919TIP3    H269173  -0.009   6.069   5.394 -0.5416 -0.0784 -0.5823
15920TIP3   OH269174   3.171   3.791   4.900  0.3891 -0.0680  1.0075
15920TIP3    H169175   3.169   3.750   4.986  1.3965  3.4365  2.8653
15920TIP3    H269176   3.099   3.749   4.852 -1.8969 -0.4197  4.4122
15921TIP3   OH269177   0.250   1.221   4.172  0.4057 -0.0954  0.1732
15921TIP3    H169178   0.218   1.160   4.105 -1.1991  1.6476 -0.7350
15921TIP3    H269179   0.255   1.168   4.252 -2.4402 -1.1095 -0.2008
15922TIP3   OH269180   4.973   2.160  15.091 -0.3288 -0.2576 -0.2361
15922TIP3    H169181   5.040   2.227  15.104  0.6135 -1.2705  0.2258
15922TIP3    H269182   4.926   2.157  15.174  1.1086 -1.7379  0.5769
15923TIP3   OH269183   4.042   5.765  15.200 -0.1957 -0.6037  0.0619
15923TIP3    H169184   4.133   5.734  15.200 -0.8279 -2.6899  1.8581
15923TIP3    H269185   4.002   5.721  15.274 -2.9703 -0.5845 -1.3128
15924TIP3   OH269186   1.586   2.670  17.273  0.0681 -0.5567  0.3704
15924TIP3    H169187   1.521   2.620  17.322  1.2465 -1.7853  0.7310
15924TIP3    H269188   1.598   2.620  17.192 -1.5083  1.1939 -1.0562
15925TIP3   OH269189   4.842   6.252  15.954  0.1194 -0.1340  0.7232
15925TIP3    H169190   4.749   6.272  15.960  0.1787  0.0166  1.1519
15925TIP3    H269191   4.849   6.162  15.984  0.1892  0.0591  1.3099
15926TIP3   OH269192   4.968   5.097   0.319 -0.5698  0.5462 -0.1134
15926TIP3    H169193   5.054   5.136   0.331  0.2241 -0.1527 -2.9034
15926TIP3    H269194   4.985   5.005   0.299 -1.6640  0.9469 -3.5183
15927TIP3   OH269195   1.953   0.361   3.012 -0.3537  0.5350 -0.1630
15927TIP3    H169196   1.938   0.453   2.989 -1.3174  0.3588 -0.2659
15927TIP3    H269197   1.972   0.318   2.929 -0.9212  0.4510 -0.2511
15928TIP3   OH269198   4.492   3.266  12.202  0.1201 -0.1294  0.3272
15928TIP3    H169199   4.513   3.322  12.127 -1.3065  0.1302  0.0975
15928TIP3    H269200   4.496   3.177  12.166 -0.6422 -0.0018 -0.0876
15929TIP3   OH269201   0.190   2.641  11.477  0.6143 -0.0245 -0.4256
15929TIP3    H169202   0.106   2.611  11.443  0.7700 -0.9884 -0.0070
15929TIP3    H269203   0.172   2.728  11.513 -0.2860 -0.3773  0.0076
15930TIP3   OH269204   3.581   1.999   2.243 -0.0528  0.4076  0.3129
15930TIP3    H169205   3.588   1.966   2.332  0.1425  1.4058  0.6875
15930TIP3    H269206   3.671   2.011   2.214 -0.0210 -2.2379 -0.9703
15931TIP3   OH269207   2.447   2.085  15.844  0.3557 -0.0024 -0.6279
15931TIP3    H169208   2.498   2.111  15.767 -0.1729 -1.2983 -1.4595
15931TIP3    H269209   2.418   2.167  15.883  0.0981  0.6922 -2.1985
15932TIP3   OH269210   0.627   3.812  15.254 -0.6679 -0.1928  0.3743
15932TIP3    H169211   0.604   3.902  15.278 -1.0969  0.8236 -3.2357
15932TIP3    H269212   0.542   3.768  15.244 -0.5392 -0.3459 -0.0419
15933TIP3   OH269213   2.584   4.483  10.641 -0.4676  0.3575 -0.1065
15933TIP3    H169214   2.629   4.399  10.628 -1.3947 -0.1252 -0.3317
15933TIP3    H269215   2.503   4.474  10.591 -0.6861  1.3087  0.0634
15934TIP3   OH269216   2.492   4.928   0.567  0.1348 -0.2333 -0.7200
15934TIP3    H169217   2.476   4.884   0.651  1.5717  1.1173  0.3154
15934TIP3    H269218   2.413   4.910   0.515 -2.0962  1.2551  1.9220
15935TIP3   OH269219   4.281   4.851  13.294 -0.2698  0.8509  0.0779
15935TIP3    H169220   4.312   4.939  13.272  0.9586  0.2820 -0.5620
15935TIP3    H269221   4.192   4.864  13.325 -0.5991  2.1819 -1.2988
15936TIP3   OH269222   3.231   3.880   4.005 -0.5513 -0.0077 -0.4550
15936TIP3    H169223   3.311   3.927   3.981 -0.6153 -0.0221 -0.6985
15936TIP3    H269224   3.219   3.816   3.936 -1.4239  0.7825 -1.0539
15937TIP3   OH269225   2.712   2.711  10.966  0.0656  0.4714  0.3843
15937TIP3    H169226   2.620   2.686  10.974 -0.0574  1.3890  2.3212
15937TIP3    H269227   2.745   2.712  11.056  2.0490 -0.0741 -0.2910
15938TIP3   OH269228   1.291   4.931   1.113  0.2133 -0.3008  0.4523
15938TIP3    H169229   1.317   5.009   1.064  0.4330 -0.3404  0.5017
15938TIP3    H269230   1.196   4.935   1.117  0.2969  1.1211  2.3008
15939TIP3   OH269231   2.776   4.638  14.570 -0.4311 -0.3442  0.3637
15939TIP3    H169232   2.848   4.633  14.508 -1.4832 -0.0301 -0.9421
15939TIP3    H269233   2.732   4.553  14.563 -1.6090  0.3063 -0.7163
15940TIP3   OH269234   4.036   6.259   0.020  0.2731  0.1724 -0.4517
15940TIP3    H169235   4.131   6.270   0.020  0.1147  1.9181  1.1618
15940TIP3    H269236   4.011   6.266  -0.072  1.7164 -0.7613 -0.9552
15941TIP3   OH269237   1.693   4.758   2.953  0.2109  0.6524  0.0574
15941TIP3    H169238   1.653   4.842   2.977 -0.3363  0.6277 -0.7559
15941TIP3    H269239   1.651   4.733   2.871  0.7591 -0.1597  0.0092
15942TIP3   OH269240   6.469   5.157   2.918  0.1905 -0.1308  0.3500
15942TIP3    H169241   6.557   5.150   2.881  0.9010  1.8107  1.5103
15942TIP3    H269242   6.480   5.135   3.010 -0.5518  0.1065  0.5037
15943TIP3   OH269243   2.038   2.819  15.148  0.4697 -0.3559  0.0869
15943TIP3    H169244   1.998   2.890  15.099  0.4540 -0.1174  0.4417
15943TIP3    H269245   2.100   2.779  15.087  0.2926 -0.1983 -0.1937
15944TIP3   OH269246   3.400   0.780   5.103 -0.5735  0.4453 -0.0216
15944TIP3    H169247   3.485   0.761   5.145  0.2946  0.4551 -1.7021
15944TIP3    H269248   3.393   0.715   5.033 -1.9961  0.4273  0.1090
15945TIP3   OH269249   5.883   2.629  13.070  0.1016 -0.1828  0.3210
15945TIP3    H169250   5.893   2.675  12.986 -0.9304 -0.2200  0.1673
15945TIP3    H269251   5.968   2.639  13.112 -0.0165  1.7188  0.2090
15946TIP3   OH269252   3.344   0.549   1.491 -0.0878 -0.6954 -0.4268
15946TIP3    H169253   3.413   0.496   1.531 -0.1187 -0.4911 -0.0966
15946TIP3    H269254   3.325   0.505   1.409 -0.1517 -1.2294 -0.1298
15947TIP3   OH269255   4.245   6.123  16.572  0.3199  0.3539 -0.5482
15947TIP3    H169256   4.277   6.052  16.627 -0.4344  0.0045 -0.5469
15947TIP3    H269257   4.150   6.124  16.587  0.2256  0.8479 -1.1490
15948TIP3   OH269258   1.390   3.873   5.259 -0.5280 -0.0510 -0.5374
15948TIP3    H169259   1.439   3.823   5.194  0.5019 -0.3844  0.4687
15948TIP3    H269260   1.453   3.888   5.330 -1.8378 -0.3555  0.7224
15949TIP3   OH269261   4.506   3.242   3.524  0.6992 -0.0831  0.4670
15949TIP3    H169262   4.593   3.281   3.527 -0.2146  2.0411  1.4650
15949TIP3    H269263   4.450   3.304   3.571 -1.8916  0.0862 -2.4728
15950TIP3   OH269264   5.159   0.275   1.679  0.5121  0.1631  0.1291
15950TIP3    H169265   5.112   0.357   1.690  0.3123  0.0774 -0.0681
15950TIP3    H269266   5.250   0.301   1.664  0.3893  0.3626 -0.2748
15951TIP3   OH269267   2.365   1.455  12.385  0.2668  0.0478  0.1312
15951TIP3    H169268   2.323   1.522  12.439 -0.5415 -0.8359  0.6347
15951TIP3    H269269   2.342   1.373  12.427  1.2272 -0.5567 -0.4900
15952TIP3   OH269270   0.424   0.536   3.200  0.0500  0.2291  0.6534
15952TIP3    H169271   0.330   0.517   3.198  0.3366 -1.2793  0.4996
15952TIP3    H269272   0.441   0.563   3.290 -0.5732  0.8434  0.6012
15953TIP3   OH269273   6.192   5.626  11.155  0.1172  0.1198 -0.0312
15953TIP3    H169274   6.113   5.587  11.117 -0.3678  1.0733 -0.0288
15953TIP3    H269275   6.264   5.594  11.101 -0.3673 -0.0279 -0.5911
15954TIP3   OH269276   2.648   3.993  12.629  0.3768 -0.3513  0.5756
15954TIP3    H169277   2.708   3.939  12.578 -1.1151 -1.2776 -0.2931
15954TIP3    H269278   2.677   3.982  12.720  0.7747 -1.7752  0.3078
15955TIP3   OH269279   4.321   5.941  16.772 -0.2127  0.1660 -0.4497
15955TIP3    H169280   4.365   5.993  16.840 -0.4004 -0.0644 -0.1519
15955TIP3    H269281   4.374   5.862  16.765  0.5013  0.7128 -1.4259
15956TIP3   OH269282   1.344   4.054  16.786 -0.2981  0.1648  0.5134
15956TIP3    H169283   1.435   4.084  16.788 -0.7996  1.8845 -0.6193
15956TIP3    H269284   1.337   4.003  16.706 -0.4127  0.3141  0.4289
15957TIP3   OH269285   5.971   3.115  11.194  0.4020 -0.5809  0.4956
15957TIP3    H169286   5.979   3.030  11.236  0.1546  0.0993  1.9804
15957TIP3    H269287   5.997   3.100  11.103 -1.0818 -2.5494  0.3372
15958TIP3   OH269288   4.703   4.117   2.183  0.2793  1.2036 -0.2836
15958TIP3    H169289   4.700   4.103   2.089  5.0487 -0.3987 -0.4893
15958TIP3    H269290   4.706   4.212   2.193 -1.4359  1.4328 -1.5550
15959TIP3   OH269291   0.299   4.926  15.533 -0.7902  0.3735  0.7852
15959TIP3    H169292   0.205   4.912  15.544 -0.9013  0.1792 -0.2975
15959TIP3    H269293   0.306   5.011  15.491 -0.3224  1.6408  3.2212
15960TIP3   OH269294   2.053   4.060  16.168  0.0196 -0.1591 -1.0173
15960TIP3    H169295   2.080   4.004  16.096  0.2715 -0.7918 -0.4487
15960TIP3    H269296   2.134   4.101  16.198  0.0466 -0.4955 -0.6106
15961TIP3   OH269297   6.053   5.089  15.084  0.1080 -0.1917 -0.3523
15961TIP3    H169298   6.048   5.184  15.092 -0.4006 -0.3328  1.3451
15961TIP3    H269299   5.965   5.062  15.058 -0.2617 -0.3269  0.9790
15962TIP3   OH269300   6.364   4.415  14.081  0.5304 -0.1103  0.5337
15962TIP3    H169301   6.436   4.476  14.097  2.5163 -1.8231 -1.2418
15962TIP3    H269302   6.330   4.393  14.168  2.7288  0.1448  1.4964
15963TIP3   OH269303   6.598   2.316   4.324 -0.5157 -0.4246  0.6052
15963TIP3    H169304   6.619   2.409   4.335  1.3788 -0.9305  1.6736
15963TIP3    H269305   6.612   2.277   4.410 -2.4733 -1.5415  0.4854
15964TIP3   OH269306   1.719   6.509   1.220  0.8630  0.0307  0.5268
15964TIP3    H169307   1.763   6.590   1.192  2.5391 -1.1491 -0.4033
15964TIP3    H269308   1.671   6.480   1.142  0.0324  0.2410  0.9440
15965TIP3   OH269309   4.960   5.380  12.214  0.2430  0.1974 -0.2175
15965TIP3    H169310   4.993   5.344  12.296 -0.1118 -0.4327 -0.3480
15965TIP3    H269311   5.018   5.454  12.195 -0.6253  1.3415  1.4026
15966TIP3   OH269312   0.588   1.461   1.575 -0.4104  0.9139  0.1767
15966TIP3    H169313   0.634   1.517   1.637 -2.3515  1.8195  0.9032
15966TIP3    H269314   0.530   1.520   1.527  0.9075  0.2150 -2.4684
15967TIP3   OH269315   2.001   3.769  15.845 -0.3649 -0.1824  0.0371
15967TIP3    H169316   1.952   3.703  15.797 -2.1527  1.1520 -0.1038
15967TIP3    H269317   1.994   3.742  15.937 -0.8574 -0.3590 -0.0472
15968TIP3   OH269318   4.858   5.428  12.621  0.3947  0.4932 -0.6425
15968TIP3    H169319   4.884   5.346  12.581 -1.3310 -0.0082 -0.7967
15968TIP3    H269320   4.928   5.447  12.684  1.0881 -0.7945 -0.9975
15969TIP3   OH269321   1.455   3.996   0.560  0.3395  0.3566  0.1698
15969TIP3    H169322   1.391   4.004   0.490  0.4731 -0.3802 -0.0442
15969TIP3    H269323   1.425   4.057   0.628 -0.2321  0.4771 -0.1904
15970TIP3   OH269324   6.128   5.356  10.783 -0.1520  0.0908  0.0291
15970TIP3    H169325   6.223   5.371  10.777 -0.0377 -1.0705 -2.1112
15970TIP3    H269326   6.089   5.434  10.744  0.0037 -0.1688 -0.6583
15971TIP3   OH269327   2.154   4.532  13.839 -0.2231  0.1323 -0.2691
15971TIP3    H169328   2.174   4.625  13.839 -0.4656  0.1834 -0.2002
15971TIP3    H269329   2.060   4.527  13.853  0.1556 -0.1881  2.9341
15972TIP3   OH269330   3.016   0.189   1.380  0.0165 -0.2397 -0.2280
15972TIP3    H169331   2.993   0.109   1.332 -1.3288 -0.4302  0.7048
15972TIP3    H269332   3.083   0.230   1.325  0.2539 -1.6611 -1.0607
15973TIP3   OH269333   1.825   1.229   6.342  0.0826 -0.0177  0.6850
15973TIP3    H169334   1.831   1.299   6.277 -0.5307 -0.1885  0.4380
15973TIP3    H269335   1.907   1.180   6.331 -0.7350 -1.0991 -1.2016
15974TIP3   OH269336   5.155   5.571  10.568 -0.3504  0.2801  0.8982
15974TIP3    H169337   5.098   5.604  10.498  1.3714  0.2420 -0.5715
15974TIP3    H269338   5.101   5.506  10.613 -1.6250  0.5477 -0.1720
15975TIP3   OH269339   1.795   6.113  14.823  0.2486 -0.3380 -0.1092
15975TIP3    H169340   1.840   6.074  14.748 -1.6612  1.5650 -2.4303
15975TIP3    H269341   1.819   6.206  14.819 -0.2878 -0.1121  1.3485
15976TIP3   OH269342   3.089   3.093  12.621 -0.1103  0.5266 -0.3631
15976TIP3    H169343   3.129   3.021  12.671 -3.1037 -1.7722 -0.9357
15976TIP3    H269344   3.106   3.071  12.530 -0.6571  0.7668 -0.5298
15977TIP3   OH269345   2.910   5.743  16.909  0.5660  0.0979  0.2004
15977TIP3    H169346   2.880   5.811  16.970  1.8261  0.9026 -0.0388
15977TIP3    H269347   2.835   5.684  16.901 -0.1640  0.8193  1.3191
15978TIP3   OH269348   3.907   3.466  16.521  0.4613  0.2521 -0.5725
15978TIP3    H169349   3.971   3.395  16.521 -0.3819 -0.5627 -2.5835
15978TIP3    H269350   3.830   3.430  16.477 -0.2332  2.2147 -1.0780
15979TIP3   OH269351   4.083   3.693   0.205 -0.0192 -0.3762  0.0903
15979TIP3    H169352   4.123   3.676   0.120  1.8038 -0.5205  0.9260
15979TIP3    H269353   3.991   3.669   0.194  0.4431 -1.5406 -1.4895
15980TIP3   OH269354   3.014   3.916   5.520 -0.1952  0.1137 -0.0288
15980TIP3    H169355   3.095   3.870   5.500 -0.7811 -1.6217  1.3611
15980TIP3    H269356   2.960   3.851   5.565 -2.2565  1.3044 -0.6661
15981TIP3   OH269357   3.011   2.926   2.520 -0.1349 -0.6259  0.6298
15981TIP3    H169358   3.000   2.909   2.426  0.4415 -0.9357  0.6128
15981TIP3    H269359   2.929   2.966   2.547 -0.7233 -1.5147  0.2125
15982TIP3   OH269360   3.628   5.722   3.612  0.5111  0.0496  0.0762
15982TIP3    H169361   3.548   5.695   3.567  1.1162 -0.3542 -0.7966
15982TIP3    H269362   3.598   5.763   3.693 -0.5219 -2.3937  1.0264
15983TIP3   OH269363   2.712   4.777   4.856  0.2139 -0.1699 -0.1024
15983TIP3    H169364   2.662   4.844   4.901 -2.5071 -2.2437  0.2085
15983TIP3    H269365   2.677   4.776   4.767  1.0876 -0.4045 -0.4625
15984TIP3   OH269366   3.749   4.006   2.137 -0.2144  0.1750  0.6176
15984TIP3    H169367   3.813   3.972   2.200 -0.5110 -1.9525 -0.1434
15984TIP3    H269368   3.798   4.014   2.055 -0.6393 -0.3464  0.3077
15985TIP3   OH269369   3.788   5.304   3.121 -0.0945 -0.8368 -0.4857
15985TIP3    H169370   3.753   5.253   3.195  0.3125 -0.1232  0.2157
15985TIP3    H269371   3.736   5.384   3.121  0.2325 -0.6250 -0.6683
15986TIP3   OH269372   0.757   3.253  10.545  0.1523 -0.4746 -0.0083
15986TIP3    H169373   0.817   3.187  10.578  0.0342  0.0348  1.3086
15986TIP3    H269374   0.811   3.331  10.534  0.1587 -0.5992 -0.9095
15987TIP3   OH269375   4.800   4.842   5.230  0.0910  0.3386  0.7099
15987TIP3    H169376   4.865   4.912   5.229 -0.1015  0.5316 -0.6392
15987TIP3    H269377   4.826   4.785   5.302 -0.3353  2.3143  2.5171
15988TIP3   OH269378   6.233   0.047   0.194  0.6510  0.0557 -0.4439
15988TIP3    H169379   6.274   0.130   0.169  0.9536  0.2211  0.5728
15988TIP3    H269380   6.298   0.003   0.248 -0.3170  0.1170  0.8197
15989TIP3   OH269381   4.976   2.612   2.498 -0.3788 -0.0263 -0.4864
15989TIP3    H169382   4.952   2.669   2.426  1.8828 -0.5329 -1.7509
15989TIP3    H269383   4.951   2.525   2.470  1.9429 -0.4474 -1.4680
15990TIP3   OH269384   0.127   2.062   1.058 -0.5172  0.4167  0.7379
15990TIP3    H169385   0.204   2.007   1.042  0.6092  1.7992  1.2153
15990TIP3    H269386   0.152   2.149   1.026 -2.3169  0.6571 -0.1586
15991TIP3   OH269387   0.672   2.403   1.707  0.3869 -0.5805  0.3515
15991TIP3    H169388   0.761   2.411   1.741  0.3586  0.2529  0.2441
15991TIP3    H269389   0.625   2.357   1.776  0.5902  0.1388  0.9963
15992TIP3   OH269390   4.832   5.228   3.936 -0.5484 -0.0845  0.8887
15992TIP3    H169391   4.858   5.288   3.866  0.8198  0.4757  1.8532
15992TIP3    H269392   4.816   5.145   3.891 -0.2753  0.4205 -0.1686
15993TIP3   OH269393   1.126   5.795   1.566 -0.0461  0.2767  0.9718
15993TIP3    H169394   1.214   5.830   1.577 -0.1087  0.8425 -0.1327
15993TIP3    H269395   1.113   5.795   1.471 -2.4497  3.3307  1.1531
15994TIP3   OH269396   4.335   6.229   4.469  0.0939 -1.0092 -0.4827
15994TIP3    H169397   4.372   6.266   4.550 -1.8954 -0.4410  0.2330
15994TIP3    H269398   4.290   6.150   4.498 -2.4092  0.2642 -0.5705
15995TIP3   OH269399   1.010   3.948  15.024  0.1061  0.1110  0.0946
15995TIP3    H169400   1.050   3.990  15.101 -0.2026 -1.4412  1.1584
15995TIP3    H269401   1.078   3.953  14.956  1.5043 -0.9434  1.3328
15996TIP3   OH269402   4.161   4.306  15.506  0.1602  0.3966 -0.3963
15996TIP3    H169403   4.191   4.215  15.507 -1.3513 -0.1721 -1.3829
15996TIP3    H269404   4.227   4.355  15.554  1.3043 -1.1385 -0.3493
15997TIP3   OH269405   6.650   4.508  17.177  0.0097  0.1193 -0.7035
15997TIP3    H169406   6.732   4.517  17.225  0.7424  0.9566 -2.0651
15997TIP3    H269407   6.646   4.415  17.155  1.0983  0.2337 -1.4625
15998TIP3   OH269408   2.717   1.677   2.947  0.4283 -0.0741  0.2631
15998TIP3    H169409   2.782   1.747   2.934 -0.8000  1.0540 -0.0881
15998TIP3    H269410   2.703   1.641   2.859 -1.9913  2.1348 -0.3917
15999TIP3   OH269411   0.809   3.947  16.989 -0.0058  0.0338  0.1200
15999TIP3    H169412   0.750   3.926  16.917 -0.4782 -1.7537  0.9745
15999TIP3    H269413   0.838   3.862  17.022  0.0161  0.7769  2.1662
16000TIP3   OH269414   2.163   2.218  12.852 -0.3193  1.0865  0.3261
16000TIP3    H169415   2.120   2.134  12.835  0.6873  0.8807 -1.3982
16000TIP3    H269416   2.137   2.274  12.779  0.0435  1.8677  0.7886
16001TIP3   OH269417   3.248   1.961   4.997  0.2030  0.1447 -0.1922
16001TIP3    H169418   3.275   2.053   4.993 -2.0095  0.9923  1.5629
16001TIP3    H269419   3.187   1.951   4.924  0.2574  0.1554 -0.2391
16002TIP3   OH269420   0.774   3.161  14.436  0.4518  0.1112  0.0247
16002TIP3    H169421   0.830   3.233  14.407  1.5236 -1.1455 -1.1649
16002TIP3    H269422   0.688   3.200  14.445  0.8813  1.4333 -1.1897
16003TIP3   OH269423   0.300   5.382  16.992  0.3303 -0.1363  0.5164
16003TIP3    H169424   0.378   5.419  16.952 -0.7247  1.9765  0.2472
16003TIP3    H269425   0.228   5.435  16.957 -1.0731 -1.1105  1.7941
16004TIP3   OH269426   5.874   4.209   2.696  0.0453  0.0739 -0.6502
16004TIP3    H169427   5.927   4.270   2.645 -0.5943 -0.4234 -1.9470
16004TIP3    H269428   5.788   4.211   2.654 -0.9241  0.6529  1.2308
16005TIP3   OH269429   0.021   4.223   3.832  0.4490  0.3412  0.1393
16005TIP3    H169430   0.052   4.257   3.748  0.8214  0.2614  0.2424
16005TIP3    H269431  -0.030   4.295   3.870 -1.3327 -0.2465 -0.9853
16006TIP3   OH269432   4.721   3.155   5.909 -0.2980 -0.2932  0.2154
16006TIP3    H169433   4.689   3.115   5.990 -1.0878 -0.9911 -0.4097
16006TIP3    H269434   4.783   3.091   5.874 -1.3344 -0.8590 -0.6365
16007TIP3   OH269435   6.414   6.252   1.312  0.0680  0.0633 -0.4188
16007TIP3    H169436   6.368   6.252   1.396  0.1211  0.7415 -0.3878
16007TIP3    H269437   6.347   6.230   1.248  0.5574 -3.4594  0.0531
16008TIP3   OH269438   1.110   5.343  12.266 -0.1190 -0.4307  0.5962
16008TIP3    H169439   1.185   5.299  12.225  0.1605  0.1333  0.4831
16008TIP3    H269440   1.149   5.416  12.314 -0.5921 -0.1666  0.5822
16009TIP3   OH269441   5.721   3.281   6.079 -0.5245 -0.4053  0.6083
16009TIP3    H169442   5.648   3.225   6.052  0.9474 -2.0240 -0.1785
16009TIP3    H269443   5.795   3.222   6.089  1.0182  1.3372  0.1405
16010TIP3   OH269444   3.564   0.036  15.655 -0.3362 -0.6374  0.4112
16010TIP3    H169445   3.532   0.118  15.616 -0.2240 -1.4722 -1.5574
16010TIP3    H269446   3.554   0.049  15.749 -0.3071  1.6395  0.1614
16011TIP3   OH269447   3.159   6.590  13.847 -0.3949  0.4504  1.1806
16011TIP3    H169448   3.146   6.598  13.942  0.1676  1.5909  1.1775
16011TIP3    H269449   3.249   6.620  13.833  0.0563 -1.1610  0.4518
16012TIP3   OH269450   3.964   2.363   4.835 -0.6540 -0.1359  0.1127
16012TIP3    H169451   3.970   2.354   4.930 -2.4843 -1.1485  0.1669
16012TIP3    H269452   3.940   2.455   4.821  2.0868  0.7203  0.4367
16013TIP3   OH269453   6.106   4.102  15.902  0.4588  0.3287 -0.0505
16013TIP3    H169454   6.149   4.076  15.983 -1.1123  0.5995  0.9255
16013TIP3    H269455   6.024   4.052  15.901  2.2117 -3.0749 -3.6757
16014TIP3   OH269456   2.071   3.555  13.944  0.6414  0.2537  0.1755
16014TIP3    H169457   2.132   3.622  13.913  2.0795 -0.9431  0.2786
16014TIP3    H269458   2.062   3.495  13.870  1.3706 -0.7592  0.8670
16015TIP3   OH269459   5.547   4.556   2.817  0.1725 -0.1039  0.2016
16015TIP3    H169460   5.559   4.492   2.888  0.1114 -0.0948  0.2209
16015TIP3    H269461   5.490   4.623   2.855  0.3190  0.0130  0.2134
16016TIP3   OH269462   1.324   3.601  17.194 -0.6517  0.0097 -0.1515
16016TIP3    H169463   1.340   3.688  17.233 -0.0102 -0.1860  0.0330
16016TIP3    H269464   1.410   3.559  17.193 -1.0417 -0.8182  0.2193
16017TIP3   OH269465   1.153   4.406  11.184 -0.0610 -0.6138  0.1010
16017TIP3    H169466   1.091   4.342  11.220  0.7555 -1.4194  0.1072
16017TIP3    H269467   1.201   4.438  11.260 -0.9394  0.5557  0.1905
16018TIP3   OH269468   2.823   2.646   2.354  0.3023  0.5208  0.3709
16018TIP3    H169469   2.878   2.644   2.275 -0.2152  2.6703 -0.0993
16018TIP3    H269470   2.864   2.583   2.413  1.1944 -0.5295 -1.2946
16019TIP3   OH269471   4.285   4.767  11.086 -0.3572 -0.2310  0.7715
16019TIP3    H169472   4.304   4.815  11.005  1.6973 -1.7452  0.2974
16019TIP3    H269473   4.190   4.757  11.085 -0.4522  0.4186 -1.0839
16020TIP3   OH269474   5.360   6.625  11.539 -0.1904  0.0691  0.8186
16020TIP3    H169475   5.361   6.694  11.472  2.5599 -0.7327 -0.1020
16020TIP3    H269476   5.277   6.580  11.525 -0.0627  0.4233 -1.5627
16021TIP3   OH269477   5.549   2.045  13.240  0.1541 -0.0343  0.2084
16021TIP3    H169478   5.527   1.952  13.244  0.3487 -0.0640  0.7255
16021TIP3    H269479   5.486   2.083  13.179 -0.6344 -0.3015  0.8506
16022TIP3   OH269480   1.860   2.444   0.141  0.5109 -0.2619 -0.0105
16022TIP3    H169481   1.849   2.394   0.060  0.3649 -0.2112 -0.0228
16022TIP3    H269482   1.873   2.377   0.208 -0.3335 -0.3546  0.0765
16023TIP3   OH269483   2.560   6.363   1.595  0.3403 -0.0229  0.1289
16023TIP3    H169484   2.532   6.271   1.596 -1.0711  0.3462 -1.0052
16023TIP3    H269485   2.592   6.377   1.506  1.8110  0.2672  0.6770
16024TIP3   OH269486   0.222   4.794   1.609 -0.3057 -0.1550 -0.1661
16024TIP3    H169487   0.225   4.699   1.596  0.6216 -0.0932 -0.4677
16024TIP3    H269488   0.130   4.817   1.595 -0.3477 -0.8548 -1.1636
16025TIP3   OH269489   3.682   5.658   2.233  0.3597  0.2063  0.0362
16025TIP3    H169490   3.636   5.724   2.286  0.1900  0.3277 -0.2611
16025TIP3    H269491   3.612   5.605   2.196  0.4442  0.5320 -0.6076
16026TIP3   OH269492   2.257   6.489   1.817 -0.1906 -0.0967 -0.4886
16026TIP3    H169493   2.347   6.517   1.802 -0.7324  0.1775 -4.2908
16026TIP3    H269494   2.208   6.571   1.824 -0.3797 -0.2449 -0.0127
16027TIP3   OH269495   6.259   5.613  15.911  0.6085 -0.2082 -0.1140
16027TIP3    H169496   6.224   5.700  15.928  0.6334 -0.3425  0.6768
16027TIP3    H269497   6.343   5.612  15.958  1.0268 -0.3598 -0.8503
16028TIP3   OH269498   3.531   4.525   0.483 -0.7713  0.1658  0.2707
16028TIP3    H169499   3.538   4.445   0.430 -0.6844 -0.0974  0.6703
16028TIP3    H269500   3.467   4.502   0.551 -1.5716  0.7972 -0.2416
16029TIP3   OH269501   0.638   4.058   1.333 -0.4157  0.2380  0.1613
16029TIP3    H169502   0.657   4.074   1.241 -0.4133  1.4347  0.3492
16029TIP3    H269503   0.699   4.115   1.380 -0.9528  0.2333  0.8801
16030TIP3   OH269504   4.685   4.339  11.893 -0.7957  0.1971 -0.1116
16030TIP3    H169505   4.742   4.269  11.864 -0.3659 -0.1917  1.5337
16030TIP3    H269506   4.611   4.294  11.934  0.6150  0.5639  3.1392
16031TIP3   OH269507   0.968   3.724   3.859  0.1597  0.0371  0.3493
16031TIP3    H169508   0.957   3.688   3.771 -1.1820  0.6889  0.2234
16031TIP3    H269509   0.948   3.817   3.850  2.9827  0.7933  0.7795
16032TIP3   OH269510   6.130   0.870   1.861 -0.1177  0.7243 -0.1802
16032TIP3    H169511   6.211   0.919   1.854 -0.1012  0.8463  0.7257
16032TIP3    H269512   6.110   0.870   1.955 -0.5328 -0.3198 -0.2495
16033TIP3   OH269513   5.962   0.851   3.864  0.2927  0.2160 -0.2053
16033TIP3    H169514   5.889   0.827   3.921 -0.1004  1.0952 -0.3185
16033TIP3    H269515   6.022   0.776   3.869  0.5893  0.5129  1.8936
16034TIP3   OH269516   3.840   2.234   0.978 -0.4986 -0.3575 -0.0500
16034TIP3    H169517   3.922   2.192   0.952  0.8761  1.0762  1.7532
16034TIP3    H269518   3.829   2.210   1.070 -1.8622 -0.1242 -0.1371
16035TIP3   OH269519   5.855   6.533  16.844 -0.5840  0.0589 -0.4779
16035TIP3    H169520   5.790   6.528  16.774  0.2083 -1.6848 -1.1512
16035TIP3    H269521   5.829   6.609  16.896 -2.8097 -0.2565 -1.0357
16036TIP3   OH269522   0.431   3.267  12.897 -0.0561 -0.5202 -0.6409
16036TIP3    H169523   0.521   3.278  12.928  0.3474 -0.1289 -1.8820
16036TIP3    H269524   0.377   3.304  12.967  0.8081  0.2872 -0.3827
16037TIP3   OH269525   3.462   3.022   2.116  0.9244 -0.0580 -0.0448
16037TIP3    H169526   3.538   2.992   2.065  1.4599  0.0816  0.6532
16037TIP3    H269527   3.498   3.090   2.174  0.7160 -1.4074  1.7487
16038TIP3   OH269528   3.397   4.717  12.831  0.8041  0.5494  0.3011
16038TIP3    H169529   3.383   4.648  12.895  1.9404 -0.0957 -0.1119
16038TIP3    H269530   3.412   4.671  12.749  0.4015  1.3336 -0.2336
16039TIP3   OH269531   5.732   5.833   3.251 -0.0266 -0.4364 -0.7645
16039TIP3    H169532   5.651   5.837   3.201 -0.2705 -1.9322 -0.5301
16039TIP3    H269533   5.719   5.763   3.315  1.3681 -0.5970 -0.6044
16040TIP3   OH269534   4.295   0.193  15.068  0.5033  0.2315  0.5134
16040TIP3    H169535   4.206   0.223  15.050  0.5530 -0.7481 -1.7957
16040TIP3    H269536   4.284   0.106  15.106  0.4555  0.2327  0.5019
16041TIP3   OH269537   3.132   4.859  13.930 -0.0029 -0.4007 -0.1922
16041TIP3    H169538   3.061   4.893  13.876  0.0496  0.0754  0.0329
16041TIP3    H269539   3.176   4.937  13.963  0.6498 -0.6955 -0.3620
16042TIP3   OH269540   4.411   2.478   1.938 -0.3158 -0.0486  0.0833
16042TIP3    H169541   4.376   2.532   1.867 -1.8581 -1.2559 -0.1263
16042TIP3    H269542   4.379   2.389   1.919  1.5965 -0.9294  0.7747
16043TIP3   OH269543   2.293   5.052   0.905  0.6595  0.8313 -0.4427
16043TIP3    H169544   2.312   5.140   0.872  2.1651  2.3325  3.7129
16043TIP3    H269545   2.379   5.009   0.909  0.5846  0.7612  1.2816
16044TIP3   OH269546   0.396   4.985   0.360  0.6770  0.1189  0.1566
16044TIP3    H169547   0.423   4.896   0.378 -0.3619 -0.2022  0.2164
16044TIP3    H269548   0.422   5.001   0.270  1.5157  0.0116  0.3789
16045TIP3   OH269549   5.508   1.237   6.271 -0.2072  0.7412 -0.1583
16045TIP3    H169550   5.579   1.250   6.207  0.3830  1.2557  0.5880
16045TIP3    H269551   5.475   1.325   6.287 -2.6770  0.3413 -2.3009
16046TIP3   OH269552   0.082   5.369  11.512  0.4174  0.2956  0.8677
16046TIP3    H169553   0.083   5.425  11.589 -1.1223 -0.1326  1.2343
16046TIP3    H269554   0.124   5.421  11.443 -0.2229  1.5600  1.4172
16047TIP3   OH269555   3.346   1.937   0.427 -0.5873  0.3484 -0.4267
16047TIP3    H169556   3.381   1.861   0.380 -0.1445  0.1092  0.2811
16047TIP3    H269557   3.251   1.930   0.415 -0.6715 -1.1395  0.8488
16048TIP3   OH269558   2.729   5.276   0.575  0.1382  0.7748 -0.0985
16048TIP3    H169559   2.635   5.285   0.589  0.1444  1.3047 -0.3953
16048TIP3    H269560   2.737   5.232   0.490  0.1576  0.4005  0.0923
16049TIP3   OH269561   6.726   5.346   4.953 -0.4239 -0.2892  0.3955
16049TIP3    H169562   6.709   5.438   4.930  0.0244 -0.4680 -0.7154
16049TIP3    H269563   6.674   5.296   4.890 -1.7942 -0.8313  1.8830
16050TIP3   OH269564   6.674   4.347   2.419 -0.4299 -0.7733 -0.2928
16050TIP3    H169565   6.681   4.270   2.475 -0.8097 -2.0156 -1.8569
16050TIP3    H269566   6.602   4.325   2.359  0.4209  0.1740 -1.6983
16051TIP3   OH269567   4.062   1.653   5.178  0.2661 -0.2644 -0.1603
16051TIP3    H169568   4.031   1.615   5.261  0.6936 -0.1596  0.0532
16051TIP3    H269569   3.999   1.623   5.113 -0.7160  0.5843  0.3793
16052TIP3   OH269570   3.468   1.588  11.556 -0.0758 -0.0102 -0.5973
16052TIP3    H169571   3.557   1.583  11.521 -0.3689 -1.2432 -1.2211
16052TIP3    H269572   3.458   1.679  11.583  2.2400 -0.3596  1.8482
16053TIP3   OH269573   2.720   3.840  15.671 -0.6185  0.4153 -0.3166
16053TIP3    H169574   2.632   3.808  15.648 -0.4381 -0.6968  0.4627
16053TIP3    H269575   2.717   3.850  15.766  0.9491 -2.5142  0.1554
16054TIP3   OH269576   2.681   4.628  15.168  0.3423  0.2339  0.5340
16054TIP3    H169577   2.765   4.596  15.198  0.3069  1.3790  1.9248
16054TIP3    H269578   2.622   4.553  15.178  0.9163 -0.2008  0.7135
16055TIP3   OH269579   5.463   6.304  15.717 -0.5478 -0.2569 -0.0946
16055TIP3    H169580   5.404   6.239  15.680  0.3748 -1.2260  0.0676
16055TIP3    H269581   5.442   6.305  15.810  0.4262 -1.4449  0.1628
16056TIP3   OH269582   4.025   5.624  15.669 -0.4681 -0.3814  0.1512
16056TIP3    H169583   4.007   5.583  15.585  2.1739 -0.1298 -0.5975
16056TIP3    H269584   4.096   5.572  15.707  0.8535  1.6143  0.5589
16057TIP3   OH269585   0.198   4.978   3.550 -0.3071 -0.3031 -0.1537
16057TIP3    H169586   0.185   4.976   3.644  1.7960  0.3614  0.1878
16057TIP3    H269587   0.159   5.061   3.523 -0.5958 -0.3324  0.1580
16058TIP3   OH269588   1.338   2.540  13.848 -0.1077  0.1677  0.2415
16058TIP3    H169589   1.282   2.495  13.784 -1.0903  2.1547 -0.3953
16058TIP3    H269590   1.425   2.501  13.835 -0.9563 -1.7553  0.0089
16059TIP3   OH269591   2.010   1.221  11.072  0.0139  0.2150  0.2818
16059TIP3    H169592   1.979   1.138  11.109 -0.6080 -0.0853 -0.8314
16059TIP3    H269593   2.079   1.195  11.011 -0.6554  0.4325 -0.5861
16060TIP3   OH269594   3.375   1.732  15.362 -0.0377  0.1509 -0.2254
16060TIP3    H169595   3.399   1.781  15.284  0.5596 -1.3398 -1.0025
16060TIP3    H269596   3.283   1.708  15.348  0.5829 -1.7327 -1.3997
16061TIP3   OH269597   0.507   0.052  12.691  0.1419  0.3143 -0.1559
16061TIP3    H169598   0.585   0.075  12.741 -2.7617  2.7481  4.0058
16061TIP3    H269599   0.475  -0.028  12.732 -0.6747  0.5881 -0.2365
16062TIP3   OH269600   0.891   0.411  11.101 -0.3544 -0.1633 -0.1036
16062TIP3    H169601   0.918   0.344  11.038  0.7241  0.3205 -0.1698
16062TIP3    H269602   0.954   0.482  11.090 -0.1816 -0.0389  1.4772
16063TIP3   OH269603   4.002   4.859  13.364  0.5746 -0.2943 -0.1345
16063TIP3    H169604   3.941   4.933  13.354  1.8174  0.8863  0.6013
16063TIP3    H269605   3.973   4.815  13.444 -0.0152 -0.4661 -0.4325
16064TIP3   OH269606   4.455   0.056   4.342 -0.4584 -0.5207 -0.0689
16064TIP3    H169607   4.461   0.008   4.259 -0.9432 -0.7604  0.0288
16064TIP3    H269608   4.536   0.108   4.345  0.5888 -2.0871  0.2895
16065TIP3   OH269609   4.035   0.676  12.059 -0.3353  0.5138  0.2482
16065TIP3    H169610   3.968   0.706  12.120  0.4309 -0.7842  1.8261
16065TIP3    H269611   4.116   0.718  12.090 -0.1182  0.7045 -0.5593
16066TIP3   OH269612   5.369   2.560  13.628 -0.4989 -0.3174 -0.1614
16066TIP3    H169613   5.390   2.507  13.704  0.5132  1.9197  1.2128
16066TIP3    H269614   5.400   2.509  13.553  2.4337 -0.7552  1.2354
16067TIP3   OH269615   4.800   4.259  10.957 -1.0480 -0.2652 -0.4325
16067TIP3    H169616   4.731   4.195  10.938 -0.6690 -1.5344  2.0731
16067TIP3    H269617   4.879   4.221  10.919 -1.1430 -0.3891 -0.5085
16068TIP3   OH269618   1.148   6.404  12.622  0.3245 -0.2874  0.3608
16068TIP3    H169619   1.089   6.465  12.578 -0.6965 -1.2948  0.2994
16068TIP3    H269620   1.227   6.405  12.568 -0.5888 -0.8511 -1.0401
16069TIP3   OH269621   5.121   2.175  16.490 -0.1845 -0.0809  0.7272
16069TIP3    H169622   5.067   2.170  16.411  0.1672 -1.0873  0.5321
16069TIP3    H269623   5.075   2.121  16.554 -0.8849  1.3692  1.4927
16070TIP3   OH269624   5.766   2.205  13.860 -0.2758  0.4404  0.0611
16070TIP3    H169625   5.747   2.274  13.796 -0.9806  0.5195  0.3462
16070TIP3    H269626   5.790   2.253  13.940  0.5211  0.3427 -0.1118
16071TIP3   OH269627   0.189   5.688   2.162  0.2076  0.4960  0.3811
16071TIP3    H169628   0.133   5.708   2.086  0.4315  1.8588  0.5592
16071TIP3    H269629   0.129   5.646   2.224  0.2791 -1.8355 -0.9943
16072TIP3   OH269630   3.709   1.790  14.292 -0.3216  0.3456  0.3166
16072TIP3    H169631   3.774   1.859  14.274  0.6935 -0.9670 -1.3836
16072TIP3    H269632   3.730   1.760  14.381  2.9702 -1.5316 -0.9239
16073TIP3   OH269633   4.128   0.184   0.716  0.1037  0.1821 -0.3841
16073TIP3    H169634   4.166   0.103   0.682  0.3943  0.1949 -0.0957
16073TIP3    H269635   4.104   0.164   0.806  1.4304  0.7960  0.1430
16074TIP3   OH269636   6.647   1.440   4.767  0.7853 -0.1122  0.0705
16074TIP3    H169637   6.678   1.366   4.818 -0.1862  0.1385  1.0564
16074TIP3    H269638   6.583   1.483   4.823 -0.8404 -0.2211 -1.6079
16075TIP3   OH269639   4.794   4.391  15.013  0.5464  0.0619 -0.0752
16075TIP3    H169640   4.885   4.363  14.998  0.2328 -0.9853 -0.0777
16075TIP3    H269641   4.768   4.345  15.093 -0.9860 -2.1340 -1.7401
16076TIP3   OH269642   2.831   3.649   0.979  0.5517 -0.3644 -0.2994
16076TIP3    H169643   2.923   3.632   0.959  1.1050 -0.3135  1.9584
16076TIP3    H269644   2.814   3.737   0.943  0.5819 -1.3677 -2.9964
16077TIP3   OH269645   2.226   1.333   5.142  0.2834  0.4270  0.2235
16077TIP3    H169646   2.191   1.268   5.203  0.4529  1.2022  1.1805
16077TIP3    H269647   2.231   1.288   5.058 -1.2564 -0.2566  0.4741
16078TIP3   OH269648   6.757   2.592   4.548  0.1129 -0.0625 -0.0285
16078TIP3    H169649   6.720   2.679   4.535 -0.5268 -0.0467  1.6189
16078TIP3    H269650   6.765   2.556   4.460 -2.4138  0.5433 -0.5855
16079TIP3   OH269651   3.911   3.230   2.402  0.1507 -0.0980 -0.0489
16079TIP3    H169652   3.915   3.303   2.465  0.7397  0.7134 -0.9947
16079TIP3    H269653   3.936   3.269   2.319 -2.4906 -0.6985 -1.2293
16080TIP3   OH269654   6.344   2.456   2.238  0.1803  0.1016  0.4305
16080TIP3    H169655   6.302   2.376   2.206 -0.0081  0.7133 -0.9120
16080TIP3    H269656   6.429   2.427   2.272  0.6603 -0.5169 -1.2287
16081TIP3   OH269657   3.748   2.035   1.567 -0.5180 -0.3949 -0.1169
16081TIP3    H169658   3.815   1.989   1.516 -1.0633 -0.0139 -1.2194
16081TIP3    H269659   3.796   2.081   1.635  0.1231 -1.9191  0.5104
16082TIP3   OH269660   2.852   5.027   4.427  0.0349  0.2114  0.1699
16082TIP3    H169661   2.833   4.936   4.451 -0.7775  0.7860  1.8588
16082TIP3    H269662   2.941   5.042   4.459  1.6732 -0.9967 -3.3383
16083TIP3   OH269663   3.304   2.021   4.149  0.0153 -0.0498 -0.2029
16083TIP3    H169664   3.394   2.033   4.180 -0.6475  2.9589  0.8289
16083TIP3    H269665   3.301   2.065   4.064 -0.5974  0.2745 -0.0174
16084TIP3   OH269666   5.353   4.048   0.414 -0.0150  0.8806  0.0094
16084TIP3    H169667   5.407   4.106   0.360 -0.3514  1.5336  0.3654
16084TIP3    H269668   5.300   3.998   0.351  0.2795  0.9550 -0.2958
16085TIP3   OH269669   5.156   0.720   3.900 -0.4626 -0.2857  0.7277
16085TIP3    H169670   5.147   0.772   3.820 -0.8695 -1.7639 -0.2500
16085TIP3    H269671   5.142   0.781   3.971 -0.7684  0.9527 -0.3624
16086TIP3   OH269672   0.777   0.009  12.575  0.0768 -0.3052 -0.4970
16086TIP3    H169673   0.858  -0.015  12.622  0.1883  0.6525 -0.1788
16086TIP3    H269674   0.736  -0.075  12.555  0.6182 -0.7797  0.2850
16087TIP3   OH269675   1.138   4.112  13.016  0.3362  0.3453 -0.3156
16087TIP3    H169676   1.177   4.114  13.103  1.0182 -2.4747 -0.4597
16087TIP3    H269677   1.164   4.027  12.980 -2.8588 -0.1026 -1.8986
16088TIP3   OH269678   1.185   5.641  15.585  0.3018  0.0365 -0.0173
16088TIP3    H169679   1.169   5.734  15.602  0.2588  0.1755 -0.8079
16088TIP3    H269680   1.120   5.595  15.638 -0.1979  0.4793 -0.2470
16089TIP3   OH269681   0.219   6.237   4.672 -0.1130 -0.1178 -0.5646
16089TIP3    H169682   0.199   6.309   4.732 -1.8009  0.5445 -1.8525
16089TIP3    H269683   0.315   6.237   4.667  0.0082  0.8129  0.8842
16090TIP3   OH269684   1.677   1.168   1.552  0.1670  0.3775  0.2466
16090TIP3    H169685   1.664   1.155   1.646  2.4957  1.3469  0.7642
16090TIP3    H269686   1.639   1.253   1.534  0.1847  0.4220  0.4181
16091TIP3   OH269687   5.776   1.127   3.731 -0.8054  0.3643  0.5682
16091TIP3    H169688   5.744   1.044   3.695  0.6704  0.4729 -1.1417
16091TIP3    H269689   5.809   1.105   3.818  5.1700 -2.4328 -1.8564
16092TIP3   OH269690   0.873   4.487  14.340  0.1242  0.0640  0.2083
16092TIP3    H169691   0.929   4.564  14.357  1.4513 -0.0862 -2.8790
16092TIP3    H269692   0.798   4.522  14.292 -0.6020 -0.2741  1.0580
16093TIP3   OH269693   2.985   5.485   0.619  0.2614  0.4517  0.0398
16093TIP3    H169694   3.038   5.457   0.694  0.7545 -2.7926 -1.3423
16093TIP3    H269695   2.930   5.410   0.598 -0.6022  1.5911 -2.2293
16094TIP3   OH269696   1.952   5.652  12.873  0.1797 -0.1142 -0.4353
16094TIP3    H169697   1.918   5.738  12.897  1.7214  0.4554 -0.1266
16094TIP3    H269698   1.882   5.590  12.895 -1.3190  1.1353 -1.5397
16095TIP3   OH269699   2.180   0.322   2.465  0.3934  0.1182 -0.0826
16095TIP3    H169700   2.193   0.379   2.390  0.3477  0.3460  0.0828
16095TIP3    H269701   2.159   0.381   2.537 -0.9480 -0.1914 -0.1956
16096TIP3   OH269702   0.093   4.707   3.864 -0.1677  0.0853  0.0670
16096TIP3    H169703   0.113   4.627   3.912  1.2339  2.1192  3.1410
16096TIP3    H269704   0.011   4.738   3.902 -0.0999  0.7133 -0.2819
16097TIP3   OH269705   5.150   6.162  15.882  0.5523  0.0834 -0.4764
16097TIP3    H169706   5.106   6.200  15.806  0.3608 -0.3016 -0.5627
16097TIP3    H269707   5.081   6.116  15.929  0.8588 -0.5503 -0.6278
16098TIP3   OH269708   1.552   1.657  14.733  0.0843 -0.3033  0.3012
16098TIP3    H169709   1.602   1.641  14.652 -3.0334 -2.1901 -1.4655
16098TIP3    H269710   1.532   1.751  14.730  1.6475  0.0552 -0.0204
16099TIP3   OH269711   5.909   1.799  15.799 -0.4741  0.0386 -0.3428
16099TIP3    H169712   5.891   1.754  15.717  1.3571  0.0316 -0.7836
16099TIP3    H269713   5.996   1.768  15.825 -0.2427  1.4077  0.6436
16100TIP3   OH269714   1.680   3.595   0.023 -0.2222  0.3101 -0.1033
16100TIP3    H169715   1.763   3.549   0.030  0.8101  1.7726 -1.8080
16100TIP3    H269716   1.633   3.549  -0.046 -0.1619  0.4365 -0.2281
16101TIP3   OH269717   2.999   4.267   5.194  0.0280  0.0876  0.4304
16101TIP3    H169718   2.970   4.315   5.116  0.3483  0.9948  0.8492
16101TIP3    H269719   2.924   4.212   5.218  0.2876 -0.9821 -1.0959
16102TIP3   OH269720   2.098   5.169  13.815 -0.1929 -0.0790 -0.0638
16102TIP3    H169721   2.064   5.222  13.743 -1.0488  1.1483  1.1824
16102TIP3    H269722   2.192   5.187  13.816 -0.0792 -0.5628 -1.2092
16103TIP3   OH269723   0.883   1.161   2.764  0.4619 -0.3520  0.0306
16103TIP3    H169724   0.903   1.072   2.735  1.1569  0.5311 -2.4589
16103TIP3    H269725   0.958   1.185   2.819  0.5664 -1.0763  0.2235
16104TIP3   OH269726   3.877   3.325   0.391 -0.2480 -0.0440  0.1992
16104TIP3    H169727   3.908   3.300   0.304  1.5154 -0.6358  0.9671
16104TIP3    H269728   3.899   3.418   0.398  0.1828 -0.1464  0.2397
16105TIP3   OH269729   4.279   3.844   0.731  0.5925 -0.4049 -0.1516
16105TIP3    H169730   4.225   3.800   0.666 -0.4413 -2.2833  1.8778
16105TIP3    H269731   4.353   3.785   0.745  0.2110 -0.5868  1.1918
16106TIP3   OH269732   5.972   0.239   2.191 -0.5178 -0.2179  0.4573
16106TIP3    H169733   6.002   0.148   2.198  0.6581  0.2513  2.0909
16106TIP3    H269734   5.877   0.233   2.183 -0.5161 -1.5746  1.1851
16107TIP3   OH269735   5.024   5.693  11.608  0.3116 -0.3052  0.3739
16107TIP3    H169736   5.004   5.616  11.661 -0.0386  0.4318  1.3475
16107TIP3    H269737   5.059   5.757  11.670  2.9023 -0.4679 -0.7814
16108TIP3   OH269738   0.573   3.813   4.401 -0.0987 -0.0942  0.0633
16108TIP3    H169739   0.566   3.723   4.370  0.9601 -0.9604  2.1996
16108TIP3    H269740   0.482   3.843   4.409 -0.4637 -1.0552 -0.3790
16109TIP3   OH269741   5.593   3.802   1.728  0.1636 -0.5962 -0.2134
16109TIP3    H169742   5.660   3.805   1.659  1.9071  1.4674  1.4456
16109TIP3    H269743   5.597   3.888   1.769 -1.8345 -1.2806  1.5527
16110TIP3   OH269744   0.724   0.000   6.006  0.1354  0.5235 -0.6271
16110TIP3    H169745   0.764   0.078   6.043 -0.7257  0.2550  0.9725
16110TIP3    H269746   0.672   0.032   5.932 -1.0230  1.6586  0.6176
16111TIP3   OH269747   5.947   2.668  12.185  0.1339  0.5143 -0.0963
16111TIP3    H169748   6.033   2.632  12.162  0.3635  0.3688  0.9327
16111TIP3    H269749   5.903   2.596  12.229 -0.1792  0.8650  0.1675
16112TIP3   OH269750   0.427   4.990  16.985  0.2714  0.1746  0.2590
16112TIP3    H169751   0.428   5.043  17.065 -0.1024  1.5593 -0.6157
16112TIP3    H269752   0.462   5.049  16.918  1.2745 -1.2069 -0.4675
16113TIP3   OH269753   3.475   2.813  16.618  0.1244  0.3933 -0.1990
16113TIP3    H169754   3.479   2.853  16.531 -0.8245  1.7492  0.3543
16113TIP3    H269755   3.538   2.863  16.670 -0.2950  0.4620  0.2392
16114TIP3   OH269756   4.008   4.395  11.445 -0.6894 -0.1322  0.1314
16114TIP3    H169757   4.033   4.423  11.533  0.6119  1.1965 -0.6265
16114TIP3    H269758   3.958   4.468  11.409  0.1745  0.0330 -0.7886
16115TIP3   OH269759   2.587   4.202   3.534  0.0700  0.2114  0.0813
16115TIP3    H169760   2.590   4.203   3.439 -0.6736 -0.2023  0.0417
16115TIP3    H269761   2.546   4.284   3.559  0.6925  0.5311  0.0752
16116TIP3   OH269762   0.652   3.806  11.669  0.4280  1.0938  0.1479
16116TIP3    H169763   0.595   3.860  11.614  0.6110 -0.1726 -1.3463
16116TIP3    H269764   0.722   3.865  11.695  0.4684  1.6858 -1.1916
16117TIP3   OH269765   3.052   0.373  15.913 -0.2803 -0.2652 -0.2440
16117TIP3    H169766   2.984   0.438  15.930 -0.8408 -1.0520  0.5968
16117TIP3    H269767   3.014   0.290  15.941  1.7608 -0.4540  2.3661
16118TIP3   OH269768   5.233   2.418   5.683  0.3347  0.3759  0.1418
16118TIP3    H169769   5.153   2.470   5.686 -1.2135 -1.7555 -0.9328
16118TIP3    H269770   5.238   2.388   5.592  3.3417  1.8073 -0.2661
16119TIP3   OH269771   6.373   1.518   2.468  0.3270 -0.3379 -0.0548
16119TIP3    H169772   6.336   1.588   2.415 -0.6609 -0.5550  0.3280
16119TIP3    H269773   6.432   1.562   2.529 -0.6089  0.2247  0.4648
16120TIP3   OH269774   4.736   1.223   4.328 -0.2465 -0.3596 -0.2009
16120TIP3    H169775   4.702   1.182   4.408  0.1493 -0.4781 -0.0923
16120TIP3    H269776   4.787   1.155   4.285 -1.3781 -0.6390 -1.1384
16121TIP3   OH269777   2.794   1.682  13.509  0.1031 -0.0678  0.4794
16121TIP3    H169778   2.805   1.732  13.590  1.6976 -0.8219  0.7591
16121TIP3    H269779   2.775   1.593  13.538 -1.3352  0.0586 -0.0111
16122TIP3   OH269780   5.943   0.739  16.212 -0.4582  0.0241  0.0068
16122TIP3    H169781   5.939   0.760  16.119 -0.9748  0.4733  0.1298
16122TIP3    H269782   5.860   0.770  16.248 -1.5767 -2.7777  0.0932
16123TIP3   OH269783   6.636   2.865  15.696 -0.1688  0.2718  0.0272
16123TIP3    H169784   6.568   2.799  15.681 -0.0599  0.5001 -1.6428
16123TIP3    H269785   6.682   2.872  15.612  0.0997  2.1486  0.2769
16124TIP3   OH269786   0.934   6.182  16.103  0.3558 -0.2634 -0.1739
16124TIP3    H169787   0.910   6.099  16.061  0.5507 -0.9913  1.1220
16124TIP3    H269788   1.023   6.168  16.134  0.2842  0.3312  0.3070
16125TIP3   OH269789   4.441   1.648  10.637  0.0687 -0.8707  0.0800
16125TIP3    H169790   4.469   1.739  10.629 -2.2812  0.4570  3.8649
16125TIP3    H269791   4.507   1.607  10.692  1.0972 -1.5300 -1.5784
16126TIP3   OH269792   2.187   3.668   2.486 -1.0582  0.9347  0.1917
16126TIP3    H169793   2.145   3.729   2.426 -2.3832  0.6099  0.7577
16126TIP3    H269794   2.155   3.582   2.461  1.7059  0.2596 -1.3507
16127TIP3   OH269795   2.845   5.147  15.304 -1.1657  0.0522 -0.4076
16127TIP3    H169796   2.855   5.221  15.245 -2.1386 -0.1094 -0.7878
16127TIP3    H269797   2.798   5.182  15.380 -0.6230  0.0720 -0.0681
16128TIP3   OH269798   3.482   2.901   3.563  0.8019 -0.0980  0.0067
16128TIP3    H169799   3.456   2.819   3.521 -0.5207 -0.0961  0.7689
16128TIP3    H269800   3.400   2.945   3.582  1.4882  1.4591 -0.4406
16129TIP3   OH269801   3.702   0.871   3.164  0.0188 -0.0493  0.1605
16129TIP3    H169802   3.719   0.965   3.154 -2.3298  0.7442  2.4672
16129TIP3    H269803   3.751   0.846   3.242  0.4046 -0.6769 -0.2777
16130TIP3   OH269804   5.634   4.127   0.597 -0.4290 -0.1747  0.1119
16130TIP3    H169805   5.561   4.085   0.551  0.3485 -0.6667 -0.7092
16130TIP3    H269806   5.602   4.216   0.615 -1.0973 -0.2612 -0.5579
16131TIP3   OH269807   1.416   0.365  10.600 -0.1070  0.0742  0.0900
16131TIP3    H169808   1.501   0.362  10.643  1.1375  0.6162 -2.2028
16131TIP3    H269809   1.387   0.274  10.596  1.3990 -0.3951 -0.9848
16132TIP3   OH269810   0.753   2.141   3.960  0.1517  0.0422  0.0410
16132TIP3    H169811   0.757   2.151   3.865  0.9829 -2.5931 -0.2906
16132TIP3    H269812   0.701   2.215   3.990 -2.2853 -0.3623 -2.7367
16133TIP3   OH269813   1.313   0.242  11.278  0.1570  0.7479  0.0342
16133TIP3    H169814   1.294   0.185  11.352  0.1740  1.7810  0.8573
16133TIP3    H269815   1.253   0.316  11.288  0.2543  0.9722 -0.9087
16134TIP3   OH269816   0.093   5.494  13.034 -0.1234 -0.1884  0.6478
16134TIP3    H169817   0.131   5.443  12.963 -0.1784  1.3743 -0.5645
16134TIP3    H269818   0.036   5.558  12.990  0.3186  1.2154  2.0251
16135TIP3   OH269819   3.707   5.803   3.098  0.3200  0.4552  0.1521
16135TIP3    H169820   3.740   5.838   3.181 -0.7475  1.2865  0.2614
16135TIP3    H269821   3.647   5.871   3.066  2.9122  1.5620 -2.8226
16136TIP3   OH269822   4.702   5.680  16.748 -0.0848  0.2744  0.0828
16136TIP3    H169823   4.631   5.741  16.770  0.9131  0.3332  3.9004
16136TIP3    H269824   4.659   5.595  16.739 -0.9246  0.7181 -0.1730
16137TIP3   OH269825   0.532   3.458   1.383 -0.0104  0.3091  0.2982
16137TIP3    H169826   0.571   3.410   1.456  1.2670 -0.9576 -1.1360
16137TIP3    H269827   0.538   3.550   1.409 -2.0138 -0.1552  2.8941
16138TIP3   OH269828   0.535   2.257   1.898 -0.2111 -0.2357  0.2884
16138TIP3    H169829   0.481   2.189   1.938 -0.7433  1.2797  2.3169
16138TIP3    H269830   0.623   2.240   1.931 -0.5087  0.5397  1.5687
16139TIP3   OH269831   6.647   6.492  17.180  0.0261  0.1027  0.1687
16139TIP3    H169832   6.552   6.486  17.168  0.0906 -2.1768  0.3225
16139TIP3    H269833   6.657   6.516  17.273 -0.3836  0.4863  0.1203
16140TIP3   OH269834   0.467   5.107  12.743 -0.1679  0.4423 -0.2391
16140TIP3    H169835   0.449   5.020  12.779 -0.9499  0.5594 -0.3078
16140TIP3    H269836   0.531   5.092  12.673 -0.7444 -0.1731 -0.6526
16141TIP3   OH269837   5.955   4.345   3.200 -0.0317  0.3611 -0.5086
16141TIP3    H169838   5.986   4.431   3.173  0.3260  0.2151 -0.5725
16141TIP3    H269839   5.867   4.338   3.163 -0.4804  1.1185  0.3598
16142TIP3   OH269840   6.026   0.345  10.775  0.2132 -0.2598  0.1898
16142TIP3    H169841   5.953   0.286  10.761  0.6943 -0.5550 -1.2926
16142TIP3    H269842   5.994   0.430  10.744 -1.1149  0.8126  3.9758
16143TIP3   OH269843   4.572   0.368   0.470  0.5010 -0.1810  0.2608
16143TIP3    H169844   4.508   0.355   0.401  0.3015 -0.4935  0.5007
16143TIP3    H269845   4.595   0.461   0.465 -0.7144  0.1639  0.8298
16144TIP3   OH269846   2.422   1.786  13.670 -0.1683 -0.0096  0.8212
16144TIP3    H169847   2.389   1.707  13.627  0.9291  0.0255 -0.1118
16144TIP3    H269848   2.510   1.798  13.636  0.0904  1.0200  1.7764
16145TIP3   OH269849   3.649   3.508   2.874  0.0024  0.0315 -0.3193
16145TIP3    H169850   3.557   3.530   2.883 -0.0153 -0.4070  0.7581
16145TIP3    H269851   3.671   3.464   2.956  0.9051 -0.8039 -0.9903
16146TIP3   OH269852   4.701   3.101  12.753  0.5713 -0.0259  0.5519
16146TIP3    H169853   4.611   3.083  12.727  0.5884  1.1363 -0.3627
16146TIP3    H269854   4.750   3.102  12.671  1.0691  1.2497  0.8463
16147TIP3   OH269855   3.165   0.309  13.925  0.6212  0.5119  0.3097
16147TIP3    H169856   3.114   0.237  13.961  0.2497  0.9587  0.6786
16147TIP3    H269857   3.226   0.267  13.864 -2.1127  0.1891 -2.4329
16148TIP3   OH269858   2.414   5.906   5.398 -0.5063 -0.1696  0.1646
16148TIP3    H169859   2.455   5.829   5.437  1.1303  0.8138  0.4981
16148TIP3    H269860   2.382   5.956   5.473  2.4875  1.6382  0.3870
16149TIP3   OH269861   6.298   3.837   2.016 -0.4639  0.1599  0.5930
16149TIP3    H169862   6.288   3.878   1.930 -0.5680 -0.4379  0.3101
16149TIP3    H269863   6.220   3.781   2.025  1.1343 -2.4399 -0.4475
16150TIP3   OH269864   0.417   4.019  12.669 -0.8861  0.8920 -0.0149
16150TIP3    H169865   0.476   3.993  12.739 -1.3886  0.1499  0.1493
16150TIP3    H269866   0.471   4.013  12.589 -0.4733  1.1840  0.2404
16151TIP3   OH269867   6.141   0.423   5.395 -0.3735  0.7152 -0.1612
16151TIP3    H169868   6.148   0.354   5.460 -0.0199  0.5620 -0.3566
16151TIP3    H269869   6.054   0.412   5.357  0.7464 -1.5794 -2.3327
16152TIP3   OH269870   0.691   0.539   0.071  0.4640  0.7007 -0.2101
16152TIP3    H169871   0.718   0.458   0.113  0.8938  0.5624 -0.7401
16152TIP3    H269872   0.730   0.536  -0.016  1.0950  1.7984  0.0075
16153TIP3   OH269873   0.766   1.552   5.527 -0.2622  0.0982 -0.7237
16153TIP3    H169874   0.816   1.496   5.467  0.4388  0.9996 -1.0141
16153TIP3    H269875   0.826   1.624   5.547 -0.9105  0.4100  0.1509
16154TIP3   OH269876   4.009   6.581   6.417  0.1617 -0.2768 -0.1103
16154TIP3    H169877   4.063   6.641   6.365  0.0851  0.3419  0.5184
16154TIP3    H269878   4.063   6.502   6.425  1.8038  0.9744  2.0749
16155TIP3   OH269879   4.015   0.511   1.030  0.4303 -0.2086  0.5920
16155TIP3    H169880   3.966   0.566   1.090  1.8973  1.7463  0.0971
16155TIP3    H269881   4.019   0.425   1.073 -2.4306 -0.1712  1.0880
16156TIP3   OH269882   4.103   6.342   6.297  0.1740 -0.0820  0.1264
16156TIP3    H169883   4.063   6.355   6.211  0.2703  0.9125  0.2218
16156TIP3    H269884   4.173   6.278   6.282 -1.5838 -2.0612  0.0093
16157TIP3   OH269885   2.675   2.159   1.158 -0.4353  0.3338 -0.4207
16157TIP3    H169886   2.613   2.204   1.101 -1.8389 -0.9790  0.0130
16157TIP3    H269887   2.715   2.093   1.102 -0.3129  0.3720 -0.3797
16158TIP3   OH269888   1.636   3.103  15.150  0.0296 -0.3054 -0.4764
16158TIP3    H169889   1.723   3.085  15.186  0.3214  1.0827 -0.4244
16158TIP3    H269890   1.577   3.096  15.225  0.5612  2.0437  0.2470
16159TIP3   OH269891   4.093   3.547   6.508  0.3557 -0.2756  0.2461
16159TIP3    H169892   4.181   3.546   6.545  0.6275  1.5108 -0.2553
16159TIP3    H269893   4.038   3.584   6.577  0.1904 -0.3786  0.1704
16160TIP3   OH269894   5.246   2.203  15.339  0.7381 -0.2231 -0.0482
16160TIP3    H169895   5.258   2.290  15.379 -0.3443  0.1637 -0.5040
16160TIP3    H269896   5.243   2.220  15.245  0.9435 -0.8148 -0.1644
16161TIP3   OH269897   2.841   5.977   1.920  0.3347 -0.1751  0.3686
16161TIP3    H169898   2.811   5.906   1.863  0.5428  0.4075 -0.4889
16161TIP3    H269899   2.776   5.981   1.990 -0.6088 -0.1041 -0.4982
16162TIP3   OH269900   4.256   0.000   2.674 -0.1704 -0.1291  0.4826
16162TIP3    H169901   4.204   0.053   2.613  0.1174 -0.5048 -0.1053
16162TIP3    H269902   4.298   0.063   2.732 -0.9131  0.2045  0.6712
16163TIP3   OH269903   1.070   1.393  12.830  0.8003 -0.3927 -0.2173
16163TIP3    H169904   1.121   1.358  12.903  0.5270  1.6888  1.0430
16163TIP3    H269905   1.128   1.457  12.788 -0.5847  1.8782  1.1322
16164TIP3   OH269906   2.191   6.282  14.846  0.3520 -0.3319 -0.6712
16164TIP3    H169907   2.096   6.278  14.835  0.4458  0.0079 -1.7836
16164TIP3    H269908   2.226   6.260  14.759  1.3918 -3.5983  0.4465
16165TIP3   OH269909   1.455   4.424  14.084 -0.0054 -0.3937  0.5096
16165TIP3    H169910   1.520   4.466  14.027 -1.5233  0.3126 -0.7713
16165TIP3    H269911   1.504   4.401  14.163  1.6654  0.6369 -0.1669
16166TIP3   OH269912   3.235   5.916  16.464  0.4479 -0.0362 -0.0683
16166TIP3    H169913   3.204   5.879  16.547  1.8323 -0.6152  0.2246
16166TIP3    H269914   3.276   5.842  16.419  1.8789  0.7832 -0.1668
16167TIP3   OH269915   1.799   6.137  17.094 -1.0459  0.0069  0.6852
16167TIP3    H169916   1.831   6.093  17.015  5.1200  2.2514  1.3721
16167TIP3    H269917   1.823   6.077  17.165 -0.7791  0.6514  1.1446
16168TIP3   OH269918   2.727   5.074  15.643 -0.3275 -0.4379  0.1003
16168TIP3    H169919   2.813   5.086  15.682 -0.8002 -2.2477  1.8419
16168TIP3    H269920   2.735   4.997  15.588 -0.2041  0.9363 -1.9303
16169TIP3   OH269921   3.461   0.781   1.316 -1.1310 -0.8844 -0.2277
16169TIP3    H169922   3.530   0.783   1.251 -0.6131  0.7474  0.3368
16169TIP3    H269923   3.471   0.696   1.359 -1.1228 -1.7395 -1.8425
16170TIP3   OH269924   6.051   2.760   3.697 -0.4361 -0.0836  0.8200
16170TIP3    H169925   6.138   2.800   3.703 -0.6753  0.6387 -0.3386
16170TIP3    H269926   6.066   2.677   3.652 -0.3626  0.1109  0.4824
16171TIP3   OH269927   4.257   3.812  12.230 -0.0737 -0.4118 -0.0828
16171TIP3    H169928   4.165   3.790  12.218 -0.0980 -0.3011 -0.1039
16171TIP3    H269929   4.292   3.817  12.142 -0.3898  0.9735 -0.1552
16172TIP3   OH269930   4.131   3.591   4.893  0.2972 -0.2425  0.3038
16172TIP3    H169931   4.208   3.649   4.889  0.4986 -0.4340  1.2538
16172TIP3    H269932   4.147   3.526   4.824  1.4239 -0.8067  1.0709
16173TIP3   OH269933   1.063   6.569  13.641 -0.1131 -0.1172  0.3334
16173TIP3    H169934   1.031   6.659  13.647  0.4701  0.3470 -2.1799
16173TIP3    H269935   1.157   6.578  13.624 -0.1884 -1.1388 -0.7807
16174TIP3   OH269936   0.183   2.517   6.095 -0.7012  0.3010  0.3726
16174TIP3    H169937   0.101   2.470   6.111 -0.7128 -1.1046 -3.0451
16174TIP3    H269938   0.245   2.476   6.156 -1.7802 -0.9476  0.7048
16175TIP3   OH269939   2.373   5.470  11.797  0.1238  0.1559 -0.3406
16175TIP3    H169940   2.366   5.565  11.804  0.2264  0.1084  0.5215
16175TIP3    H269941   2.338   5.450  11.710  1.5459  1.1119 -1.1877
16176TIP3   OH269942   5.872   2.074  15.203  0.4427  0.6703  0.4301
16176TIP3    H169943   5.800   2.099  15.144 -0.8944  0.0953  1.7415
16176TIP3    H269944   5.944   2.052  15.145 -0.9887 -0.4134 -1.0380
16177TIP3   OH269945   3.909   0.349   6.329  0.2948  0.0072 -0.4086
16177TIP3    H169946   3.878   0.437   6.311 -0.8395 -0.4493 -0.7631
16177TIP3    H269947   3.913   0.344   6.425 -1.5736 -0.1751 -0.3081
16178TIP3   OH269948   1.566   0.404  16.637  0.4605  0.0955  0.5154
16178TIP3    H169949   1.627   0.450  16.694  0.5581  1.1828 -0.4416
16178TIP3    H269950   1.544   0.467  16.569  0.3964 -1.1910 -0.6970
16179TIP3   OH269951   2.883   5.864   1.071  0.3020  0.0952 -0.5693
16179TIP3    H169952   2.966   5.895   1.107  0.0623  1.5669 -1.2357
16179TIP3    H269953   2.820   5.877   1.142  0.5710 -0.7402 -0.1681
16180TIP3   OH269954   5.636   0.014   3.514 -0.2924 -0.1422 -0.1263
16180TIP3    H169955   5.543   0.019   3.538 -0.5667  0.7388 -1.2702
16180TIP3    H269956   5.635  -0.012   3.422  0.5697  0.8628 -0.4261
16181TIP3   OH269957   2.550   0.086  12.223  0.1431 -0.1261 -0.4327
16181TIP3    H169958   2.478   0.037  12.263  0.8465 -1.7165 -0.9970
16181TIP3    H269959   2.529   0.178  12.239 -1.7489 -0.5605 -0.1598
16182TIP3   OH269960   5.275   2.345  16.923  0.0178  0.3361 -0.0109
16182TIP3    H169961   5.182   2.344  16.901  0.3285  1.3212 -1.5233
16182TIP3    H269962   5.320   2.347  16.839  1.5000 -2.0315  0.6433
16183TIP3   OH269963   4.406   4.943   4.811 -0.2173  0.2502 -0.1191
16183TIP3    H169964   4.417   5.015   4.873  1.5741 -0.1269  0.0392
16183TIP3    H269965   4.316   4.953   4.778  0.1296  2.8696 -0.4773
16184TIP3   OH269966   2.609   5.154   3.513 -0.4186  0.1896  0.4191
16184TIP3    H169967   2.577   5.224   3.456  0.3449 -0.6207 -1.0511
16184TIP3    H269968   2.532   5.101   3.532 -0.5258 -0.0268 -0.5866
16185TIP3   OH269969   2.520   4.040  13.486  0.6124  0.6380 -0.3781
16185TIP3    H169970   2.500   3.992  13.405 -2.9976 -1.2711  1.4000
16185TIP3    H269971   2.604   4.004  13.515  0.4154 -0.9763 -1.6593
16186TIP3   OH269972   5.878   4.913   0.891  0.2024 -0.1433 -0.1128
16186TIP3    H169973   5.927   4.994   0.872  0.6800 -0.5288 -0.5776
16186TIP3    H269974   5.941   4.858   0.937 -0.6437  0.3897  1.7600
16187TIP3   OH269975   1.187   0.876   3.180 -0.2333  0.3995 -0.3789
16187TIP3    H169976   1.161   0.815   3.111 -1.2249 -0.9985  1.1756
16187TIP3    H269977   1.119   0.868   3.246  1.7375  0.1271  1.7450
16188TIP3   OH269978   5.588   2.274   0.944  0.3312 -0.6109 -0.0282
16188TIP3    H169979   5.623   2.287   0.856  0.7475 -1.3862  0.0077
16188TIP3    H269980   5.621   2.349   0.994  0.1675 -0.2124 -0.5087
16189TIP3   OH269981   3.894   4.821   5.452  0.0451 -0.0344 -0.3467
16189TIP3    H169982   3.827   4.753   5.445 -0.5771  0.4677  0.4932
16189TIP3    H269983   3.954   4.803   5.380 -1.7750  0.3750 -2.0384
16190TIP3   OH269984   1.049   3.772  15.244 -0.4653 -0.2233  0.9298
16190TIP3    H169985   0.965   3.729  15.263 -1.7260  1.3661 -0.6788
16190TIP3    H269986   1.028   3.836  15.176  2.3448 -0.6847 -0.4995
16191TIP3   OH269987   5.663   2.987   0.222 -0.7135  0.1055 -0.0461
16191TIP3    H169988   5.640   2.905   0.178  0.6618 -0.1998 -0.2440
16191TIP3    H269989   5.607   2.988   0.300 -1.6104 -0.4167 -0.6610
16192TIP3   OH269990   1.070   6.568  11.182  0.3843  0.1404 -0.0610
16192TIP3    H169991   0.991   6.513  11.182 -0.0974  0.5412  3.9891
16192TIP3    H269992   1.142   6.506  11.199 -0.1132  0.4062  4.0742
16193TIP3   OH269993   1.778   2.894  12.209  0.6561 -0.3299 -0.1094
16193TIP3    H169994   1.805   2.955  12.277 -0.1323 -0.2293  0.1281
16193TIP3    H269995   1.729   2.826  12.255 -1.0157  0.4153 -0.6985
16194TIP3   OH269996   1.425   4.678  17.088 -0.2074  0.2134 -0.6700
16194TIP3    H169997   1.398   4.767  17.066  1.1614  0.5081 -1.2348
16194TIP3    H269998   1.398   4.625  17.013 -0.3951  0.2744 -0.6456
16195TIP3   OH269999   1.833   5.796  11.513  0.1243 -0.0887 -0.2223
16195TIP3    H170000   1.814   5.888  11.496 -0.6301 -0.0583  0.6805
16195TIP3    H270001   1.796   5.780  11.600 -0.3009 -1.3974 -0.6193
16196TIP3   OH270002   6.528   3.210   5.375 -0.7517  0.0419  0.1467
16196TIP3    H170003   6.560   3.154   5.445  1.0618 -0.3237 -0.9266
16196TIP3    H270004   6.499   3.290   5.420  0.6653 -0.0545  1.3033
16197TIP3   OH270005   6.594   2.969  14.394  0.2183  0.3562  0.4460
16197TIP3    H170006   6.689   2.954  14.389  0.2271  0.6786 -0.6370
16197TIP3    H270007   6.555   2.884  14.377  0.3170  0.4069 -0.0665
16198TIP3   OH270008   4.342   1.737  14.148 -0.0894  0.1241  0.3777
16198TIP3    H170009   4.365   1.813  14.095  0.8955  0.1742  0.8679
16198TIP3    H270010   4.250   1.751  14.171  0.1301  1.2579  0.6246
16199TIP3   OH270011   5.801   4.388  16.648  0.7116  0.2168 -0.2148
16199TIP3    H170012   5.861   4.369  16.720  1.7773  1.3598 -0.7391
16199TIP3    H270013   5.801   4.309  16.594  0.0347 -0.5840  0.9268
16200TIP3   OH270014   6.505   4.233   1.127  0.2250 -0.0729  0.0184
16200TIP3    H170015   6.587   4.260   1.169  0.6522 -0.8910 -0.2783
16200TIP3    H270016   6.526   4.151   1.083 -0.9816 -0.7855  0.7026
16201TIP3   OH270017   3.525   5.471   1.410  0.1530 -0.2664  0.3499
16201TIP3    H170018   3.531   5.535   1.338  3.3735  0.6760  1.2814
16201TIP3    H270019   3.501   5.389   1.367  0.9576  0.4913 -1.6875
16202TIP3   OH270020   2.764   4.919   5.877 -0.9381  0.5414 -0.4076
16202TIP3    H170021   2.847   4.874   5.894 -0.1738  1.4995 -1.4433
16202TIP3    H270022   2.715   4.910   5.959  0.0801 -0.2730  0.1377
16203TIP3   OH270023   2.331   2.535   6.221 -0.1158 -0.2712 -0.3884
16203TIP3    H170024   2.240   2.553   6.246 -0.1063  0.8707 -1.1146
16203TIP3    H270025   2.373   2.505   6.301 -1.4738 -2.2775 -0.3450
16204TIP3   OH270026   2.857   3.702   3.585  0.0069 -0.3501  0.4109
16204TIP3    H170027   2.804   3.715   3.664 -1.8602  1.3941 -1.0115
16204TIP3    H270028   2.939   3.749   3.603 -1.0523  1.4753  0.7299
16205TIP3   OH270029   1.030   6.643  12.793 -0.0188 -0.4229 -0.1989
16205TIP3    H170030   1.054   6.593  12.715 -0.2912 -1.5757  0.4287
16205TIP3    H270031   1.080   6.724  12.786  0.1669 -0.6250 -1.4290
16206TIP3   OH270032   0.747   0.864   6.797 -0.5425 -0.3059 -0.4470
16206TIP3    H170033   0.827   0.918   6.792  0.1564 -1.3125 -0.3927
16206TIP3    H270034   0.678   0.922   6.766  0.3755  0.2612 -1.5437
16207TIP3   OH270035   3.035   6.479  13.642  0.5151 -0.2448  0.4460
16207TIP3    H170036   3.043   6.532  13.562 -1.6884  1.1822  1.0675
16207TIP3    H270037   3.108   6.507  13.697  0.4560  0.8009  0.0171
16208TIP3   OH270038   6.584   4.314  12.017 -0.3739 -0.1501 -0.4236
16208TIP3    H170039   6.614   4.383  11.957  1.8821 -0.6777 -0.0033
16208TIP3    H270040   6.532   4.255  11.962  0.8333 -0.0921 -1.6824
16209TIP3   OH270041   2.643   1.686  13.260  0.0136  0.2651 -0.2626
16209TIP3    H170042   2.709   1.637  13.308  0.0457 -0.3574 -0.9386
16209TIP3    H270043   2.639   1.771  13.305  0.4742 -0.0865  0.4589
16210TIP3   OH270044   2.097   1.382  17.262 -0.1574 -0.5987 -0.1105
16210TIP3    H170045   2.077   1.387  17.355  1.5126  0.0397  0.2604
16210TIP3    H270046   2.154   1.305  17.254 -0.8612 -1.0641 -0.7287
16211TIP3   OH270047   1.343   2.071  12.372 -0.4979  0.3210  0.1858
16211TIP3    H170048   1.313   1.981  12.362  1.0414 -0.0559 -1.4640
16211TIP3    H270049   1.274   2.124  12.332 -1.2198 -0.1268  0.8043
16212TIP3   OH270050   3.163   1.929  14.923 -0.1420 -0.0252 -0.0053
16212TIP3    H170051   3.163   1.839  14.891 -0.9474  0.8306 -2.6382
16212TIP3    H270052   3.256   1.951  14.934  0.0829 -0.9181 -0.0860
16213TIP3   OH270053   2.521   6.767   4.510  0.1543 -0.6851  1.1932
16213TIP3    H170054   2.538   6.682   4.469  1.1192 -0.6529  1.5163
16213TIP3    H270055   2.514   6.828   4.436  2.1314 -0.5831  1.0551
16214TIP3   OH270056   6.746   2.197  16.609 -0.4415  0.3141 -0.2237
16214TIP3    H170057   6.756   2.201  16.514  1.1767 -0.5042 -0.1130
16214TIP3    H270058   6.662   2.240  16.626 -1.2972 -0.5121 -2.1101
16215TIP3   OH270059   4.102   3.875  14.595 -0.0098  0.3643  0.0871
16215TIP3    H170060   4.009   3.877  14.571  0.0113 -0.2152 -0.0702
16215TIP3    H270061   4.108   3.931  14.672 -0.5623  0.0871  0.3384
16216TIP3   OH270062   6.269   5.475  15.674  0.0920 -0.5663  0.6993
16216TIP3    H170063   6.249   5.529  15.751 -0.4002  0.5973 -0.2165
16216TIP3    H270064   6.284   5.538  15.604 -0.9789 -1.6269 -0.5255
16217TIP3   OH270065   0.095   2.597   5.565 -0.0492 -0.1101 -0.2392
16217TIP3    H170066   0.167   2.660   5.570  0.7490 -1.0679  0.9405
16217TIP3    H270067   0.079   2.571   5.656  1.4665 -3.5880 -0.7940
16218TIP3   OH270068   5.703   2.315   0.693 -0.2505  0.3062  0.3786
16218TIP3    H170069   5.783   2.350   0.732 -0.2475  0.1241  0.5432
16218TIP3    H270070   5.734   2.251   0.628 -0.2552  0.6274  0.0574
16219TIP3   OH270071   2.891   5.503   5.800 -0.0225  0.2915  0.2465
16219TIP3    H170072   2.946   5.425   5.791 -1.1098 -0.4065 -0.6183
16219TIP3    H270073   2.869   5.527   5.710 -0.5437  0.9779  0.5483
16220TIP3   OH270074   3.666   4.859  15.714  0.5579  0.7731  0.4058
16220TIP3    H170075   3.582   4.824  15.684  0.3247  0.5540  1.2736
16220TIP3    H270076   3.730   4.790  15.694  0.5180  0.9105 -0.1890
16221TIP3   OH270077   5.001   4.944  13.964 -0.1723 -0.2565  0.4266
16221TIP3    H170078   5.016   4.850  13.961  0.3566 -0.1601 -0.1134
16221TIP3    H270079   5.071   4.981  13.911 -1.0332  0.3631 -0.3075
16222TIP3   OH270080   1.294   1.518  11.432  0.3018 -0.5798  0.3140
16222TIP3    H170081   1.239   1.500  11.508 -0.9479  0.8251 -0.2149
16222TIP3    H270082   1.252   1.473  11.359  0.3289 -0.2376  0.0794
16223TIP3   OH270083   3.809   5.813   0.185 -0.1813  0.5856  0.0210
16223TIP3    H170084   3.804   5.860   0.101 -0.7439  0.9634  0.2596
16223TIP3    H270085   3.786   5.879   0.250  2.6352  0.9813  0.7425
16224TIP3   OH270086   6.443   0.163   1.011  0.2386 -0.4352 -0.0880
16224TIP3    H170087   6.427   0.236   0.951 -0.1963 -0.9806 -0.6453
16224TIP3    H270088   6.416   0.086   0.963  1.3893 -1.0527  0.2250
16225TIP3   OH270089   6.172   6.438  14.811 -0.1031 -0.1372  0.3313
16225TIP3    H170090   6.206   6.394  14.732 -1.1876  1.5537 -1.1368
16225TIP3    H270091   6.112   6.374  14.849 -0.3519 -0.5999 -0.7911
16226TIP3   OH270092   0.711   6.739  13.830  0.0641  0.5027  0.1604
16226TIP3    H170093   0.668   6.809  13.781  1.2662  0.1472 -1.4708
16226TIP3    H270094   0.642   6.702  13.884 -0.8977  2.0690  0.0739
16227TIP3   OH270095   0.599   2.326   4.090 -0.8510 -0.2906 -0.1509
16227TIP3    H170096   0.623   2.416   4.113  1.7666 -1.1493  0.7685
16227TIP3    H270097   0.599   2.280   4.174 -0.1757 -1.5764 -0.8400
16228TIP3   OH270098   0.066   3.828  14.161 -0.2339  0.1131 -0.4103
16228TIP3    H170099   0.009   3.870  14.097 -0.0217  1.4288  0.2444
16228TIP3    H270100   0.006   3.779  14.218 -0.7886  1.7686  0.4846
16229TIP3   OH270101   0.898   5.814  16.415  0.2033  0.4320 -0.4755
16229TIP3    H170102   0.983   5.856  16.416 -0.3795  1.6387 -0.2501
16229TIP3    H270103   0.884   5.786  16.506 -0.1422  1.2851 -0.2617
16230TIP3   OH270104   5.779   3.444   4.418  0.2376 -0.1839  0.6335
16230TIP3    H170105   5.858   3.397   4.392 -0.1154 -0.2685 -0.3375
16230TIP3    H270106   5.707   3.384   4.395 -0.1364  0.1601  0.8920
16231TIP3   OH270107   6.015   2.340   2.715 -0.1061  0.3085  0.5140
16231TIP3    H170108   5.960   2.412   2.747 -0.4666  0.6956 -0.9212
16231TIP3    H270109   5.965   2.302   2.642  1.6440  0.9047 -1.0716
16232TIP3   OH270110   6.467   3.605  11.532  0.1515 -0.6872  0.2196
16232TIP3    H170111   6.538   3.602  11.597  0.2566 -0.2304  0.1313
16232TIP3    H270112   6.388   3.618  11.584  0.4283  1.5257  0.1645
16233TIP3   OH270113   6.586   5.394   0.025  0.3431  0.2706 -0.0226
16233TIP3    H170114   6.509   5.345  -0.004 -0.2810  1.1137  0.2205
16233TIP3    H270115   6.606   5.358   0.111 -0.2712  0.6251  0.2684
16234TIP3   OH270116   2.018   6.313   6.078  0.2980 -0.0355  0.3914
16234TIP3    H170117   2.030   6.376   6.149 -1.9763 -0.8215  1.5834
16234TIP3    H270118   1.933   6.272   6.096 -0.4021 -0.2685 -2.8080
16235TIP3   OH270119   6.749   6.191  13.260  0.0496  0.0924 -0.1680
16235TIP3    H170120   6.724   6.214  13.171 -0.7689  0.0629  0.0450
16235TIP3    H270121   6.710   6.105  13.275  1.2606 -0.4847 -0.2115
16236TIP3   OH270122   1.125   1.593   5.715 -0.4683 -0.3390  0.0060
16236TIP3    H170123   1.087   1.507   5.696  0.1853 -0.4549 -0.8501
16236TIP3    H270124   1.100   1.647   5.639 -1.2173  0.3528  0.7209
16237TIP3   OH270125   6.624   5.721   1.764 -0.0859  0.5523  0.2995
16237TIP3    H170126   6.633   5.743   1.671 -1.7065  0.2996  0.0535
16237TIP3    H270127   6.646   5.628   1.769 -0.5651  0.4231  0.0609
16238TIP3   OH270128   0.914   1.680  11.973  0.3692 -0.2931  0.0026
16238TIP3    H170129   0.922   1.708  11.881 -1.9142  0.3766 -0.0464
16238TIP3    H270130   0.852   1.608  11.971 -2.0698  1.6153  1.2513
16239TIP3   OH270131   4.585   2.750   6.142 -0.0471 -0.0769 -0.4595
16239TIP3    H170132   4.554   2.725   6.055  1.6858 -1.3170 -0.7793
16239TIP3    H270133   4.621   2.838   6.130  0.1341 -0.2201 -0.9888
16240TIP3   OH270134   6.022   2.240  11.690 -0.4059  0.1197 -0.5080
16240TIP3    H170135   5.956   2.305  11.711 -0.5161  0.7543 -2.6140
16240TIP3    H270136   6.003   2.213  11.600  0.4352 -1.8681 -0.1668
16241TIP3   OH270137   1.246   5.377  15.265  0.5068  0.3611 -0.1646
16241TIP3    H170138   1.301   5.323  15.321  0.2152  0.8382  0.5982
16241TIP3    H270139   1.238   5.460  15.312  1.0634  1.1250 -1.3846
16242TIP3   OH270140   3.588   5.493   5.827 -0.1653  0.1753 -0.6513
16242TIP3    H170141   3.507   5.528   5.789  1.4383  1.3504 -3.2170
16242TIP3    H270142   3.653   5.562   5.814  1.2621 -0.5975  1.6321
16243TIP3   OH270143   6.525   6.305  15.259 -0.3517 -0.0971 -0.2052
16243TIP3    H170144   6.543   6.366  15.331 -0.0015 -2.8252  2.2082
16243TIP3    H270145   6.437   6.328  15.229  0.2085  2.2661 -0.1779
16244TIP3   OH270146   4.770   1.933  16.347 -0.2581 -0.5488 -0.3120
16244TIP3    H170147   4.804   1.937  16.436 -0.1649  1.5399 -0.3857
16244TIP3    H270148   4.844   1.905  16.293 -0.6519 -3.1662  0.3520
16245TIP3   OH270149   5.497   5.015  14.725 -0.0228 -0.1887 -0.6299
16245TIP3    H170150   5.457   5.016  14.812  1.0289  0.0998 -0.1362
16245TIP3    H270151   5.517   5.107  14.707  2.1536 -0.5051 -0.0229
16246TIP3   OH270152   2.240   5.275   1.586  0.3351 -0.1761 -0.0715
16246TIP3    H170153   2.201   5.318   1.662 -1.1993 -0.3828 -0.6939
16246TIP3    H270154   2.165   5.246   1.534  1.3292  0.3143 -1.8730
16247TIP3   OH270155   5.032   4.113   0.191  0.5120 -0.0941  0.4826
16247TIP3    H170156   4.949   4.069   0.172  0.1322 -0.9176  3.4738
16247TIP3    H270157   5.007   4.189   0.244  1.6107  0.0740  0.7857
16248TIP3   OH270158   3.800   6.599  12.451 -0.2739  0.4705  0.5679
16248TIP3    H170159   3.726   6.545  12.477 -0.8747  0.6604 -0.6921
16248TIP3    H270160   3.766   6.688  12.452 -0.5783  0.4250 -1.6043
16249TIP3   OH270161   5.445   6.165  11.463 -0.8539  0.0466 -0.1472
16249TIP3    H170162   5.508   6.131  11.526 -0.4709  1.2821  0.1777
16249TIP3    H270163   5.369   6.108  11.470 -0.0193 -1.0870 -0.0857
16250TIP3   OH270164   5.949   5.697  16.948 -0.8977 -0.2780  0.3733
16250TIP3    H170165   5.926   5.620  16.897 -0.5429 -0.4769  0.5105
16250TIP3    H270166   5.930   5.771  16.891  0.0764 -0.5187 -0.2727
16251TIP3   OH270167   5.653   4.154  11.742  0.0840 -0.5941  0.5075
16251TIP3    H170168   5.633   4.067  11.708  0.8672 -0.2240 -0.9621
16251TIP3    H270169   5.742   4.147  11.775 -0.3532 -0.7059  1.7337
16252TIP3   OH270170   5.631   5.449  10.909  0.4299  0.1438  0.1521
16252TIP3    H170171   5.672   5.399  10.981  1.5227  0.7616 -0.0194
16252TIP3    H270172   5.705   5.475  10.854 -0.2745  0.8169 -0.4762
16253TIP3   OH270173   5.412   5.988  13.903 -0.5706 -0.3201  0.6479
16253TIP3    H170174   5.395   5.959  13.813 -2.2345  0.0651  0.8065
16253TIP3    H270175   5.472   6.062  13.893  0.1388 -0.9792 -0.0682
16254TIP3   OH270176   2.364   1.572   4.409  0.0573 -0.3568 -0.4852
16254TIP3    H170177   2.439   1.582   4.350 -0.1312 -0.3392 -0.7242
16254TIP3    H270178   2.335   1.662   4.426 -0.2729 -0.3898 -0.8654
16255TIP3   OH270179   5.795   1.931   5.371 -0.3800  0.1203 -0.3265
16255TIP3    H170180   5.854   1.947   5.298 -1.0197 -0.7938 -1.0743
16255TIP3    H270181   5.724   1.995   5.358  0.4108  1.2165  0.5704
16256TIP3   OH270182   6.681   6.536   0.442 -0.0775 -0.5717 -0.1016
16256TIP3    H170183   6.703   6.563   0.353 -1.6433  1.9300  0.1419
16256TIP3    H270184   6.742   6.585   0.498  0.0145 -1.0784  0.2499
16257TIP3   OH270185   0.796   3.317  12.694  0.1751  0.4084 -0.1656
16257TIP3    H170186   0.872   3.260  12.677 -0.8421 -0.5902 -1.6113
16257TIP3    H270187   0.749   3.319  12.611 -0.0706  3.0871 -0.0314
16258TIP3   OH270188   3.329   3.855  11.803  0.0972 -0.9543 -0.0592
16258TIP3    H170189   3.266   3.909  11.850  0.9020 -0.6049  0.6489
16258TIP3    H270190   3.397   3.916  11.775 -0.0914 -1.2481 -1.2190
16259TIP3   OH270191   1.088   5.025  13.506 -0.4443  0.6442  0.1523
16259TIP3    H170192   1.092   4.957  13.574  1.5626 -2.7693 -2.9847
16259TIP3    H270193   1.169   5.074  13.516 -0.2263  0.2566  0.3038
16260TIP3   OH270194   5.492   2.256   1.678 -0.0769  0.2672  0.5669
16260TIP3    H170195   5.575   2.209   1.680 -0.5639 -0.7425 -1.0721
16260TIP3    H270196   5.488   2.301   1.763  1.2900 -1.1462  1.4456
16261TIP3   OH270197   1.060   1.371   3.222  0.4122  0.1541  0.1940
16261TIP3    H170198   1.037   1.401   3.310  3.3947 -0.6230  1.3430
16261TIP3    H270199   1.136   1.314   3.235  0.5482 -0.5075 -2.8446
16262TIP3   OH270200   5.691   2.270  12.492 -0.3035 -0.2384  1.1305
16262TIP3    H170201   5.650   2.338  12.438  0.5806 -0.4223  0.1918
16262TIP3    H270202   5.617   2.227  12.536 -0.9120  1.0367  1.4161
16263TIP3   OH270203   4.078   1.622  16.878  0.3627 -0.2046  0.2498
16263TIP3    H170204   4.167   1.632  16.912  0.0233 -0.0466  1.1213
16263TIP3    H270205   4.039   1.709  16.889  0.6599  0.2451 -1.8340
16264TIP3   OH270206   6.141   4.519  14.820 -0.1480 -0.5535  0.1010
16264TIP3    H170207   6.183   4.604  14.804  1.1350 -1.2553 -0.3866
16264TIP3    H270208   6.059   4.524  14.772  0.0893  0.2662 -0.2425
16265TIP3   OH270209   0.467   5.115  15.973  0.4961  0.1493 -0.0510
16265TIP3    H170210   0.514   5.033  15.987  0.1918 -0.1508 -0.7325
16265TIP3    H270211   0.536   5.181  15.961  0.7400 -0.0072  0.4922
16266TIP3   OH270212   1.830   0.570  11.368  0.8462 -0.3472 -0.5331
16266TIP3    H170213   1.805   0.626  11.295  4.3109  2.0073 -0.1834
16266TIP3    H270214   1.906   0.521  11.336  1.7212 -0.1271  1.0460
16267TIP3   OH270215   0.988   6.178  16.591 -0.1139 -0.4437  0.0714
16267TIP3    H170216   0.978   6.150  16.682  0.8565  0.9665  0.6379
16267TIP3    H270217   0.925   6.250  16.581 -2.0848 -2.1893 -1.1706
16268TIP3   OH270218   3.581   0.715  15.554 -0.0341 -0.8590  0.2871
16268TIP3    H170219   3.516   0.738  15.489  0.4897 -0.4840 -0.1061
16268TIP3    H270220   3.537   0.729  15.638 -1.1426 -2.5425  0.0418
16269TIP3   OH270221   5.963   3.504   1.368  0.2911 -0.2811 -0.3995
16269TIP3    H170222   5.914   3.583   1.343 -0.0263 -0.7406 -1.2478
16269TIP3    H270223   5.957   3.503   1.464  0.5505  0.8813 -0.3474
16270TIP3   OH270224   2.978   4.610   3.911  0.2606  0.6542 -0.7133
16270TIP3    H170225   2.951   4.530   3.865 -2.4784 -0.7005  2.7691
16270TIP3    H270226   3.018   4.579   3.992  0.2397  2.8176  0.1850
16271TIP3   OH270227   3.916   2.526  16.472  0.4726  0.2685 -0.5058
16271TIP3    H170228   4.001   2.557  16.440 -0.0723  2.2633 -0.1638
16271TIP3    H270229   3.888   2.593  16.535 -0.5677 -1.2470  0.7114
16272TIP3   OH270230   2.304   6.079  16.695 -0.1491  0.3524  0.0741
16272TIP3    H170231   2.329   5.986  16.691  0.8596  0.5983  0.2717
16272TIP3    H270232   2.269   6.098  16.608  1.6590  0.3066 -0.7190
16273TIP3   OH270233   0.993   6.205   6.415  0.3052 -0.0654  0.4520
16273TIP3    H170234   0.997   6.291   6.459  0.1581  0.2439 -0.1380
16273TIP3    H270235   0.974   6.144   6.486  2.0704  0.1618  1.1790
16274TIP3   OH270236   3.309   2.703   4.081 -0.7318 -0.2919 -0.0361
16274TIP3    H170237   3.318   2.684   4.174 -2.5945 -0.6786  0.1044
16274TIP3    H270238   3.399   2.710   4.049  0.0159  2.2421  2.2393
16275TIP3   OH270239   5.261   1.849  15.709 -0.0869  0.1494  0.7662
16275TIP3    H170240   5.220   1.927  15.672 -1.4455  0.0386  1.9477
16275TIP3    H270241   5.248   1.858  15.803  1.3514 -0.6355  1.0566
16276TIP3   OH270242   4.749   4.018  11.504  0.1839  0.7144 -1.1892
16276TIP3    H170243   4.844   4.025  11.515  0.1345  0.1747 -0.2832
16276TIP3    H270244   4.735   3.928  11.473 -0.1104  0.3055  0.0442
16277TIP3   OH270245   0.524   4.282  12.856 -0.4191  0.8133  0.3275
16277TIP3    H170246   0.429   4.292  12.847 -0.3813 -0.2856 -1.8614
16277TIP3    H270247   0.556   4.272  12.766  1.9556  2.4334  0.8838
16278TIP3   OH270248   1.606   5.321  13.184 -0.3180 -0.0133  0.2522
16278TIP3    H170249   1.521   5.277  13.182 -0.0890 -0.4722  0.2658
16278TIP3    H270250   1.632   5.319  13.276 -1.0511  1.6533  0.5274
16279TIP3   OH270251   6.716   2.593  16.108  0.2828  0.3734 -0.0424
16279TIP3    H170252   6.695   2.684  16.087  0.1360  0.5049  0.6662
16279TIP3    H270253   6.811   2.589  16.106  0.2787  0.4296 -0.5292
16280TIP3   OH270254   2.099   5.514   1.129  0.6090  0.2675 -0.2419
16280TIP3    H170255   2.072   5.535   1.040  0.3270  3.2301  0.4495
16280TIP3    H270256   2.028   5.546   1.184  1.1835 -0.6903  1.1185
16281TIP3   OH270257   6.394   1.491   6.625  0.0609  0.3040  1.0211
16281TIP3    H170258   6.358   1.438   6.696  0.3356 -2.3543 -0.6875
16281TIP3    H270259   6.462   1.436   6.585 -1.2292  0.8993 -2.3585
16282TIP3   OH270260   0.425   5.645  11.550 -0.3554 -0.2626  0.1084
16282TIP3    H170261   0.337   5.677  11.571 -0.5546 -0.3757 -0.5372
16282TIP3    H270262   0.458   5.706  11.484 -0.5014 -1.0163 -0.6819
16283TIP3   OH270263   2.879   4.674   5.592  0.3776 -0.5223 -0.8238
16283TIP3    H170264   2.825   4.604   5.629  0.6747 -0.6730 -0.6750
16283TIP3    H270265   2.964   4.633   5.576  0.4498 -0.2844 -1.0592
16284TIP3   OH270266   1.635   4.594  13.932 -0.1660 -0.1676  0.8488
16284TIP3    H170267   1.587   4.543  13.866 -0.4485  0.0678  0.8756
16284TIP3    H270268   1.726   4.590  13.902 -0.0866 -1.2363  1.2038
16285TIP3   OH270269   2.758   0.895   6.430 -0.1977 -0.3198 -0.3072
16285TIP3    H170270   2.812   0.937   6.498  0.8915 -1.5826 -0.3532
16285TIP3    H270271   2.802   0.918   6.348 -0.4743 -0.3060 -0.4524
16286TIP3   OH270272   1.199   1.115  12.742 -0.3249 -0.4656  0.0994
16286TIP3    H170273   1.198   1.208  12.717 -1.4912 -0.1459  1.2246
16286TIP3    H270274   1.212   1.068  12.660  0.2307  0.6866 -0.5034
16287TIP3   OH270275   4.434   4.841  15.255 -0.3307 -0.0596 -0.0619
16287TIP3    H170276   4.508   4.876  15.304  0.2458 -0.2847 -0.7455
16287TIP3    H270277   4.444   4.746  15.261  1.5596 -0.1759 -3.1521
16288TIP3   OH270278   6.095   3.323  11.950 -0.2275 -0.3781  0.1231
16288TIP3    H170279   6.080   3.287  12.037 -1.9286  0.0084  0.0270
16288TIP3    H270280   6.138   3.407  11.965 -0.6058 -0.2675  0.6013
16289TIP3   OH270281   0.101   6.467   0.747  0.8454  0.8763  0.4161
16289TIP3    H170282   0.082   6.377   0.720  1.2765  0.9090 -0.0088
16289TIP3    H270283   0.018   6.500   0.781  0.6645  0.3448  0.4971
16290TIP3   OH270284   1.176   4.719  11.210 -0.0949  0.0612 -0.5918
16290TIP3    H170285   1.194   4.655  11.279 -1.6323  0.6844  0.4219
16290TIP3    H270286   1.082   4.713  11.195 -0.4400  2.6786  0.1263
16291TIP3   OH270287   0.214   1.786   1.512  0.1439  0.0492 -0.0278
16291TIP3    H170288   0.173   1.719   1.567  0.5172 -0.9724 -0.9554
16291TIP3    H270289   0.153   1.796   1.438  1.3193 -1.2407 -1.2501
16292TIP3   OH270290   4.662   1.778  13.728  0.2156 -0.5185  0.5277
16292TIP3    H170291   4.691   1.689  13.706  1.8882  0.4282 -1.4399
16292TIP3    H270292   4.729   1.810  13.789 -1.0273 -0.9604  2.1891
16293TIP3   OH270293   2.973   0.065   3.704 -0.5736  0.0150  0.0247
16293TIP3    H170294   2.913   0.122   3.657  0.6332  1.4977  0.1957
16293TIP3    H270295   2.986   0.107   3.789 -1.2506 -1.6325  0.9973
16294TIP3   OH270296   0.046   0.732   3.840  0.4753  0.4237  0.4861
16294TIP3    H170297   0.056   0.725   3.745 -0.4512 -0.3335  0.4256
16294TIP3    H270298   0.025   0.643   3.868 -0.4702  0.8560  1.2310
16295TIP3   OH270299   3.059   2.947   4.449 -0.1569  0.1111  0.2279
16295TIP3    H170300   3.129   2.989   4.399  1.9969 -2.1636  1.1509
16295TIP3    H270301   3.023   3.017   4.504  0.9650  1.4639 -0.6977
16296TIP3   OH270302   0.108   5.821   5.126  0.1654  0.3798  0.6219
16296TIP3    H170303   0.158   5.899   5.152  1.6382 -0.2180 -0.2728
16296TIP3    H270304   0.099   5.770   5.206  1.0872  0.4727  0.7969
16297TIP3   OH270305   6.139   6.252  11.313 -0.4815  0.5366  0.4876
16297TIP3    H170306   6.081   6.179  11.292 -2.0497  2.1156 -0.9570
16297TIP3    H270307   6.135   6.258  11.409 -1.1243 -0.6342  0.5559
16298TIP3   OH270308   4.720   6.244   3.184 -0.1920 -0.2066  0.0503
16298TIP3    H170309   4.676   6.287   3.111 -0.3841 -1.6703 -0.7409
16298TIP3    H270310   4.665   6.168   3.204  0.9433 -0.9918  0.3213
16299TIP3   OH270311   4.682   4.942  14.345 -1.0302 -0.2989 -0.4697
16299TIP3    H170312   4.591   4.964  14.363 -1.2076 -0.1379 -1.5135
16299TIP3    H270313   4.706   4.995  14.269  0.3241  0.5846  0.5151
16300TIP3   OH270314   0.174   5.565   5.015 -0.0619  0.1220 -0.4471
16300TIP3    H170315   0.109   5.635   5.017  0.1236  0.3326 -1.2534
16300TIP3    H270316   0.160   5.516   5.096 -0.4818  0.8298 -0.0829
16301TIP3   OH270317   1.863   5.141  12.891 -0.6648  0.0270  0.4621
16301TIP3    H170318   1.818   5.058  12.902  0.3099 -0.3505  1.7546
16301TIP3    H270319   1.956   5.119  12.887 -0.4935  0.8373 -1.7046
16302TIP3   OH270320   5.500   1.443  16.405 -0.3338 -0.4705  0.6364
16302TIP3    H170321   5.439   1.514  16.387 -0.2116  0.5531  3.7273
16302TIP3    H270322   5.544   1.428  16.321 -2.2107  1.2783 -0.7574
16303TIP3   OH270323   1.058   0.877   1.311 -0.2126  0.1382  0.2146
16303TIP3    H170324   1.023   0.957   1.352 -0.0320  0.9809 -1.2258
16303TIP3    H270325   1.152   0.892   1.304 -0.1456 -0.2986  0.1270
16304TIP3   OH270326   4.382   0.138  16.147  0.2830 -0.4712  0.0582
16304TIP3    H170327   4.289   0.146  16.168  0.0885 -0.1566 -0.9197
16304TIP3    H270328   4.412   0.065  16.202 -0.3172  0.0161  1.0758
16305TIP3   OH270329   3.349   1.962  16.788  0.2121 -0.2972  0.1066
16305TIP3    H170330   3.276   1.982  16.847 -0.1163  0.9970 -0.6937
16305TIP3    H270331   3.344   1.867  16.774 -2.0180 -0.1055 -0.7962
16306TIP3   OH270332   3.221   2.475   4.259 -0.8986  0.0922 -0.0170
16306TIP3    H170333   3.148   2.429   4.218 -0.9489  1.3104 -1.3666
16306TIP3    H270334   3.284   2.489   4.188 -0.4598  1.2463  0.5725
16307TIP3   OH270335   0.655   0.204  15.877  0.6401  0.7222 -0.3727
16307TIP3    H170336   0.609   0.263  15.936  0.7047  0.8410 -0.4407
16307TIP3    H270337   0.637   0.116  15.911  1.4844  0.8313  0.4097
16308TIP3   OH270338   4.934   2.787  14.118 -0.7946 -0.0582  0.5863
16308TIP3    H170339   4.983   2.798  14.036  1.2631 -0.3708  1.7014
16308TIP3    H270340   4.847   2.822  14.098 -0.9774 -1.7727 -2.2501
16309TIP3   OH270341   5.572   4.072   1.110  0.6933 -0.0193 -0.1630
16309TIP3    H170342   5.522   4.131   1.053 -1.2883 -2.3025 -0.9576
16309TIP3    H270343   5.517   4.062   1.188  1.1015 -0.6484  0.0477
16310TIP3   OH270344   5.100   1.443  12.001 -0.0804  0.0282 -0.6885
16310TIP3    H170345   5.015   1.413  11.969 -0.1646 -0.4472 -0.0427
16310TIP3    H270346   5.126   1.376  12.065 -0.9342  2.0173  1.8988
16311TIP3   OH270347   4.371   4.879   2.201 -0.5719 -0.1157 -0.4258
16311TIP3    H170348   4.379   4.967   2.164 -1.0394  0.8468  1.6367
16311TIP3    H270349   4.298   4.886   2.262 -0.2829 -1.8160  0.1513
16312TIP3   OH270350   1.962   5.181  13.188 -0.5186 -0.0067  0.2293
16312TIP3    H170351   2.014   5.101  13.203 -1.0691 -0.3456  0.3431
16312TIP3    H270352   1.874   5.158  13.217 -0.9168  0.3167 -0.6859
16313TIP3   OH270353   2.217   4.184  17.073  0.3767  0.1175  0.4079
16313TIP3    H170354   2.272   4.236  17.132  0.7311  3.5735 -2.5926
16313TIP3    H270355   2.279   4.146  17.011 -0.2600  0.3000 -0.3486
16314TIP3   OH270356   2.620   1.864   3.117 -0.4031 -0.3387 -0.0468
16314TIP3    H170357   2.617   1.818   3.200  1.8609  0.0720  0.3327
16314TIP3    H270358   2.651   1.799   3.054  1.1808  0.1829  0.1553
16315TIP3   OH270359   0.422   2.224  16.210  0.3503 -0.0765  0.1349
16315TIP3    H170360   0.476   2.260  16.280 -1.0588  0.7523  0.8421
16315TIP3    H270361   0.467   2.249  16.129  3.1114 -2.7596  0.6284
16316TIP3   OH270362   6.395   2.158  14.929 -0.8597 -0.5704 -0.1850
16316TIP3    H170363   6.317   2.106  14.946 -1.7921  0.3437 -1.4807
16316TIP3    H270364   6.369   2.248  14.949 -0.5249 -0.1097 -1.6910
16317TIP3   OH270365   5.095   0.263   3.233 -0.9460 -0.1394  0.4671
16317TIP3    H170366   5.153   0.269   3.308 -0.1103 -0.0185 -0.1693
16317TIP3    H270367   5.009   0.291   3.266 -0.3675  0.9344  1.1236
16318TIP3   OH270368   3.271   4.767   2.759 -0.6084 -1.0203 -0.0481
16318TIP3    H170369   3.210   4.710   2.806 -0.6517 -1.2332 -0.3615
16318TIP3    H270370   3.236   4.772   2.671 -0.2361 -1.0415 -0.1986
16319TIP3   OH270371   6.158   2.849   4.055 -0.5083  0.4233 -0.0261
16319TIP3    H170372   6.152   2.826   3.963 -1.1011  1.1795 -0.1868
16319TIP3    H270373   6.117   2.935   4.061 -0.2689  0.4858  0.9047
16320TIP3   OH270374   4.169   2.593  16.993 -0.0456 -0.0177 -0.1152
16320TIP3    H170375   4.252   2.551  16.970  0.6514  1.4983 -0.5377
16320TIP3    H270376   4.102   2.529  16.969  0.9541 -0.8446 -0.8101
16321TIP3   OH270377   3.088   4.567   4.829  0.3703  0.1297  0.2254
16321TIP3    H170378   3.150   4.586   4.900  0.2014 -1.6473  0.9007
16321TIP3    H270379   3.129   4.606   4.751  2.0942 -0.5049  0.7499
16322TIP3   OH270380   1.931   6.712   6.654  0.5010 -0.2317  0.2595
16322TIP3    H170381   1.992   6.638   6.657 -1.8226 -2.2888  1.3387
16322TIP3    H270382   1.872   6.691   6.581 -0.5824  0.1844  0.9802
16323TIP3   OH270383   2.632   2.528   5.124  0.0429  0.5149 -1.2532
16323TIP3    H170384   2.627   2.557   5.215  0.6999 -0.6443 -0.8348
16323TIP3    H270385   2.541   2.507   5.100  0.2111 -2.3667  0.2396
16324TIP3   OH270386   1.522   2.627  14.542  0.3571  0.5557 -0.2976
16324TIP3    H170387   1.438   2.632  14.497  0.6837 -0.7321 -1.1090
16324TIP3    H270388   1.580   2.685  14.492  0.6114 -0.5535 -1.3364
16325TIP3   OH270389   5.684   0.260  12.407 -0.2469 -0.5222  0.3965
16325TIP3    H170390   5.773   0.296  12.399  0.1630 -1.6091 -0.1432
16325TIP3    H270391   5.657   0.243  12.317 -1.1465  0.1095  0.5350
16326TIP3   OH270392   4.145   1.436   0.390  0.6174  0.0064  0.4263
16326TIP3    H170393   4.123   1.518   0.344 -0.3726 -0.0487  0.7740
16326TIP3    H270394   4.240   1.441   0.403  1.2361 -0.5819 -2.8195
16327TIP3   OH270395   0.604   5.075   4.913  0.5268  0.4196  0.0197
16327TIP3    H170396   0.588   5.162   4.877 -0.8083  0.0771 -0.2735
16327TIP3    H270397   0.517   5.044   4.941  1.2495 -0.0613  1.8823
16328TIP3   OH270398   6.758   4.556  14.710  0.2844 -0.0678  0.1610
16328TIP3    H170399   6.699   4.553  14.785  0.6096  1.6396  0.5270
16328TIP3    H270400   6.843   4.581  14.747 -0.0306  3.0431 -0.9556
16329TIP3   OH270401   0.468   5.348  12.899  0.3421 -0.1693  0.5754
16329TIP3    H170402   0.408   5.279  12.927 -0.2549  0.0664 -0.0976
16329TIP3    H270403   0.518   5.309  12.828 -0.6542  0.3564 -0.4631
16330TIP3   OH270404   1.758   5.231  11.575  0.4054  0.4290  0.2996
16330TIP3    H170405   1.839   5.278  11.555  0.6574  0.4127  1.2514
16330TIP3    H270406   1.752   5.231  11.670  0.8005 -2.1147  0.3888
16331TIP3   OH270407   2.240   3.189   4.549  0.5982 -0.3564 -0.0206
16331TIP3    H170408   2.317   3.200   4.493 -0.9421 -0.3949 -2.2612
16331TIP3    H270409   2.165   3.204   4.491 -1.2839 -4.3115  1.0113
16332TIP3   OH270410   6.441   6.110  12.446  0.1284  0.3129  0.2154
16332TIP3    H170411   6.514   6.095  12.506  0.6818  2.4389  0.1436
16332TIP3    H270412   6.473   6.080  12.361  0.3146 -0.2049  0.4604
16333TIP3   OH270413   0.442   4.931  11.372 -0.0255 -0.0154  0.6272
16333TIP3    H170414   0.509   4.931  11.440  1.3366  1.1644 -0.6053
16333TIP3    H270415   0.486   4.893  11.296 -0.6923  0.8960 -0.2462
16334TIP3   OH270416   0.182   4.713   1.213  0.1657 -0.1546 -0.3265
16334TIP3    H170417   0.272   4.705   1.183  0.7191  0.4087  1.1056
16334TIP3    H270418   0.138   4.636   1.178  1.4604 -1.0052 -0.1386
16335TIP3   OH270419   5.918   3.884   4.973 -0.1666  0.7918  0.1898
16335TIP3    H170420   5.839   3.830   4.982  0.5880 -0.2532  0.6062
16335TIP3    H270421   5.887   3.973   4.990 -1.5941  0.6439 -1.3071
16336TIP3   OH270422   1.864   2.868  13.809  0.3679 -0.6391 -0.4422
16336TIP3    H170423   1.826   2.867  13.897 -0.9331 -0.8725 -0.9880
16336TIP3    H270424   1.789   2.875  13.751  1.0908 -2.0284 -1.6032
16337TIP3   OH270425   2.331   5.012  16.242 -0.6369 -0.3139  0.0607
16337TIP3    H170426   2.343   4.974  16.156  1.1218  4.0999 -1.9524
16337TIP3    H270427   2.307   5.103  16.225  0.0942  0.8673  4.2077
16338TIP3   OH270428   1.202   6.189  16.863  0.0427 -0.4120 -0.2737
16338TIP3    H170429   1.239   6.159  16.780 -1.9831  1.1239 -1.8497
16338TIP3    H270430   1.249   6.271  16.882 -1.5678  0.9054 -1.6465
16339TIP3   OH270431   1.273   3.368  12.007 -0.2477  0.3348 -0.3016
16339TIP3    H170432   1.309   3.456  12.000  0.0953  0.2145 -0.0611
16339TIP3    H270433   1.327   3.315  11.948  0.5415 -0.0219  0.7080
16340TIP3   OH270434   0.016   3.476   4.582 -0.7110 -0.2339  0.0202
16340TIP3    H170435   0.093   3.463   4.637  0.0031  1.5480 -0.4679
16340TIP3    H270436   0.049   3.523   4.506 -2.1853  0.0574 -0.4737
16341TIP3   OH270437   6.249   0.248  17.120  0.4894 -0.1533 -0.0669
16341TIP3    H170438   6.201   0.283  17.045 -0.7587 -1.2762  0.1731
16341TIP3    H270439   6.341   0.265  17.100  0.0444  1.9356 -0.6167
16342TIP3   OH270440   0.714   5.518   0.304  0.3774  0.2184 -0.5927
16342TIP3    H170441   0.638   5.472   0.340  1.5508 -1.7465 -0.5073
16342TIP3    H270442   0.777   5.520   0.377  0.9940  0.4084 -1.1280
16343TIP3   OH270443   4.956   2.857  11.764 -0.2748  0.3388  0.0980
16343TIP3    H170444   5.043   2.895  11.749 -0.0390 -0.4552 -0.6957
16343TIP3    H270445   4.908   2.923  11.813  0.0671  1.7146 -1.3572
16344TIP3   OH270446   0.608   1.951  16.356  0.0416  1.0354  0.0707
16344TIP3    H170447   0.573   2.041  16.353 -4.2720 -0.3960  0.3039
16344TIP3    H270448   0.582   1.918  16.441  2.0374 -0.3576  0.2058
16345TIP3   OH270449   1.509   4.795   6.082  0.1651 -0.3224 -0.0602
16345TIP3    H170450   1.458   4.787   6.001 -0.1257 -1.5004  0.2253
16345TIP3    H270451   1.444   4.789   6.152  0.7003 -2.1553  0.3157
16346TIP3   OH270452   4.875   0.832   2.047 -0.2110 -0.1431  0.5181
16346TIP3    H170453   4.926   0.894   2.101  0.7652 -1.4522  1.1459
16346TIP3    H270454   4.938   0.798   1.984 -1.1129  0.6048 -0.8287
16347TIP3   OH270455   1.346   6.035  16.096 -0.3117  0.1417  0.1555
16347TIP3    H170456   1.337   6.119  16.141  0.4917  0.1308  0.3572
16347TIP3    H270457   1.261   5.992  16.107 -0.6566  0.8422  0.2269
16348TIP3   OH270458   1.766   4.099  11.261 -0.3797  0.1838  0.3130
16348TIP3    H170459   1.769   4.195  11.260 -1.6700  0.2437  0.0628
16348TIP3    H270460   1.755   4.074  11.169  0.6887 -0.2476  0.2928
16349TIP3   OH270461   5.397   3.619   3.485  0.4110 -0.1326  0.2458
16349TIP3    H170462   5.465   3.683   3.462 -0.0775  0.1713 -0.3788
16349TIP3    H270463   5.325   3.672   3.519  0.4216 -0.4455  0.7682
16350TIP3   OH270464   5.022   3.257   5.507  0.2179  0.1215  0.3934
16350TIP3    H170465   4.960   3.200   5.463 -0.7113  1.9559 -0.8211
16350TIP3    H270466   4.969   3.331   5.537  1.4749  0.6940  1.2647
16351TIP3   OH270467   5.253   4.348  13.002 -0.1456 -0.4128 -0.2656
16351TIP3    H170468   5.160   4.365  12.984  0.7062  2.1929 -3.1296
16351TIP3    H270469   5.283   4.425  13.049  0.9299 -0.3542 -1.0052
16352TIP3   OH270470   2.769   6.432   1.757 -0.4571 -0.4794  0.5702
16352TIP3    H170471   2.796   6.519   1.730 -0.2918 -0.2895  1.3288
16352TIP3    H270472   2.685   6.418   1.714  0.3632 -0.6924 -1.0399
16353TIP3   OH270473   6.211   4.565  13.295  0.2030  0.5748 -0.1639
16353TIP3    H170474   6.121   4.535  13.294  0.0921  0.9159 -0.5796
16353TIP3    H270475   6.261   4.491  13.328 -0.0530 -0.0957 -1.2328
16354TIP3   OH270476   6.669   2.287   1.733  0.1984 -0.4757 -0.0810
16354TIP3    H170477   6.693   2.283   1.825 -2.1401 -1.3755  0.5762
16354TIP3    H270478   6.698   2.203   1.697  1.5081  0.0577 -0.2881
16355TIP3   OH270479   1.619   2.787   3.606 -0.6947 -0.2958  0.3255
16355TIP3    H170480   1.547   2.850   3.606 -0.0373  0.4728  0.4087
16355TIP3    H270481   1.576   2.701   3.601 -1.5709  0.1986 -1.9175
16356TIP3   OH270482   1.974   2.642   0.739  0.1883  0.2577 -0.6121
16356TIP3    H170483   1.928   2.570   0.782 -1.0337  1.8364  0.8404
16356TIP3    H270484   2.062   2.641   0.777  0.2314 -0.5347 -0.7121
16357TIP3   OH270485   1.937   5.786   5.382  0.1020 -0.2777  0.0354
16357TIP3    H170486   1.915   5.836   5.304  0.6607 -0.9674 -0.5704
16357TIP3    H270487   1.857   5.737   5.403  0.1764 -0.6598 -0.5477
16358TIP3   OH270488   4.928   2.946   5.882  0.5798 -0.5209  0.2170
16358TIP3    H170489   4.871   2.878   5.917  0.9319 -0.8697  0.1165
16358TIP3    H270490   4.972   2.905   5.807 -0.7473  0.4471 -1.1462
16359TIP3   OH270491   5.308   4.790   0.343 -0.3086 -0.0123 -0.2006
16359TIP3    H170492   5.349   4.873   0.319 -0.4802  0.3766  0.8280
16359TIP3    H270493   5.276   4.755   0.260  1.8560 -0.2178 -1.0069
16360TIP3   OH270494   4.085   3.535  14.386 -0.6973  0.5277  0.2061
16360TIP3    H170495   4.110   3.614  14.339 -1.1824  0.3659 -0.3355
16360TIP3    H270496   4.137   3.537  14.467 -0.7324  1.4148  0.2118
16361TIP3   OH270497   2.723   2.333   5.948  0.2479 -0.2658  0.2579
16361TIP3    H170498   2.665   2.283   6.004  0.5199 -1.0780 -0.1693
16361TIP3    H270499   2.666   2.395   5.902 -0.3478 -1.3093 -0.4428
16362TIP3   OH270500   4.532   6.207  16.815 -0.2779 -0.0014  0.1787
16362TIP3    H170501   4.513   6.176  16.727 -0.7096 -0.4774  0.4366
16362TIP3    H270502   4.622   6.240  16.810 -0.6362  0.8886 -0.6814
16363TIP3   OH270503   6.475   1.214   1.414 -0.1939 -0.2382 -0.3465
16363TIP3    H170504   6.439   1.250   1.495 -1.1725  0.0036 -0.8767
16363TIP3    H270505   6.445   1.274   1.346  0.0523 -0.8175 -0.9770
16364TIP3   OH270506   0.148   2.614  16.563  0.0092  0.3952  0.5465
16364TIP3    H170507   0.151   2.699  16.518 -1.1070  0.7085  1.0402
16364TIP3    H270508   0.070   2.619  16.618 -0.1761 -1.0382  0.4327
16365TIP3   OH270509   2.307   2.748  15.801 -0.5937  0.5230 -0.1852
16365TIP3    H170510   2.349   2.662  15.793 -0.4661  0.4477  1.0024
16365TIP3    H270511   2.358   2.806  15.745 -2.0629 -0.6115 -2.8747
16366TIP3   OH270512   5.495   6.326   4.148  0.1099  0.1814  0.7598
16366TIP3    H170513   5.439   6.366   4.215  0.6558 -1.3062  2.1879
16366TIP3    H270514   5.433   6.285   4.087 -0.4136 -0.6354  1.7982
16367TIP3   OH270515   0.514   5.128  13.767 -0.0767  0.4025  0.2112
16367TIP3    H170516   0.574   5.144  13.841  2.6935 -3.4735 -0.8749
16367TIP3    H270517   0.546   5.185  13.697  0.1468  0.8364  0.6605
16368TIP3   OH270518   1.688   0.221   2.833  0.4587 -0.4566  0.1405
16368TIP3    H170519   1.675   0.174   2.751 -0.0666  0.6622 -0.4500
16368TIP3    H270520   1.781   0.211   2.853  0.2941 -1.9823  0.2013
16369TIP3   OH270521   2.634   5.591  11.525  0.5094  0.3066 -0.0189
16369TIP3    H170522   2.591   5.506  11.524  0.0191  0.5501  0.0085
16369TIP3    H270523   2.667   5.601  11.435  0.3421  0.1990 -0.0941
16370TIP3   OH270524   3.042   4.520  16.738 -0.3079  0.2186  0.0563
16370TIP3    H170525   3.127   4.504  16.779 -0.1229  0.9854 -0.0252
16370TIP3    H270526   2.980   4.472  16.793  0.0741  0.3506  0.6095
16371TIP3   OH270527   0.651   6.268   2.443  0.5007 -0.2867  0.2812
16371TIP3    H170528   0.604   6.185   2.446 -1.9796  0.7762 -2.9915
16371TIP3    H270529   0.615   6.319   2.515 -0.9518 -0.6927 -0.1352
16372TIP3   OH270530   6.166   2.605  15.194  0.0969  0.6201  0.1539
16372TIP3    H170531   6.090   2.611  15.136 -0.4335 -1.1634  0.6060
16372TIP3    H270532   6.133   2.628  15.280 -0.1725 -0.9064  0.4978
16373TIP3   OH270533   4.261   1.215  17.157 -0.0765 -0.5128  0.2300
16373TIP3    H170534   4.309   1.246  17.080  0.1777 -1.7965 -0.1559
16373TIP3    H270535   4.320   1.232  17.231  0.9397 -1.8855 -0.2137
16374TIP3   OH270536   5.325   5.447   0.145 -0.1063 -0.2362  0.1551
16374TIP3    H170537   5.304   5.517   0.206 -0.0179  1.2873 -1.4652
16374TIP3    H270538   5.271   5.466   0.068 -0.1545 -2.0317 -0.3048
16375TIP3   OH270539   6.503   1.077   3.153  0.0998  0.4230  0.1543
16375TIP3    H170540   6.474   1.069   3.243  2.9316  2.7471  1.4317
16375TIP3    H270541   6.582   1.022   3.148  0.1261  0.5263 -0.8115
16376TIP3   OH270542   6.695   6.771   5.425 -0.6054  0.1919 -0.3771
16376TIP3    H170543   6.608   6.769   5.464 -0.2898  0.6701  0.3645
16376TIP3    H270544   6.682   6.817   5.342 -0.6157  2.7332  0.9420
16377TIP3   OH270545   4.426   0.202  16.740 -0.0408  0.5213 -0.1051
16377TIP3    H170546   4.372   0.261  16.687 -1.3900  0.0357  0.6640
16377TIP3    H270547   4.369   0.176  16.812  0.9017 -0.8117  0.2085
16378TIP3   OH270548   3.699   1.088  11.791 -0.0452 -0.4060 -0.3213
16378TIP3    H170549   3.782   1.044  11.778  1.1373  1.0993  1.6316
16378TIP3    H270550   3.690   1.096  11.886 -0.7280  2.4282 -0.5282
16379TIP3   OH270551   4.683   0.183   3.603 -0.5145  0.1349  0.2009
16379TIP3    H170552   4.689   0.275   3.578  0.2608 -0.7182 -3.1432
16379TIP3    H270553   4.700   0.135   3.523 -0.6576 -2.9759  1.8944
16380TIP3   OH270554   2.363   2.025   2.221  0.1427 -0.2377 -0.5793
16380TIP3    H170555   2.303   2.099   2.220  1.1388  0.7604  2.4344
16380TIP3    H270556   2.306   1.948   2.229 -0.8050  0.3769 -1.2229
16381TIP3   OH270557   4.947   5.721  13.289  0.1351 -0.6839  0.0835
16381TIP3    H170558   4.892   5.647  13.262  0.4856 -1.3835  1.2269
16381TIP3    H270559   4.917   5.742  13.377  0.0440  0.5491 -0.2317
16382TIP3   OH270560   4.319   0.613   4.343  0.0808 -0.4493  0.3016
16382TIP3    H170561   4.378   0.574   4.278  1.3085  0.8878  0.5846
16382TIP3    H270562   4.264   0.540   4.372  1.2576 -1.6263 -0.3370
16383TIP3   OH270563   2.992   4.215  16.241 -0.3511 -0.0910  0.6045
16383TIP3    H170564   2.931   4.276  16.284  1.1236  2.2576 -0.4437
16383TIP3    H270565   2.968   4.219  16.149 -0.1932 -1.1160  0.5090
16384TIP3   OH270566   4.131   0.630   2.335 -0.1634  0.8319  0.0972
16384TIP3    H170567   4.065   0.581   2.287 -0.3233  0.0118  1.1121
16384TIP3    H270568   4.136   0.586   2.421  1.0601  1.4134  0.3498
16385TIP3   OH270569   4.331   3.540   6.623  0.4153 -0.4840 -0.3414
16385TIP3    H170570   4.375   3.600   6.683 -1.5710  0.0884  0.6312
16385TIP3    H270571   4.401   3.484   6.589  2.2094  1.8288 -0.6702
16386TIP3   OH270572   6.426   2.677  15.669 -0.2752  0.5723  0.3512
16386TIP3    H170573   6.360   2.691  15.601 -0.1161 -0.6459 -0.0754
16386TIP3    H270574   6.391   2.723  15.746 -0.9554  1.0877 -0.2530
16387TIP3   OH270575   2.426   3.176  13.736 -0.1725 -0.0451 -0.1492
16387TIP3    H170576   2.457   3.138  13.653 -1.6752 -1.7301  0.0121
16387TIP3    H270577   2.453   3.113  13.803 -0.2033  0.6003  0.4753
16388TIP3   OH270578   4.028   5.648  10.441  0.3322 -0.1524 -0.7174
16388TIP3    H170579   4.060   5.559  10.454  2.5728  0.3096 -2.3270
16388TIP3    H270580   4.079   5.702  10.502 -1.4783  0.0226  0.7326
16389TIP3   OH270581   2.722   6.611  14.897  0.1794  0.2139  0.7119
16389TIP3    H170582   2.652   6.546  14.904  0.1118  0.0644 -0.8623
16389TIP3    H270583   2.677   6.690  14.866  0.7810 -0.1629 -1.3150
16390TIP3   OH270584   0.069   1.410  15.590 -0.2347  0.1153 -0.1380
16390TIP3    H170585   0.099   1.421  15.681  0.4268 -1.6668 -0.1021
16390TIP3    H270586   0.148   1.418  15.537 -0.2784 -0.8092 -0.3679
16391TIP3   OH270587   3.241   0.186   3.890 -0.2234  0.3664  0.5199
16391TIP3    H170588   3.262   0.200   3.983 -1.7042 -0.3703  0.9963
16391TIP3    H270589   3.188   0.262   3.867  0.2530  0.6146  0.2214
16392TIP3   OH270590   1.971   2.647  14.026  0.0806  0.2586  0.0202
16392TIP3    H170591   1.903   2.698  14.069 -1.0083 -0.6268 -0.6113
16392TIP3    H270592   2.013   2.598  14.096 -0.2383  0.4516  0.3483
16393TIP3   OH270593   3.057   0.018  14.965  0.0463  0.3200  0.7569
16393TIP3    H170594   2.981   0.068  14.996 -0.1321  0.6852 -0.2305
16393TIP3    H270595   3.059  -0.060  15.021 -1.5129 -0.0629  0.3401
16394TIP3   OH270596   2.225   3.779   0.411  0.4805  0.0186 -0.1509
16394TIP3    H170597   2.259   3.704   0.461  1.0835  1.4975  1.7449
16394TIP3    H270598   2.302   3.811   0.363  0.6083  0.4072  0.3131
16395TIP3   OH270599   4.445   6.675   1.935 -0.2168 -0.1539  0.1111
16395TIP3    H170600   4.509   6.711   1.874  1.4389 -0.2630  1.6916
16395TIP3    H270601   4.467   6.582   1.941 -0.7890 -0.2808  0.3688
16396TIP3   OH270602   1.148   3.300  14.918  0.1007  0.1344  0.4373
16396TIP3    H170603   1.107   3.288  15.004  0.3962 -0.6052  0.4794
16396TIP3    H270604   1.171   3.211  14.890 -1.8380  0.0893 -1.3154
16397TIP3   OH270605   5.623   6.217   2.733 -0.5109 -0.5452  0.4216
16397TIP3    H170606   5.598   6.127   2.713 -1.2411 -0.2785  0.0962
16397TIP3    H270607   5.678   6.211   2.811 -0.9903 -1.2188  0.7087
16398TIP3   OH270608   3.428   1.296   3.894 -0.1899 -0.2062  0.3880
16398TIP3    H170609   3.378   1.218   3.919  2.6896 -1.8183  1.6210
16398TIP3    H270610   3.415   1.304   3.800 -0.9050 -1.9006  0.3128
16399TIP3   OH270611   6.703   2.272  14.916 -0.0446 -0.1334 -0.2108
16399TIP3    H170612   6.736   2.324  14.989 -0.5400 -0.0649 -0.0329
16399TIP3    H270613   6.617   2.308  14.897 -0.0983 -0.4306 -0.5510
16400TIP3   OH270614   6.242   6.263  10.509  0.2901  0.1570  0.3899
16400TIP3    H170615   6.221   6.247  10.601  0.4931 -1.1368  0.2359
16400TIP3    H270616   6.165   6.307  10.474 -0.4009 -0.6611  0.8435
16401TIP3   OH270617   3.828   3.759  11.254 -0.5842 -0.1832 -0.5802
16401TIP3    H170618   3.867   3.822  11.314  0.1949 -0.9076 -0.3153
16401TIP3    H270619   3.775   3.812  11.195 -0.3777  0.6617 -0.0218
16402TIP3   OH270620   5.166   5.969   4.836  0.1441  0.1501 -0.4553
16402TIP3    H170621   5.114   6.038   4.877  0.0513  1.0645 -2.0469
16402TIP3    H270622   5.105   5.896   4.827  0.9280 -1.3004  3.7784
16403TIP3   OH270623   4.892   0.990   0.280  0.0282 -0.0853  0.0742
16403TIP3    H170624   4.831   0.939   0.333 -0.6315 -1.1822 -1.6529
16403TIP3    H270625   4.843   1.068   0.254  0.2385  0.2850  0.7733
16404TIP3   OH270626   3.308   5.833   5.058  0.3731 -0.3892 -0.3968
16404TIP3    H170627   3.329   5.925   5.069 -1.1132 -0.1057  0.3674
16404TIP3    H270628   3.283   5.803   5.145 -2.0725 -0.6901 -1.1179
16405TIP3   OH270629   3.479   2.355   2.397 -0.1343  0.9082 -0.2606
16405TIP3    H170630   3.444   2.279   2.352  0.9968 -0.3597  0.9132
16405TIP3    H270631   3.409   2.420   2.393 -2.4017 -1.2703  1.4422
16406TIP3   OH270632   4.797   5.448  14.291 -0.2410 -0.0581  0.4358
16406TIP3    H170633   4.873   5.502  14.310 -1.7815  2.2007  0.6515
16406TIP3    H270634   4.817   5.363  14.329  1.2183  1.1550  2.5812
16407TIP3   OH270635   1.324   0.178  14.991 -0.4340  1.0706  0.0206
16407TIP3    H170636   1.257   0.246  14.982 -0.1965  1.1610 -1.2550
16407TIP3    H270637   1.406   0.223  14.971  0.1127  1.0937  2.1046
16408TIP3   OH270638   4.116   0.413  12.592 -0.1294  0.1799  1.0478
16408TIP3    H170639   4.082   0.499  12.616 -0.6281 -0.2310  1.8509
16408TIP3    H270640   4.039   0.356  12.591 -0.0550  0.0598 -1.0640
16409TIP3   OH270641   6.675   4.135  12.943 -0.8786  0.7324  0.1989
16409TIP3    H170642   6.704   4.046  12.960 -0.4386  0.6729 -0.8138
16409TIP3    H270643   6.597   4.146  12.997 -1.6923 -0.6919 -0.6438
16410TIP3   OH270644   6.229   5.411   4.150 -0.1287  0.4337  0.2885
16410TIP3    H170645   6.156   5.454   4.107  0.7988  2.3132  0.4865
16410TIP3    H270646   6.227   5.444   4.240  0.7910  0.2992  0.3690
16411TIP3   OH270647   6.352   2.753  16.861 -0.5106  0.7633 -0.1630
16411TIP3    H170648   6.413   2.767  16.934 -1.6216 -0.5447  1.0754
16411TIP3    H270649   6.265   2.767  16.900 -1.4002 -3.4835 -0.2094
16412TIP3   OH270650   6.231   0.712  11.050 -0.2382  0.0260 -0.2406
16412TIP3    H170651   6.210   0.751  10.965 -0.1868 -0.9918 -0.7335
16412TIP3    H270652   6.209   0.781  11.113  1.2716  1.4161 -1.1517
16413TIP3   OH270653   6.321   5.458  14.643 -0.6773 -0.2226  0.2807
16413TIP3    H170654   6.252   5.399  14.672  0.0829 -0.4378  1.7652
16413TIP3    H270655   6.359   5.492  14.725 -0.1870  1.2425 -0.5248
16414TIP3   OH270656   4.912   3.253   0.803  0.2323  0.1361  0.2036
16414TIP3    H170657   4.904   3.170   0.756 -1.8196 -1.3277  2.8896
16414TIP3    H270658   5.005   3.259   0.825  0.7023 -0.5785 -1.4228
16415TIP3   OH270659   5.081   0.863  16.275  0.3209 -0.1301  0.4960
16415TIP3    H170660   5.158   0.840  16.327  0.7565  0.9726  0.3624
16415TIP3    H270661   5.071   0.957  16.288 -0.7740 -0.2013  0.1943
16416TIP3   OH270662   1.718   3.300   3.872 -0.2448  0.0368  0.0134
16416TIP3    H170663   1.810   3.306   3.898 -0.1234  1.0499 -0.5877
16416TIP3    H270664   1.715   3.338   3.784 -1.2927  0.3398  0.1614
16417TIP3   OH270665   4.088   5.276   3.072 -0.4278  0.0930  0.0042
16417TIP3    H170666   4.113   5.185   3.086 -1.4702  0.0305  1.7381
16417TIP3    H270667   3.992   5.277   3.081 -0.5814  1.1502 -1.3483
16418TIP3   OH270668   5.666   4.802   3.307  0.5407  0.3243  0.5405
16418TIP3    H170669   5.604   4.834   3.373 -2.4657 -2.7031 -0.4822
16418TIP3    H270670   5.702   4.722   3.346  0.6489 -0.1320 -0.4607
16419TIP3   OH270671   1.226   6.704   4.852 -0.1772 -0.1507  0.2762
16419TIP3    H170672   1.240   6.660   4.936  1.3440 -0.5321 -0.1597
16419TIP3    H270673   1.197   6.635   4.793  0.5263 -0.2371  0.0302
16420TIP3   OH270674   5.159   6.148  12.500 -0.0467  0.4331 -0.6490
16420TIP3    H170675   5.202   6.204  12.565 -0.9148 -0.4698  0.7624
16420TIP3    H270676   5.160   6.199  12.420  2.4472  0.9872 -0.3583
16421TIP3   OH270677   0.583   4.148   4.352 -0.1104  0.0395 -0.4411
16421TIP3    H170678   0.597   4.117   4.442 -1.1758 -1.4215 -0.7390
16421TIP3    H270679   0.657   4.112   4.303  0.0221  0.1264 -0.3062
16422TIP3   OH270680   2.763   2.136  12.430  0.1608 -0.2685 -0.6834
16422TIP3    H170681   2.777   2.075  12.357 -1.3434 -0.7735 -0.5787
16422TIP3    H270682   2.695   2.195  12.399 -0.2186 -0.2468  0.1726
16423TIP3   OH270683   4.472   2.997  16.313 -0.0959  0.3243  0.9722
16423TIP3    H170684   4.412   2.922  16.316  0.5034 -0.2600 -0.3373
16423TIP3    H270685   4.510   3.002  16.400 -0.6488 -0.4828  1.2681
16424TIP3   OH270686   0.439   0.192   2.604  0.3414  0.1634 -0.3194
16424TIP3    H170687   0.432   0.158   2.515 -1.1287  0.6079 -0.3999
16424TIP3    H270688   0.513   0.145   2.642  0.2750 -0.8623 -1.4026
16425TIP3   OH270689   3.146   1.947  10.733 -0.3311  0.2508  0.6568
16425TIP3    H170690   3.199   2.015  10.776 -0.7643  1.1509 -0.1919
16425TIP3    H270691   3.208   1.875  10.717  0.3639  0.8125  0.7319
16426TIP3   OH270692   4.846   4.151  11.783  0.4332  0.1112 -0.0687
16426TIP3    H170693   4.827   4.066  11.744 -0.0089  0.1370  0.0838
16426TIP3    H270694   4.937   4.169  11.759  1.0567 -1.1349  1.2430
16427TIP3   OH270695   2.464   0.266  13.430 -0.2367 -0.5486  0.2064
16427TIP3    H170696   2.457   0.203  13.501 -0.0210  1.0608  1.7221
16427TIP3    H270697   2.446   0.350  13.471  3.6153  0.9561 -0.7476
16428TIP3   OH270698   3.640   0.251   2.405 -0.9750  0.0306  0.1103
16428TIP3    H170699   3.640   0.198   2.326 -1.2595 -0.3379  0.3567
16428TIP3    H270700   3.588   0.202   2.468  0.5436 -0.4517  1.0526
16429TIP3   OH270701   3.924   3.899   4.571  0.1666 -0.2249 -0.5424
16429TIP3    H170702   3.878   3.935   4.494  0.3825 -1.3013 -1.1977
16429TIP3    H270703   3.875   3.819   4.593  0.0535  0.1203  0.5112
16430TIP3   OH270704   0.826   1.820   6.022  0.2107  0.4422  0.3490
16430TIP3    H170705   0.806   1.794   6.111 -1.9108 -1.8974 -0.6860
16430TIP3    H270706   0.914   1.787   6.006 -0.4914 -1.7799  0.7334
16431TIP3   OH270707   0.431   3.000   0.032 -0.0381  0.1032 -0.2080
16431TIP3    H170708   0.440   2.936  -0.039 -1.3714  0.0325 -0.3388
16431TIP3    H270709   0.342   3.035   0.022 -0.1940  0.2224  1.3239
16432TIP3   OH270710   1.074   0.241   4.454  0.3822 -0.5964  0.0249
16432TIP3    H170711   1.044   0.271   4.368  0.2945 -0.3834  0.1278
16432TIP3    H270712   1.169   0.258   4.454  0.4994 -1.2466 -0.2912
16433TIP3   OH270713   6.660   6.420   0.945 -0.1647 -0.0785 -0.7803
16433TIP3    H170714   6.580   6.370   0.961  1.7719 -2.6632  1.8132
16433TIP3    H270715   6.680   6.463   1.028  1.9580 -0.8562 -0.8159
16434TIP3   OH270716   5.270   2.154   4.663  0.0732  0.1298  0.0986
16434TIP3    H170717   5.325   2.087   4.621 -0.7339  0.0952 -0.9664
16434TIP3    H270718   5.236   2.206   4.589 -2.4444 -0.7304  0.5708
16435TIP3   OH270719   5.649   4.284  15.889  0.1171 -0.5144  0.0463
16435TIP3    H170720   5.602   4.238  15.958 -0.1469 -0.2286  0.0566
16435TIP3    H270721   5.690   4.214  15.837  2.1407 -0.7189  1.7499
16436TIP3   OH270722   4.993   0.403  13.973 -0.1720 -0.4123  0.1409
16436TIP3    H170723   5.070   0.362  13.933 -0.9995 -1.5001 -0.3956
16436TIP3    H270724   4.996   0.494  13.943  0.0167 -0.8479 -1.2504
16437TIP3   OH270725   1.802   0.509  16.804 -0.4942 -0.3398  0.2720
16437TIP3    H170726   1.884   0.522  16.756 -0.5599  0.2366  0.3113
16437TIP3    H270727   1.781   0.596  16.839 -1.1022 -0.4957  0.2952
16438TIP3   OH270728   1.313   5.759   4.900  0.1193 -0.1542 -0.4115
16438TIP3    H170729   1.375   5.815   4.946 -0.7003 -0.0654  0.6314
16438TIP3    H270730   1.236   5.814   4.886 -0.9806 -1.1601  1.2773
16439TIP3   OH270731   2.948   2.994  11.743  0.1224 -0.2545 -0.0573
16439TIP3    H170732   2.927   3.034  11.658  0.3304 -0.4528 -0.2031
16439TIP3    H270733   3.000   2.917  11.721 -1.4846 -1.4199  0.1468
16440TIP3   OH270734   2.539   4.456  12.678  0.1276 -1.2590 -0.3965
16440TIP3    H170735   2.498   4.440  12.763 -1.8400  0.3944 -0.9290
16440TIP3    H270736   2.522   4.377  12.628 -2.5727 -0.6663 -0.5825
16441TIP3   OH270737   3.097   2.340   3.320  0.1744  0.4088 -0.0815
16441TIP3    H170738   3.156   2.365   3.248  1.3837  1.7569  1.2877
16441TIP3    H270739   3.142   2.268   3.363 -1.3844 -1.5999 -1.6256
16442TIP3   OH270740   3.452   0.906   5.512 -0.2550 -0.1058  0.2670
16442TIP3    H170741   3.451   0.894   5.417  0.6874  4.4604 -0.5766
16442TIP3    H270742   3.361   0.922   5.535 -0.1551  2.0467 -0.5838
16443TIP3   OH270743   2.526   3.385   3.191 -0.1914 -0.1553  0.0719
16443TIP3    H170744   2.597   3.421   3.137 -0.6569  0.2757 -0.2755
16443TIP3    H270745   2.495   3.460   3.241  0.5163 -0.6476  1.2784
16444TIP3   OH270746   3.693   5.813   1.299 -0.1014  0.0647 -0.3582
16444TIP3    H170747   3.778   5.769   1.301  0.4772  1.1184 -0.7737
16444TIP3    H270748   3.675   5.835   1.390 -0.6946 -1.5325 -0.0573
16445TIP3   OH270749   3.500   6.250   1.355  0.9912  0.2250  0.3547
16445TIP3    H170750   3.477   6.260   1.262  0.5526  0.3561  0.4743
16445TIP3    H270751   3.595   6.246   1.356  1.0838  1.7586  0.0469
16446TIP3   OH270752   5.702   0.492  16.537  0.2246  0.7458 -0.3106
16446TIP3    H170753   5.658   0.475  16.454 -0.7569  0.7440  0.1936
16446TIP3    H270754   5.788   0.450  16.528 -0.5457 -0.8418 -0.6618
16447TIP3   OH270755   3.229   3.267  17.094 -0.1116 -0.1434  0.2668
16447TIP3    H170756   3.212   3.260  17.188  0.0655 -2.6798  0.1651
16447TIP3    H270757   3.253   3.179  17.067 -4.0343 -0.5082 -2.9238
16448TIP3   OH270758   5.814   4.104   5.698  0.3495 -0.3871  1.4020
16448TIP3    H170759   5.778   4.023   5.733  0.2109 -0.1989  1.7000
16448TIP3    H270760   5.741   4.166   5.700 -0.5542 -1.1196 -1.9555
16449TIP3   OH270761   3.189   4.277   3.082 -0.0692  0.1093  0.3459
16449TIP3    H170762   3.113   4.230   3.048  0.7633 -2.9194  2.1697
16449TIP3    H270763   3.160   4.311   3.167  0.5433 -1.1992  1.1250
16450TIP3   OH270764   1.359   5.129  10.666 -0.2103 -0.4499 -0.1839
16450TIP3    H170765   1.351   5.045  10.622 -0.8947 -0.4205 -0.1294
16450TIP3    H270766   1.443   5.164  10.637  0.6741 -1.7023  0.7590
16451TIP3   OH270767   2.824   5.582  11.769  0.5657 -0.6071  0.0554
16451TIP3    H170768   2.842   5.655  11.710 -1.0599 -0.4068 -0.2169
16451TIP3    H270769   2.736   5.554  11.747  1.0513 -2.5051  0.3291
16452TIP3   OH270770   5.026   6.477  15.967 -0.7482  0.4608  0.2657
16452TIP3    H170771   4.954   6.413  15.963 -1.3638  1.1227  0.4886
16452TIP3    H270772   4.993   6.546  16.024  0.2011  0.6270  0.6302
16453TIP3   OH270773   6.464   0.931   1.293  0.1951  0.3319 -0.2969
16453TIP3    H170774   6.477   1.005   1.352 -0.9759  0.1135  0.2735
16453TIP3    H270775   6.384   0.953   1.245 -0.8351 -1.0367  0.6913
16454TIP3   OH270776   2.901   6.352  16.911 -0.1587  0.1109  0.1780
16454TIP3    H170777   2.997   6.351  16.915 -0.1686  0.7586  0.8033
16454TIP3    H270778   2.874   6.398  16.990 -1.0706 -1.7707  1.0225
16455TIP3   OH270779   3.231   6.261  14.605  0.1927  0.0896  0.1866
16455TIP3    H170780   3.228   6.223  14.517 -0.0321  1.0974 -0.2479
16455TIP3    H270781   3.297   6.209  14.650  0.1959 -0.5482 -0.5225
16456TIP3   OH270782   1.086   1.910   0.134  0.7462 -0.3978 -0.7664
16456TIP3    H170783   0.995   1.923   0.160  0.9745  1.4161 -0.6816
16456TIP3    H270784   1.104   1.984   0.075  2.7825  0.6134  0.9939
16457TIP3   OH270785   5.655   1.475   4.256 -0.2292 -0.2297  0.5644
16457TIP3    H170786   5.689   1.558   4.289  2.2887 -0.7097 -0.5298
16457TIP3    H270787   5.618   1.496   4.171 -0.7095 -0.0331  0.8229
16458TIP3   OH270788   1.497   5.105  10.920  0.2782 -0.1293 -0.2853
16458TIP3    H170789   1.415   5.119  10.872  0.7901 -0.1347 -1.1920
16458TIP3    H270790   1.556   5.172  10.886  0.4728  0.2614  0.8055
16459TIP3   OH270791   1.229   1.817   3.618 -0.4249 -0.6410  0.3426
16459TIP3    H170792   1.156   1.797   3.560  0.9381  0.0862 -1.7485
16459TIP3    H270793   1.299   1.758   3.588  1.2186  1.7414 -0.7932
16460TIP3   OH270794   2.970   4.082   0.340 -0.0223  0.8119  0.2478
16460TIP3    H170795   3.016   4.093   0.257 -0.1385  1.3990  0.2560
16460TIP3    H270796   2.961   4.171   0.375  0.7788  0.4924  1.3083
16461TIP3   OH270797   6.773   5.415  10.555 -0.1111 -0.2233  0.2624
16461TIP3    H170798   6.682   5.443  10.546  0.0705  0.5430  0.7254
16461TIP3    H270799   6.812   5.479  10.615  1.5884  1.4042 -2.3925
16462TIP3   OH270800   3.193   3.768  12.768  0.2426  0.0277  0.5865
16462TIP3    H170801   3.263   3.770  12.702  1.0658  0.4636  1.4485
16462TIP3    H270802   3.122   3.818  12.728  0.5207 -0.1869 -0.1982
16463TIP3   OH270803   6.334   5.925   0.165  0.6132 -0.5518 -0.1188
16463TIP3    H170804   6.361   5.882   0.246  0.9434 -1.3571 -0.6492
16463TIP3    H270805   6.378   6.010   0.167  1.4048 -0.9582  0.0857
16464TIP3   OH270806   6.231   6.414   4.705 -0.0568  0.0955  0.4060
16464TIP3    H170807   6.228   6.441   4.797  0.9345  1.2232  0.1328
16464TIP3    H270808   6.162   6.348   4.697  0.1303 -0.3438  2.0500
16465TIP3   OH270809   0.029   3.469  12.719  0.4815  0.1649 -0.1490
16465TIP3    H170810   0.082   3.389  12.723 -1.2195 -0.9934  1.4930
16465TIP3    H270811  -0.035   3.452  12.650  1.7447  1.2644 -1.6422
16466TIP3   OH270812   2.220   3.962  15.887 -0.1194 -0.7241 -0.6295
16466TIP3    H170813   2.213   4.041  15.834  1.3840 -0.1076  0.0396
16466TIP3    H270814   2.145   3.909  15.860 -0.9940  0.7790 -1.3190
16467TIP3   OH270815   0.210   6.164  14.829  0.1540 -0.3501  0.4432
16467TIP3    H170816   0.167   6.106  14.765  0.8298 -1.6132  1.0956
16467TIP3    H270817   0.294   6.184  14.789  0.4560 -0.9008  0.7909
16468TIP3   OH270818   5.800   5.216   0.196 -0.6377  0.4189 -0.6984
16468TIP3    H170819   5.809   5.264   0.114 -0.0509  0.0471 -0.8568
16468TIP3    H270820   5.705   5.209   0.209 -0.7457  2.0123 -0.4185
16469TIP3   OH270821   1.954   6.379   6.519 -0.1914  0.6511  0.2024
16469TIP3    H170822   1.871   6.378   6.472 -0.2744 -0.4215  0.3491
16469TIP3    H270823   1.990   6.291   6.507  2.1263  1.7491 -1.9377
16470TIP3   OH270824   1.158   1.267   2.045  0.3666  0.7954  0.1150
16470TIP3    H170825   1.162   1.358   2.076  1.8176  1.1663 -1.0284
16470TIP3    H270826   1.162   1.274   1.950  0.4195 -0.4676  0.0076
16471TIP3   OH270827   1.906   1.320   3.159  0.1210  0.0030  0.2769
16471TIP3    H170828   1.984   1.324   3.214 -0.1526  0.1214  0.6590
16471TIP3    H270829   1.892   1.410   3.130  0.9219 -0.2283 -0.9296
16472TIP3   OH270830   6.049   2.476  14.451  0.2933  0.6101  0.4733
16472TIP3    H170831   6.038   2.554  14.506  1.2829  1.0739  0.0354
16472TIP3    H270832   6.092   2.509  14.372  0.4897 -0.3496  0.1756
16473TIP3   OH270833   2.677   1.618  16.024 -0.1083 -0.1675  0.0236
16473TIP3    H170834   2.729   1.644  16.100  0.1181  0.1431 -0.2356
16473TIP3    H270835   2.654   1.700  15.981 -2.6521 -0.1118  1.3121
16474TIP3   OH270836   1.674   1.478  14.312  0.1376  0.2225  0.1490
16474TIP3    H170837   1.754   1.447  14.355  0.9529  0.7032 -0.9731
16474TIP3    H270838   1.663   1.419  14.237 -0.3889  0.3503  0.1200
16475TIP3   OH270839   0.537   5.239  11.931 -0.0757  0.0964 -0.0317
16475TIP3    H170840   0.565   5.165  11.985  2.3770  0.9820  0.0368
16475TIP3    H270841   0.570   5.219  11.844 -2.0663 -0.2595 -0.7617
16476TIP3   OH270842   6.105   3.751   0.480 -0.0902 -0.0910 -0.3891
16476TIP3    H170843   6.053   3.809   0.423 -1.2264 -1.7529 -1.1347
16476TIP3    H270844   6.178   3.724   0.425 -0.1777 -0.2445 -0.4303
16477TIP3   OH270845   5.090   4.752  13.542 -0.4583  0.8927 -0.2535
16477TIP3    H170846   5.027   4.821  13.563  0.1377  1.1882  0.6197
16477TIP3    H270847   5.055   4.710  13.463 -1.6267  1.1919  0.0956
16478TIP3   OH270848   3.679   2.314   5.691 -0.1011 -0.2634  0.2815
16478TIP3    H170849   3.613   2.249   5.669 -1.1891  1.3256 -1.4026
16478TIP3    H270850   3.632   2.379   5.744  0.2347  0.6048 -0.4637
16479TIP3   OH270851   1.288   1.515  15.571 -0.4814  0.4419 -0.4681
16479TIP3    H170852   1.363   1.566  15.542 -0.5133 -0.2577 -1.8472
16479TIP3    H270853   1.313   1.424  15.557 -1.4029  0.1828 -0.5382
16480TIP3   OH270854   3.011   0.486  11.998  0.1569  0.2588  0.1841
16480TIP3    H170855   2.959   0.560  12.029 -0.3665 -0.8249  2.0639
16480TIP3    H270856   2.953   0.411  12.008  1.0467 -0.5663 -0.6713
16481TIP3   OH270857   3.344   2.193  17.138  0.1085 -0.1213 -0.0928
16481TIP3    H170858   3.407   2.125  17.112  0.1562 -0.2395  0.3231
16481TIP3    H270859   3.369   2.215  17.228 -0.8139 -0.6003  0.2937
16482TIP3   OH270860   4.279   4.157  16.379 -0.0341 -0.3701  0.9718
16482TIP3    H170861   4.354   4.167  16.321 -1.2455  0.1069 -0.5920
16482TIP3    H270862   4.267   4.062  16.387 -0.4724 -0.4604 -0.4609
16483TIP3   OH270863   5.804   0.345   0.944  0.2977  0.1525 -0.1707
16483TIP3    H170864   5.774   0.362   0.855  0.7817  0.3743 -0.2939
16483TIP3    H270865   5.850   0.261   0.938 -0.0551 -0.0504 -0.0396
16484TIP3   OH270866   4.084   5.364   1.005 -0.1556 -0.1686  1.0117
16484TIP3    H170867   4.133   5.311   1.068 -0.8169 -0.2876  1.4235
16484TIP3    H270868   4.104   5.454   1.029  2.2506 -0.1376 -0.6456
16485TIP3   OH270869   3.827   4.112   4.070  0.3109 -0.4168 -0.2409
16485TIP3    H170870   3.811   4.173   3.998  1.1248  1.1343  0.8347
16485TIP3    H270871   3.849   4.168   4.144  2.9072 -2.0740  0.3423
16486TIP3   OH270872   0.148   2.336  14.762  0.5804 -0.4120  0.1473
16486TIP3    H170873   0.146   2.420  14.809 -1.4498  0.7570 -1.8276
16486TIP3    H270874   0.084   2.282  14.807 -1.2094  0.6317 -1.0336
16487TIP3   OH270875   1.874   6.174   5.751  0.1935 -0.4402 -0.2752
16487TIP3    H170876   1.784   6.199   5.773  0.6293 -0.8514  2.3586
16487TIP3    H270877   1.864   6.096   5.696 -1.1377 -1.6937  1.6004
16488TIP3   OH270878   6.598   5.921  13.841  0.2667  0.0067 -0.2682
16488TIP3    H170879   6.509   5.957  13.838  0.2512  0.0971  0.7083
16488TIP3    H270880   6.620   5.901  13.750 -0.7914 -0.1112 -0.5058
16489TIP3   OH270881   0.504   6.686   4.538 -0.5072  0.3159 -0.1034
16489TIP3    H170882   0.429   6.742   4.520 -0.7946 -0.2966 -0.8872
16489TIP3    H270883   0.580   6.739   4.513 -0.7801  0.3582 -0.8942
16490TIP3   OH270884   4.719   5.148   5.280 -0.5694  0.0743  0.3047
16490TIP3    H170885   4.636   5.144   5.328  0.1009 -1.2068  1.4170
16490TIP3    H270886   4.695   5.129   5.190 -1.4454 -0.5534  0.6551
16491TIP3   OH270887   2.357   4.573   4.426  0.2516  0.2118  0.1096
16491TIP3    H170888   2.317   4.616   4.350  0.1374  0.1639  0.1437
16491TIP3    H270889   2.284   4.555   4.485  0.2376 -0.4606 -0.1103
16492TIP3   OH270890   4.134   0.937   0.053 -0.3479  0.1533  0.6700
16492TIP3    H170891   4.040   0.957   0.058 -0.2244  0.6859  0.8606
16492TIP3    H270892   4.144   0.891  -0.031 -0.8393 -0.2245  0.8156
16493TIP3   OH270893   4.613   1.702   1.363  0.2813 -0.3444 -0.2259
16493TIP3    H170894   4.654   1.703   1.449  1.5088 -3.5817 -0.6322
16493TIP3    H270895   4.549   1.630   1.367 -1.1460  0.7751 -1.4243
16494TIP3   OH270896   0.042   4.491  12.413 -0.4128 -0.0350  1.2175
16494TIP3    H170897  -0.018   4.460  12.345 -0.2681  2.1175  0.0138
16494TIP3    H270898  -0.006   4.478  12.495 -1.7374 -0.1420  0.4569
16495TIP3   OH270899   3.098   6.262  14.040 -0.4772  0.1307 -0.5038
16495TIP3    H170900   3.052   6.179  14.026 -2.1553  0.9683 -0.3001
16495TIP3    H270901   3.107   6.300  13.953 -3.0491  1.3642 -0.3203
16496TIP3   OH270902   5.835   3.413   5.055  0.2226 -0.3722 -0.2028
16496TIP3    H170903   5.752   3.425   5.101 -0.4844 -0.3597 -1.4271
16496TIP3    H270904   5.885   3.493   5.073 -0.9335  0.6184 -1.2240
16497TIP3   OH270905   3.109   3.647   4.613  0.1730  0.0299  0.1091
16497TIP3    H170906   3.104   3.734   4.652 -0.8038  0.4585 -0.9315
16497TIP3    H270907   3.023   3.609   4.627 -0.0555  0.0156 -1.1648
16498TIP3   OH270908   3.991   4.391  15.750 -0.1042 -0.0203  0.1838
16498TIP3    H170909   4.034   4.463  15.796 -1.5598  1.7599 -1.0995
16498TIP3    H270910   4.056   4.361  15.687 -0.0885  1.4365 -0.5237
16499TIP3   OH270911   5.995   1.781   6.262  0.1384 -0.5990  0.3262
16499TIP3    H170912   6.045   1.699   6.255  2.0504  0.5779 -0.4773
16499TIP3    H270913   6.000   1.804   6.355  2.0505  0.0279  0.1035
16500TIP3   OH270914   1.451   4.111   1.100 -0.5897 -0.1875  0.6236
16500TIP3    H170915   1.537   4.116   1.058  0.3508 -0.3007  2.4235
16500TIP3    H270916   1.414   4.029   1.068 -0.3823  0.2217 -0.7532
16501TIP3   OH270917   4.187   4.212   5.496 -0.1610 -0.2150 -0.0322
16501TIP3    H170918   4.235   4.136   5.528  0.2671 -1.3865 -3.1443
16501TIP3    H270919   4.097   4.197   5.526  0.0767 -1.5343  0.1024
16502TIP3   OH270920   6.704   5.100  14.360 -0.1715 -0.1437 -0.2126
16502TIP3    H170921   6.727   5.025  14.304 -0.8758 -0.1395 -0.5101
16502TIP3    H270922   6.666   5.061  14.438 -1.4123 -0.0828 -0.7638
16503TIP3   OH270923   1.073   2.941  12.076 -0.2201  0.0675 -0.4093
16503TIP3    H170924   1.163   2.909  12.072 -0.1324  0.4006 -1.2299
16503TIP3    H270925   1.019   2.865  12.053 -0.1003  0.0828 -0.7467
16504TIP3   OH270926   3.689   4.641  13.876 -0.5878  0.4230 -0.4079
16504TIP3    H170927   3.636   4.561  13.870  1.3525 -1.0545  0.5818
16504TIP3    H270928   3.678   4.670  13.966  1.0847 -0.5840  0.1739
16505TIP3   OH270929   2.552   4.882   0.897  0.6562 -0.2301  0.8084
16505TIP3    H170930   2.617   4.947   0.924  1.0299  0.5629 -1.8063
16505TIP3    H270931   2.603   4.807   0.868  0.4636  0.3744 -1.2110
16506TIP3   OH270932   6.521   6.215   2.402  0.4379 -0.3387 -0.3859
16506TIP3    H170933   6.505   6.300   2.360 -0.4933 -0.8518 -1.1158
16506TIP3    H270934   6.529   6.235   2.495  1.6627  0.7211 -0.6939
16507TIP3   OH270935   1.246   0.331   2.843  0.3334  0.2860  0.0773
16507TIP3    H170936   1.317   0.355   2.784  1.8924  0.7803  2.0551
16507TIP3    H270937   1.194   0.412   2.852  0.7702  0.5443  0.2911
16508TIP3   OH270938   3.369   3.382  14.834  0.0672  0.4211  0.1271
16508TIP3    H170939   3.308   3.454  14.823 -2.6289 -1.6485  0.5716
16508TIP3    H270940   3.381   3.346  14.746 -1.0642 -0.4320  0.3015
16509TIP3   OH270941   4.032   0.311  15.086 -0.0685 -1.0296  0.2694
16509TIP3    H170942   4.050   0.369  15.160 -0.8313 -1.7288  1.0228
16509TIP3    H270943   3.938   0.297  15.088 -0.4702  0.7732 -2.2549
16510TIP3   OH270944   3.726   6.252  10.668 -0.2007 -0.3144 -0.5554
16510TIP3    H170945   3.808   6.242  10.620 -0.1188  0.0258 -0.4926
16510TIP3    H270946   3.736   6.335  10.715 -0.2539 -0.6894  0.1151
16511TIP3   OH270947   5.561   3.740  10.924 -0.3201  0.5380  0.0128
16511TIP3    H170948   5.613   3.765  11.000 -0.7554  0.0067  0.4839
16511TIP3    H270949   5.620   3.684  10.872  0.7486  2.6295 -1.1672
16512TIP3   OH270950   6.105   0.913  13.602 -0.5642 -0.2210 -0.4626
16512TIP3    H170951   6.055   0.964  13.665 -1.3905 -0.5381 -0.8517
16512TIP3    H270952   6.041   0.884  13.537  0.5395  1.6435 -2.5135
16513TIP3   OH270953   0.795   0.518   5.153 -0.3333 -0.3837  0.0396
16513TIP3    H170954   0.750   0.519   5.069  1.7500  1.3872 -1.1625
16513TIP3    H270955   0.866   0.455   5.142  0.1027  0.0383  0.3710
16514TIP3   OH270956   0.585   3.751   4.727  0.4143 -0.0627  0.0657
16514TIP3    H170957   0.655   3.783   4.785 -0.8875  2.7653  0.2443
16514TIP3    H270958   0.595   3.802   4.647 -1.9024  1.0965  0.4253
16515TIP3   OH270959   1.884   1.896   6.319 -0.5838  0.3886 -0.0938
16515TIP3    H170960   1.802   1.901   6.368 -1.3587  1.3378 -1.4137
16515TIP3    H270961   1.951   1.877   6.384 -1.8261 -0.2296  1.0422
16516TIP3   OH270962   4.355   1.286   3.355 -0.5043 -0.2356  0.3298
16516TIP3    H170963   4.349   1.246   3.442  0.1345 -0.9866  0.0388
16516TIP3    H270964   4.378   1.213   3.297  1.5147  0.6980 -0.1016
16517TIP3   OH270965   1.808   4.455   5.360 -0.1595  0.0445  0.4291
16517TIP3    H170966   1.827   4.540   5.322  2.4347 -0.6471 -0.0091
16517TIP3    H270967   1.834   4.463   5.452 -0.0031 -0.2211  0.4105
16518TIP3   OH270968   4.862   0.866   4.616 -0.2742  0.2309  0.5444
16518TIP3    H170969   4.803   0.939   4.598 -0.1277  0.2454  0.1265
16518TIP3    H270970   4.881   0.873   4.710  0.4872  1.2881  0.3256
16519TIP3   OH270971   5.172   5.012  13.375 -0.2912  0.2557 -0.4272
16519TIP3    H170972   5.124   4.992  13.456 -0.0280 -2.4763 -0.8595
16519TIP3    H270973   5.117   5.075  13.329 -0.5615  1.7275  1.7103
16520TIP3   OH270974   4.038   5.922   1.173 -0.1401  0.2889 -0.5179
16520TIP3    H170975   4.023   5.977   1.250 -0.5607 -0.1192 -0.3030
16520TIP3    H270976   4.131   5.898   1.178 -0.6837 -1.8100  1.2871
16521TIP3   OH270977   3.525   4.888   2.554 -0.6348 -0.4178 -0.4516
16521TIP3    H170978   3.511   4.809   2.606  0.0803  0.2778  0.8290
16521TIP3    H270979   3.508   4.960   2.615 -0.2853  0.4175 -1.3234
16522TIP3   OH270980   1.632   0.399   1.234  0.3935  0.0640 -0.1170
16522TIP3    H170981   1.680   0.325   1.198 -1.4880 -1.8482  1.0387
16522TIP3    H270982   1.540   0.376   1.221 -0.2575  2.6094 -0.4410
16523TIP3   OH270983   6.129   0.452   2.165 -0.3572  0.2111 -0.0126
16523TIP3    H170984   6.121   0.455   2.070 -0.2377 -0.3678 -0.0465
16523TIP3    H270985   6.079   0.374   2.191 -0.4684  0.4209  0.4037
16524TIP3   OH270986   3.393   2.953   0.660 -0.2411 -0.2177 -0.4081
16524TIP3    H170987   3.453   3.017   0.699  0.7086 -0.1165 -1.9472
16524TIP3    H270988   3.406   2.964   0.566 -2.0208 -0.8513 -0.7501
16525TIP3   OH270989   5.460   1.301   5.402 -0.1479 -0.5552  0.0566
16525TIP3    H170990   5.456   1.252   5.484 -2.8224 -3.0689 -1.4013
16525TIP3    H270991   5.495   1.238   5.338  1.8370  1.3240 -0.8328
16526TIP3   OH270992   2.939   1.598   2.281 -0.2982  0.4670  0.9052
16526TIP3    H170993   2.893   1.516   2.260 -0.0248  0.2456  1.1674
16526TIP3    H270994   3.016   1.570   2.331 -0.2681  0.8935  1.0973
16527TIP3   OH270995   0.342   3.312  15.899 -0.3211  0.0804  0.5603
16527TIP3    H170996   0.434   3.292  15.920 -0.2269  0.9189  0.9894
16527TIP3    H270997   0.292   3.247  15.949  0.0422 -0.7170 -0.0889
16528TIP3   OH270998   1.008   0.768  16.385 -0.5629  0.9942 -0.1627
16528TIP3    H170999   0.951   0.714  16.440 -0.5598  0.7405 -0.4073
16528TIP3    H271000   0.948   0.816  16.328 -0.6186  1.9327  0.6572
16529TIP3   OH271001   3.623   1.112  11.422 -0.3266 -0.9049 -0.2917
16529TIP3    H171002   3.618   1.017  11.435  0.9255 -0.7648  1.5767
16529TIP3    H271003   3.562   1.148  11.486 -0.8365 -0.4256 -1.0319
16530TIP3   OH271004   1.372   5.171  13.484  0.1288  0.6777 -0.4273
16530TIP3    H171005   1.351   5.260  13.512 -1.9237  0.1456 -0.1378
16530TIP3    H271006   1.463   5.157  13.513  0.1847  2.3591  0.2826
16531TIP3   OH271007   1.582   6.119   4.366  0.2369  1.0286  0.5906
16531TIP3    H171008   1.626   6.038   4.392  1.3331  1.3757 -0.0974
16531TIP3    H271009   1.549   6.156   4.448  0.3313  0.2359  0.9951
16532TIP3   OH271010   1.379   1.946   4.338  0.0030 -0.2211 -0.2051
16532TIP3    H171011   1.354   1.900   4.258  0.2225 -0.4517 -0.1456
16532TIP3    H271012   1.473   1.963   4.327  0.2789 -1.2306  0.4704
16533TIP3   OH271013   3.869   4.164  11.414  0.3918  0.0562  0.8454
16533TIP3    H171014   3.924   4.242  11.402  1.0962 -0.6217 -0.6599
16533TIP3    H271015   3.787   4.185  11.369  0.7834 -0.2496 -0.0329
16534TIP3   OH271016   1.690   2.759  14.038 -0.1492 -0.3246  0.1103
16534TIP3    H171017   1.596   2.760  14.022 -0.0532  1.9680 -0.7347
16534TIP3    H271018   1.708   2.843  14.081  1.5846 -0.4270 -0.3306
16535TIP3   OH271019   4.552   0.812  12.711 -0.1412 -0.5019 -0.6048
16535TIP3    H171020   4.638   0.771  12.714 -0.4697 -1.2052  1.9161
16535TIP3    H271021   4.570   0.906  12.708  0.6909 -0.6623 -0.9811
16536TIP3   OH271022   2.996   3.209   4.578  0.4786 -0.1623 -0.8793
16536TIP3    H171023   3.076   3.258   4.598 -0.5554  0.7696  1.2953
16536TIP3    H271024   2.964   3.247   4.497  0.8064  1.3537 -0.3307
16537TIP3   OH271025   6.506   3.166   6.013  0.6912 -0.0429  0.1430
16537TIP3    H171026   6.526   3.255   6.043  0.2524 -0.1645  0.8243
16537TIP3    H271027   6.585   3.139   5.966  2.4233 -0.6958  3.1431
16538TIP3   OH271028   6.471   2.400  15.752 -0.4557 -0.1548  0.2626
16538TIP3    H171029   6.403   2.346  15.712 -1.1630  0.1076  1.0744
16538TIP3    H271030   6.448   2.489  15.728 -1.6754  0.1456  2.2869
16539TIP3   OH271031   5.166   0.950  14.517  0.2075 -0.1695 -0.4100
16539TIP3    H171032   5.168   0.911  14.604  1.3358  1.3945  0.3244
16539TIP3    H271033   5.075   0.943  14.489 -0.3617  0.0955  1.2840
16540TIP3   OH271034   1.303   5.065   5.415  0.2324  0.6062  0.9411
16540TIP3    H171035   1.264   5.094   5.332  0.5457 -1.4131  0.0362
16540TIP3    H271036   1.235   5.083   5.480 -0.6553  0.7889 -0.0011
16541TIP3   OH271037   4.649   2.498  11.305 -0.3162 -0.1939  0.3941
16541TIP3    H171038   4.704   2.458  11.238  0.4233  0.9015  0.3348
16541TIP3    H271039   4.561   2.499  11.267 -0.1521 -0.7978 -0.0151
16542TIP3   OH271040   2.901   5.926   5.018 -0.7045 -0.0668 -0.0993
16542TIP3    H171041   2.812   5.907   5.047 -0.6194 -0.0713  0.1701
16542TIP3    H271042   2.910   5.881   4.934 -1.3399  0.9328 -0.7184
16543TIP3   OH271043   0.669   0.534   4.902  0.3424 -0.2123 -0.4719
16543TIP3    H171044   0.625   0.596   4.844  0.4342  0.0229 -0.2908
16543TIP3    H271045   0.625   0.450   4.885  0.7872 -0.2895 -1.3476
16544TIP3   OH271046   1.645   6.623  17.037  0.1000 -0.2593  0.1814
16544TIP3    H171047   1.575   6.631  17.102 -0.2949  0.6794 -0.3549
16544TIP3    H271048   1.725   6.627  17.089 -0.1947  1.2343  0.5562
16545TIP3   OH271049   1.381   6.534  16.571 -0.0963 -0.5686  0.1251
16545TIP3    H171050   1.318   6.462  16.566 -0.0953 -0.5029 -1.2183
16545TIP3    H271051   1.388   6.566  16.481 -0.1407  1.1707  0.7107
16546TIP3   OH271052   0.198   2.558   5.820  0.0681 -0.1038 -0.2735
16546TIP3    H171053   0.170   2.639   5.862 -1.6417 -1.5864  1.7102
16546TIP3    H271054   0.184   2.491   5.888  2.2073 -1.9401 -1.5341
16547TIP3   OH271055   2.798   0.125  16.835 -0.1005 -0.2616 -0.0596
16547TIP3    H171056   2.704   0.109  16.839 -0.1895  0.1877 -0.2362
16547TIP3    H271057   2.827   0.125  16.926 -0.4014  0.3169  0.0427
16548TIP3   OH271058   4.764   0.588   0.662  0.2994  0.0157  0.3084
16548TIP3    H171059   4.816   0.602   0.742  1.2268  0.0152 -0.2758
16548TIP3    H271060   4.827   0.554   0.598 -0.5100 -0.3544 -0.3153
16549TIP3   OH271061   4.631   4.249  14.537  0.1753  0.0157 -0.3317
16549TIP3    H171062   4.699   4.222  14.599 -0.0047  0.0649 -0.1069
16549TIP3    H271063   4.661   4.334  14.505 -1.5788  1.9729  2.6913
16550TIP3   OH271064   4.512   3.748  11.628 -0.1912  0.5097  0.5650
16550TIP3    H171065   4.582   3.742  11.693 -0.2482  1.8634  0.7854
16550TIP3    H271066   4.541   3.815  11.566 -0.5256 -0.1497 -0.3202
16551TIP3   OH271067   4.017   1.452  15.202  0.4527 -0.0087 -0.4252
16551TIP3    H171068   4.032   1.505  15.124  2.6274  1.7707  1.0966
16551TIP3    H271069   3.935   1.485  15.239  0.2109  0.1736 -1.1044
16552TIP3   OH271070   2.421   6.571  16.783 -0.1310  0.4138 -0.4221
16552TIP3    H171071   2.438   6.535  16.696 -0.4191  0.4691 -0.5029
16552TIP3    H271072   2.448   6.502  16.844 -1.3415 -0.2209 -0.5887
16553TIP3   OH271073   4.002   0.231  13.799 -0.6410  0.2769  0.0666
16553TIP3    H171074   3.923   0.271  13.835 -0.4096 -0.7109  1.7449
16553TIP3    H271075   4.055   0.208  13.875  0.8305  0.0085 -0.9860
16554TIP3   OH271076   0.389   5.710   3.460 -0.0365 -0.0100  0.2396
16554TIP3    H171077   0.377   5.665   3.544 -1.6000 -0.5085 -0.2188
16554TIP3    H271078   0.437   5.647   3.406 -0.6299 -0.4185  0.1823
16555TIP3   OH271079   1.685   2.790   5.747  0.1690 -0.5683  0.3309
16555TIP3    H171080   1.628   2.759   5.817  1.5608 -1.6597  1.0381
16555TIP3    H271081   1.671   2.884   5.745  0.5059 -0.4075  2.5090
16556TIP3   OH271082   2.598   2.499  14.289  0.1713  0.1624 -0.3180
16556TIP3    H171083   2.531   2.432  14.303  1.4221 -1.7496 -2.7592
16556TIP3    H271084   2.676   2.463  14.331  0.2684  1.3543  0.5794
16557TIP3   OH271085   1.226   5.070  12.591  0.1680  0.1589 -0.0538
16557TIP3    H171086   1.209   4.976  12.597  1.2600 -0.0220  0.4623
16557TIP3    H271087   1.280   5.089  12.668  1.8468  0.7696 -1.3198
16558TIP3   OH271088   5.033   5.323   1.612  0.0038 -0.3363  0.2745
16558TIP3    H171089   5.017   5.242   1.660  1.8314 -0.2229  1.1729
16558TIP3    H271090   5.125   5.343   1.630 -0.3432  1.8071 -0.1087
16559TIP3   OH271091   3.162   2.796   1.122  0.5591 -0.7743 -0.3576
16559TIP3    H171092   3.181   2.842   1.041  1.5873 -0.5143  0.0123
16559TIP3    H271093   3.165   2.704   1.099  1.0122 -0.7054 -0.5830
16560TIP3   OH271094   3.553   5.123   2.718 -0.0113 -0.2821  0.2643
16560TIP3    H171095   3.583   5.090   2.803 -2.0920 -0.8656  0.8279
16560TIP3    H271096   3.561   5.218   2.724  0.7875 -0.3742  0.7299
16561TIP3   OH271097   4.621   3.601  10.810 -0.1442  0.1441  0.4578
16561TIP3    H171098   4.579   3.538  10.752 -0.2929 -0.2563  0.9888
16561TIP3    H271099   4.648   3.548  10.886 -0.4877  0.7607  1.0170
16562TIP3   OH271100   0.953   0.519  10.617 -0.1040 -0.2793  0.2694
16562TIP3    H171101   0.908   0.553  10.540  1.2480 -1.7989 -1.2949
16562TIP3    H271102   0.887   0.520  10.686 -1.5094  0.6869 -1.0262
16563TIP3   OH271103   6.438   1.524  15.466  0.4927 -0.6139  0.5571
16563TIP3    H171104   6.522   1.542  15.423 -0.0319  1.6992  0.3578
16563TIP3    H271105   6.383   1.487  15.397 -0.1096  2.3799 -0.7506
16564TIP3   OH271106   0.483   0.935  14.915  0.2476  0.2878 -0.2291
16564TIP3    H171107   0.464   0.895  15.000  0.6569  0.8102  0.1109
16564TIP3    H271108   0.464   1.028  14.927  2.3196  0.7321 -0.0698
16565TIP3   OH271109   1.022   1.180  15.036  0.0006 -0.2382  0.3897
16565TIP3    H171110   0.935   1.144  15.018 -0.3112 -0.1959  1.6574
16565TIP3    H271111   1.036   1.161  15.129  0.7346  1.0084  0.5603
16566TIP3   OH271112   2.646   2.520  11.415 -0.3028 -0.2692  0.5972
16566TIP3    H171113   2.594   2.496  11.338  2.1702  0.3188 -1.3958
16566TIP3    H271114   2.648   2.441  11.468 -0.3598 -1.3773 -0.9876
16567TIP3   OH271115   4.695   3.885  16.885 -0.8670 -0.9966  0.0905
16567TIP3    H171116   4.646   3.829  16.824  0.1155 -1.2663 -0.4625
16567TIP3    H271117   4.715   3.963  16.835  1.0860 -1.7614 -0.3905
16568TIP3   OH271118   4.774   4.238   2.599  0.0792  0.3403 -0.3363
16568TIP3    H171119   4.730   4.234   2.683 -0.8415 -0.5457 -0.8397
16568TIP3    H271120   4.730   4.173   2.545  0.8916  0.6289 -1.3973
16569TIP3   OH271121   0.336   1.187   2.046 -0.4343  0.6148 -0.2094
16569TIP3    H171122   0.289   1.120   1.996  1.2872  1.0553 -2.6363
16569TIP3    H271123   0.422   1.147   2.065 -0.7056  0.8314  1.6292
16570TIP3   OH271124   5.712   4.176  14.291 -0.0393 -0.4203  0.2214
16570TIP3    H171125   5.664   4.211  14.366  0.6712 -0.9867  0.9766
16570TIP3    H271126   5.796   4.223  14.293 -1.2136  2.0549 -2.2971
16571TIP3   OH271127   1.189   1.364  13.130 -0.1589  0.4178  0.0379
16571TIP3    H171128   1.134   1.286  13.134  0.6887 -0.1866  0.2446
16571TIP3    H271129   1.215   1.380  13.221 -0.4960  1.0767  0.0274
16572TIP3   OH271130   1.185   6.738  16.697  0.2702 -0.3195  0.2242
16572TIP3    H171131   1.220   6.662  16.651  1.0358 -1.4631  2.5381
16572TIP3    H271132   1.226   6.813  16.655  0.1313 -1.1895 -1.5754
16573TIP3   OH271133   4.679   6.208   3.809 -0.3004  0.0040 -0.0910
16573TIP3    H171134   4.585   6.205   3.828 -0.6333  0.3284 -1.5998
16573TIP3    H271135   4.712   6.280   3.863 -0.6887 -0.8109  1.2922
16574TIP3   OH271136   2.847   2.460   1.037  0.0291  0.5364  0.3521
16574TIP3    H171137   2.766   2.449   1.087 -0.4192  1.5930 -0.1128
16574TIP3    H271138   2.818   2.494   0.952  0.7783 -1.0215 -0.5903
16575TIP3   OH271139   1.288   1.116  15.837 -0.0035 -0.5356  0.4297
16575TIP3    H171140   1.301   1.139  15.929 -0.1998  2.6452 -0.2162
16575TIP3    H271141   1.204   1.157  15.814 -0.9823 -2.9837 -0.7196
16576TIP3   OH271142   1.975   5.250   5.331  0.6280  0.3746  0.0566
16576TIP3    H171143   2.054   5.284   5.374  0.6999  0.5076 -0.1774
16576TIP3    H271144   1.902   5.288   5.380  0.6908  1.8691 -0.9546
16577TIP3   OH271145   2.593   3.214   6.560 -0.1564  0.1281 -0.4085
16577TIP3    H171146   2.553   3.144   6.612 -1.4375  1.5599  0.6397
16577TIP3    H271147   2.555   3.204   6.473 -0.8420 -0.0758 -0.0892
16578TIP3   OH271148   2.102   2.800   3.248 -0.2617 -0.8775 -0.2303
16578TIP3    H171149   2.055   2.730   3.293  0.7824 -2.4501 -1.5113
16578TIP3    H271150   2.130   2.762   3.165  1.5266  0.6276 -0.3860
16579TIP3   OH271151   4.077   2.820   2.385  0.4751  0.6348 -0.9500
16579TIP3    H171152   4.173   2.821   2.385  0.4797  1.3666 -1.0166
16579TIP3    H271153   4.053   2.870   2.463  0.1311 -1.1818  0.1407
16580TIP3   OH271154   1.939   0.802   4.486  0.0233  0.0530 -0.1967
16580TIP3    H171155   1.923   0.839   4.399 -0.6563  0.6321  0.1650
16580TIP3    H271156   2.032   0.778   4.485 -0.1702 -0.6982 -1.3584
16581TIP3   OH271157   4.574   0.727   5.946  0.2432  0.3364  0.2697
16581TIP3    H171158   4.482   0.753   5.953  0.2253  0.3294  0.0684
16581TIP3    H271159   4.619   0.805   5.915  0.3876  0.4869  0.8603
16582TIP3   OH271160   2.322   4.367  13.523 -0.2216  0.0868  0.1274
16582TIP3    H171161   2.365   4.437  13.573  0.4847 -0.4004  0.2113
16582TIP3    H271162   2.231   4.370  13.552  0.0881  0.0967  1.1347
16583TIP3   OH271163   0.138   1.962  11.981 -0.4489  0.8007 -0.9540
16583TIP3    H171164   0.138   1.883  11.926 -1.5691  0.7059 -0.8494
16583TIP3    H271165   0.223   2.003  11.964  0.3218 -0.6100 -0.7453
16584TIP3   OH271166   2.100   1.438  11.886  0.3709 -0.6254 -0.3065
16584TIP3    H171167   2.115   1.372  11.818 -3.1392 -0.0461 -1.8420
16584TIP3    H271168   2.122   1.521  11.843 -0.6679 -0.3603 -0.3461
16585TIP3   OH271169   3.427   4.259   0.019  0.3730 -0.0106  0.0584
16585TIP3    H171170   3.517   4.244   0.049  0.2875 -1.3647 -0.2734
16585TIP3    H271171   3.425   4.221  -0.069 -0.3430  0.6358 -0.2128
16586TIP3   OH271172   6.769   1.350  14.535 -0.3890 -0.3156 -0.0827
16586TIP3    H171173   6.706   1.382  14.600 -1.1090 -2.3815  0.3113
16586TIP3    H271174   6.855   1.374  14.571 -0.8724  0.8716  0.3120
16587TIP3   OH271175   3.525   4.961  14.943  0.3061 -0.0461 -0.0065
16587TIP3    H171176   3.607   5.003  14.917 -0.2544  0.3432 -1.2526
16587TIP3    H271177   3.458   5.008  14.894 -0.5966 -0.7831  0.4973
16588TIP3   OH271178   4.186   2.560  16.413 -0.0674 -0.4063 -0.7141
16588TIP3    H171179   4.191   2.467  16.391  1.9002 -0.5098 -0.0661
16588TIP3    H271180   4.241   2.569  16.491 -3.2593  0.6814  1.6516
16589TIP3   OH271181   2.371   2.484   5.069  0.1550 -0.0330 -0.2652
16589TIP3    H171182   2.395   2.488   4.976  2.7714  0.7554  0.3902
16589TIP3    H271183   2.320   2.563   5.084  0.1098  0.0688 -0.9159
16590TIP3   OH271184   4.075   5.311   2.420  0.2992  0.6088  0.1195
16590TIP3    H171185   4.021   5.340   2.346 -0.4025  0.1586  0.4472
16590TIP3    H271186   4.013   5.298   2.491  0.8779  0.3126  0.5763
16591TIP3   OH271187   3.205   6.160  15.996  0.0057  0.7313  0.0441
16591TIP3    H171188   3.168   6.120  16.075 -1.2847  1.6115 -0.0986
16591TIP3    H271189   3.296   6.130  15.995 -0.8032 -1.9975  0.0720
16592TIP3   OH271190   5.046   1.944   1.368 -0.1889 -0.3916 -0.4415
16592TIP3    H171191   5.142   1.947   1.371 -0.1412  0.2874 -2.0246
16592TIP3    H271192   5.026   1.878   1.302 -0.8855 -2.0002  1.2701
16593TIP3   OH271193   1.180   5.987   0.865  0.0155  0.3066  0.7387
16593TIP3    H171194   1.232   5.939   0.930 -0.8566  1.4365  2.3291
16593TIP3    H271195   1.174   5.927   0.791  2.3047 -0.4458  1.0786
16594TIP3   OH271196   5.079   5.657  16.454  0.2230 -0.4872 -0.0344
16594TIP3    H171197   5.025   5.606  16.393  0.1758  0.6944 -1.0113
16594TIP3    H271198   5.063   5.616  16.540 -0.7049 -1.3754 -0.6027
16595TIP3   OH271199   5.347   6.523   3.044  0.1122 -0.3639 -0.2869
16595TIP3    H171200   5.437   6.498   3.064  0.6564  1.2544 -0.5524
16595TIP3    H271201   5.320   6.465   2.973  1.4794  0.0920 -1.2159
16596TIP3   OH271202   5.742   1.697   2.069  0.1433 -0.1176  0.1746
16596TIP3    H171203   5.777   1.748   2.142  1.4023  0.6851 -0.9534
16596TIP3    H271204   5.817   1.650   2.034 -0.7873 -1.9173  0.4833
16597TIP3   OH271205   6.176   1.100  17.162 -0.9698 -0.3927  0.1367
16597TIP3    H171206   6.247   1.038  17.178 -1.2651 -0.4554  1.2657
16597TIP3    H271207   6.177   1.158  17.238 -1.9408 -0.2178  0.0296
16598TIP3   OH271208   6.429   6.480   3.505  0.2179 -0.4066 -0.3427
16598TIP3    H171209   6.490   6.538   3.550 -1.2619  1.3993 -0.5538
16598TIP3    H271210   6.467   6.468   3.418 -0.3642  1.8616 -0.9661
16599TIP3   OH271211   3.092   1.395  11.673  0.0296  0.4328 -0.2749
16599TIP3    H171212   3.151   1.422  11.603  2.3779  1.4039  1.8930
16599TIP3    H271213   3.104   1.300  11.678 -1.1420  0.1674 -1.9528
16600TIP3   OH271214   2.023   5.413   4.409 -0.0911  0.7027 -0.3971
16600TIP3    H171215   1.972   5.450   4.338  0.6119 -1.2835 -2.0355
16600TIP3    H271216   1.981   5.329   4.428  1.8460 -0.4893 -1.0743
16601TIP3   OH271217   5.495   1.191   4.005 -0.2909 -0.0852 -0.3013
16601TIP3    H171218   5.483   1.260   3.939 -2.0699 -0.0303  0.0199
16601TIP3    H271219   5.503   1.238   4.088 -1.8551 -0.2101 -0.0349
16602TIP3   OH271220   4.928   5.062   2.930 -0.0676  0.1322  0.2660
16602TIP3    H171221   4.948   4.969   2.920  1.7038  0.3447  1.3831
16602TIP3    H271222   4.840   5.064   2.969 -0.0163 -1.0810  0.4789
16603TIP3   OH271223   3.894   0.728   2.004 -0.3042  0.2165 -0.0208
16603TIP3    H171224   3.949   0.705   1.929 -0.8124  1.2484 -0.7268
16603TIP3    H271225   3.812   0.758   1.965  0.1169  2.6507  0.8481
16604TIP3   OH271226   2.699   4.864  11.468 -0.1053  0.5144  0.1755
16604TIP3    H171227   2.669   4.930  11.531  1.5763  0.1655  1.4042
16604TIP3    H271228   2.794   4.862  11.478  0.0251 -1.0049 -0.9463
16605TIP3   OH271229   2.316   5.363  12.502 -0.0715  0.1230 -0.2666
16605TIP3    H171230   2.377   5.289  12.502  0.1177  0.2749  0.1413
16605TIP3    H271231   2.303   5.383  12.595  0.8348  1.3866 -0.3788
16606TIP3   OH271232   2.188   6.241   5.653 -0.3316 -0.2950 -0.5174
16606TIP3    H171233   2.253   6.310   5.644 -0.4675 -0.1199 -0.1811
16606TIP3    H271234   2.161   6.221   5.564 -0.3085  0.1045 -0.6116
16607TIP3   OH271235   6.126   0.360   4.365 -0.1938  0.6415  0.0215
16607TIP3    H171236   6.085   0.367   4.279  0.1336  1.9971 -0.0495
16607TIP3    H271237   6.208   0.409   4.356 -0.0460  0.5928  1.0345
16608TIP3   OH271238   1.876   3.121   1.147 -0.0734 -0.1498 -0.3119
16608TIP3    H171239   1.869   3.210   1.181  0.3420 -0.9453  2.0075
16608TIP3    H271240   1.962   3.090   1.175 -0.8242 -1.8105  0.3177
16609TIP3   OH271241   5.168   0.684  11.085 -0.0044  0.1376  0.3816
16609TIP3    H171242   5.102   0.618  11.104  0.2749 -0.4767 -0.7277
16609TIP3    H271243   5.222   0.645  11.016  0.6992  1.1725  0.3272
16610TIP3   OH271244   0.195   4.623  14.142  0.4306  0.8632 -0.3694
16610TIP3    H171245   0.206   4.533  14.173  2.6757  0.7484 -1.3417
16610TIP3    H271246   0.253   4.675  14.197  0.0181  1.5598 -0.5732
16611TIP3   OH271247   1.545   1.282  16.767  0.1876 -0.1067 -0.2711
16611TIP3    H171248   1.479   1.219  16.798 -0.0937 -0.2515 -1.1390
16611TIP3    H271249   1.627   1.234  16.773 -0.3078 -1.6230 -3.5138
16612TIP3   OH271250   6.542   4.942   1.152  0.1866 -0.5371  0.3741
16612TIP3    H171251   6.626   4.918   1.112 -0.4487 -0.6035 -0.9474
16612TIP3    H271252   6.505   4.858   1.180  0.1285 -0.6125  0.0774
16613TIP3   OH271253   6.120   1.070   0.204 -0.3382 -0.1286  0.0971
16613TIP3    H171254   6.127   1.165   0.194  1.0089 -0.1083  0.8752
16613TIP3    H271255   6.030   1.055   0.233 -0.4777  0.9497  0.2548
16614TIP3   OH271256   2.495   3.413   1.854  0.8708 -0.3488 -0.0453
16614TIP3    H171257   2.556   3.413   1.780  1.0159  2.1281 -0.0203
16614TIP3    H271258   2.438   3.487   1.837 -0.8407 -1.3712  1.0082
16615TIP3   OH271259   5.711   5.737   1.908 -0.0125  0.2587  0.0282
16615TIP3    H171260   5.765   5.799   1.957 -0.4048 -0.0624  0.8650
16615TIP3    H271261   5.682   5.673   1.972  1.2084 -1.4001 -0.9750
16616TIP3   OH271262   4.931   4.376   0.697 -0.2458  0.7325 -0.0684
16616TIP3    H171263   4.967   4.378   0.786 -0.1136 -0.1831 -0.0959
16616TIP3    H271264   5.005   4.394   0.640 -0.1334  0.3706 -0.0399
16617TIP3   OH271265   1.916   1.973   0.179  0.0753 -0.3314  0.0921
16617TIP3    H171266   1.897   1.886   0.142 -1.3365  0.4276 -1.0283
16617TIP3    H271267   2.011   1.973   0.190  0.0608 -2.1982  0.5915
16618TIP3   OH271268   0.928   0.896   5.865 -0.0965  0.3971 -0.4022
16618TIP3    H171269   0.914   0.951   5.942 -1.4173 -0.7166  0.1816
16618TIP3    H271270   0.932   0.958   5.792  0.9672  1.4479  0.5099
16619TIP3   OH271271   1.729   0.065  10.588 -0.1710  0.3765 -0.8789
16619TIP3    H171272   1.659   0.001  10.574 -1.1049  1.5710 -1.8969
16619TIP3    H271273   1.683   0.144  10.617  0.9819  0.5446  0.5502
16620TIP3   OH271274   1.567   1.240   6.483  0.2525 -0.5081  0.1799
16620TIP3    H171275   1.577   1.212   6.574  0.6941 -0.9605 -0.0051
16620TIP3    H271276   1.657   1.243   6.449  0.1072 -0.1302 -0.1793
16621TIP3   OH271277   4.173   1.248  15.102 -0.0585  0.7429 -0.3759
16621TIP3    H171278   4.145   1.331  15.139 -0.2741  0.3585  0.3375
16621TIP3    H271279   4.251   1.269  15.050  0.3758  1.2541  0.4688
16622TIP3   OH271280   4.844   0.785  13.571  0.1900  0.0009  0.2182
16622TIP3    H171281   4.753   0.806  13.591 -0.8965 -1.4028 -2.6502
16622TIP3    H271282   4.850   0.690  13.581  1.0203 -0.0612 -0.6668
16623TIP3   OH271283   4.826   0.402   5.396  0.1125 -0.9702  0.4827
16623TIP3    H171284   4.785   0.345   5.330 -0.0219 -2.7449  2.0131
16623TIP3    H271285   4.754   0.424   5.455  0.4055 -0.1135  0.5224
16624TIP3   OH271286   0.615   3.743   3.084  0.2239  0.3361 -0.0623
16624TIP3    H171287   0.689   3.756   3.024  0.1358 -1.6232 -0.6625
16624TIP3    H271288   0.572   3.828   3.087  1.6868  1.1500 -0.8060
16625TIP3   OH271289   6.632   5.850   1.490 -0.1645  0.6086  0.0416
16625TIP3    H171290   6.657   5.831   1.400 -0.5849 -0.1710  0.0813
16625TIP3    H271291   6.583   5.933   1.484  0.7915  1.1608 -0.2760
16626TIP3   OH271292   3.008   2.358  16.366  0.2597 -0.0497  0.2104
16626TIP3    H171293   3.054   2.349  16.450  3.3543  0.6823 -1.2447
16626TIP3    H271294   3.067   2.411  16.313 -1.9394  0.1288 -2.2284
16627TIP3   OH271295   0.247   2.402   3.251  0.2931 -0.0109 -0.3367
16627TIP3    H171296   0.183   2.467   3.282  0.2789  0.2564 -0.9097
16627TIP3    H271297   0.332   2.441   3.272  0.3703  1.3055 -2.7081
16628TIP3   OH271298   2.240   5.987   0.292  0.2736  0.4959  0.0655
16628TIP3    H171299   2.196   5.955   0.371  1.2848 -1.8512 -0.2279
16628TIP3    H271300   2.171   5.991   0.226 -0.0982 -0.0425  0.4101
16629TIP3   OH271301   3.743   4.008   3.709  0.0636 -0.1263 -0.2248
16629TIP3    H171302   3.732   4.093   3.666 -1.3076  0.6793  1.5678
16629TIP3    H271303   3.681   4.010   3.782  2.1536 -1.4459  1.7160
16630TIP3   OH271304   0.862   5.057  11.738  0.0423  0.2161 -0.3649
16630TIP3    H171305   0.807   5.122  11.695 -2.0117  0.9116  2.9685
16630TIP3    H271306   0.801   4.992  11.773  1.5960 -0.5839  0.9945
16631TIP3   OH271307   2.918   1.276   1.546  0.4015 -0.4014  0.4239
16631TIP3    H171308   2.941   1.184   1.533 -0.5840 -1.0356  2.7037
16631TIP3    H271309   2.823   1.277   1.543  0.4137  1.0537 -2.1517
16632TIP3   OH271310   0.878   2.466  14.890 -0.0235  0.1028  0.4964
16632TIP3    H171311   0.933   2.489  14.966 -1.0292  1.8096  0.7567
16632TIP3    H271312   0.904   2.527  14.822  2.7492 -3.0345 -1.6049
16633TIP3   OH271313   2.200   2.627   2.560  0.0831 -0.1061 -0.1046
16633TIP3    H171314   2.278   2.663   2.602  0.1432 -0.5932  0.2128
16633TIP3    H271315   2.144   2.703   2.545  0.2315  0.1281  0.4935
16634TIP3   OH271316   2.293   2.569  13.976 -0.1930  0.0215  0.1802
16634TIP3    H171317   2.361   2.502  13.983 -1.8063 -1.6838  0.4881
16634TIP3    H271318   2.248   2.566  14.061 -0.4502  1.3665  0.1144
16635TIP3   OH271319   1.453   0.677   4.805 -0.2909 -0.2069  0.3786
16635TIP3    H171320   1.509   0.601   4.790 -1.0874 -0.7881  0.2939
16635TIP3    H271321   1.386   0.672   4.737 -0.3004  0.6244  0.3139
16636TIP3   OH271322   6.622   3.306   2.953 -0.7763  0.3349  0.4240
16636TIP3    H171323   6.618   3.218   2.991 -1.7122 -0.3215 -1.1075
16636TIP3    H271324   6.559   3.357   3.004 -0.6039 -0.0143  0.9920
16637TIP3   OH271325   1.968   3.782  14.132 -0.3544  0.2255 -0.2314
16637TIP3    H171326   2.044   3.828  14.168  0.5278 -0.8633 -0.6521
16637TIP3    H271327   2.001   3.741  14.052 -1.3257 -0.4722 -0.2883
16638TIP3   OH271328   4.509   5.695  12.333  0.4102  0.5539  0.4163
16638TIP3    H171329   4.590   5.661  12.371 -0.4615  0.9682  2.8579
16638TIP3    H271330   4.529   5.787  12.313  0.2783  0.9963  2.1163
16639TIP3   OH271331   2.466   2.675   2.638  0.2801  0.4652  0.2860
16639TIP3    H171332   2.447   2.613   2.709 -0.7179 -0.0426 -0.4043
16639TIP3    H271333   2.550   2.714   2.663  0.8360 -1.0197  0.8484
16640TIP3   OH271334   1.130   2.059   3.339  0.1117  0.2651 -0.5241
16640TIP3    H171335   1.085   2.006   3.405 -0.0323  0.3677 -0.5379
16640TIP3    H271336   1.190   2.114   3.389 -0.6579  1.0068 -0.3826
16641TIP3   OH271337   2.050   0.574  16.715 -0.5902 -0.2245  0.2591
16641TIP3    H171338   2.073   0.640  16.649 -1.6097  0.4454  0.5552
16641TIP3    H271339   2.115   0.505  16.703  1.8098  1.7006  1.2731
16642TIP3   OH271340   6.241   4.859  12.656  0.2575 -0.8132 -0.4721
16642TIP3    H171341   6.323   4.819  12.629  0.0808 -0.7387 -1.1364
16642TIP3    H271342   6.224   4.824  12.743  1.7135  0.2484  0.2792
16643TIP3   OH271343   5.235   5.329   3.384 -0.6300 -0.1498 -0.2443
16643TIP3    H171344   5.177   5.338   3.459  0.3304  0.0632  0.5003
16643TIP3    H271345   5.190   5.269   3.325 -1.1788 -0.7296  0.7418
16644TIP3   OH271346   0.070   5.053  12.909  0.6047 -0.4059  0.2199
16644TIP3    H171347  -0.001   5.041  12.971  0.2918 -1.3409 -0.2961
16644TIP3    H271348   0.058   5.142  12.874 -0.8029 -0.8468 -0.4674
16645TIP3   OH271349   2.266   2.850   1.716 -0.6311  0.3853 -0.1818
16645TIP3    H171350   2.360   2.836   1.727 -0.6449  1.0593  0.9793
16645TIP3    H271351   2.238   2.888   1.800 -2.2208 -1.2755  0.0958
16646TIP3   OH271352   5.827   1.008  14.158  0.1013  0.2374  0.1581
16646TIP3    H171353   5.787   1.038  14.239 -2.4711  1.3664 -1.3804
16646TIP3    H271354   5.801   0.917  14.150  1.5966 -0.3252  1.2302
16647TIP3   OH271355   3.483   6.471  14.053 -0.0327 -0.6136 -0.5391
16647TIP3    H171356   3.429   6.406  14.098  0.1941  0.2571  1.0887
16647TIP3    H271357   3.543   6.420  13.999 -0.1543 -1.7439  0.3576
16648TIP3   OH271358   2.182   3.799   5.862  0.1435 -0.2403 -0.2545
16648TIP3    H171359   2.245   3.858   5.820  0.6187  0.5867  1.4973
16648TIP3    H271360   2.236   3.730   5.899  0.0381  0.3593  1.0715
16649TIP3   OH271361   3.749   0.771  12.916 -0.1488  0.6300 -0.3951
16649TIP3    H171362   3.751   0.778  13.011  0.4035  0.8895 -0.4270
16649TIP3    H271363   3.779   0.856  12.885  1.7598 -0.1573 -0.7930
16650TIP3   OH271364   2.316   3.915   2.305 -0.2644  0.4614 -0.2054
16650TIP3    H171365   2.407   3.926   2.280 -0.0110  0.9511  0.8986
16650TIP3    H271366   2.274   3.877   2.227  0.8005  0.5352 -0.8266
16651TIP3   OH271367   4.749   1.205  15.166  0.0233 -0.4689 -0.0967
16651TIP3    H171368   4.753   1.118  15.206  0.3553 -0.6240 -0.4603
16651TIP3    H271369   4.680   1.199  15.101  1.3038 -1.0427 -1.4614
16652TIP3   OH271370   2.867   3.264   2.933  0.0698 -0.1762  0.4539
16652TIP3    H171371   2.848   3.286   3.024 -0.3088  0.5125  0.2126
16652TIP3    H271372   2.923   3.335   2.902 -2.2831  1.2600 -0.7430
16653TIP3   OH271373   2.624   4.129   6.549 -0.2613  0.2485  0.2908
16653TIP3    H171374   2.688   4.062   6.573  0.3530  0.4446 -0.7180
16653TIP3    H271375   2.539   4.090   6.572  0.0577 -0.9947 -0.4994
16654TIP3   OH271376   5.082   1.501  14.570  0.7838 -0.7944 -0.0171
16654TIP3    H171377   5.031   1.467  14.644  0.5981 -0.0508  0.2044
16654TIP3    H271378   5.141   1.565  14.609  0.3364 -0.0293 -0.5683
16655TIP3   OH271379   2.171   4.538   0.794  0.2627  0.3821  0.2790
16655TIP3    H171380   2.244   4.581   0.749 -0.6104  4.1550  2.0893
16655TIP3    H271381   2.099   4.544   0.732  0.4558  0.4335  0.0561
16656TIP3   OH271382   0.299   0.471  12.288 -0.4667  0.5139  0.7980
16656TIP3    H171383   0.277   0.378  12.284  1.5134  0.0198  0.6613
16656TIP3    H271384   0.390   0.474  12.317 -0.2263  2.3671  0.0224
16657TIP3   OH271385   6.550   1.257  14.326 -0.4047  0.2951  0.0479
16657TIP3    H171386   6.625   1.257  14.385  0.2945  0.3884 -0.8252
16657TIP3    H271387   6.583   1.296  14.245 -1.2405 -0.1905 -0.5380
16658TIP3   OH271388   0.008   6.327   5.585  0.2566 -0.1533  0.0787
16658TIP3    H171389   0.102   6.322   5.606  1.1107  2.0390 -2.5924
16658TIP3    H271390  -0.006   6.255   5.523 -0.5957 -2.1615  2.4093
16659TIP3   OH271391   6.394   6.581   2.561  0.1698  0.5039  0.2362
16659TIP3    H171392   6.302   6.607   2.568 -0.4280 -1.5686  0.7928
16659TIP3    H271393   6.427   6.585   2.651 -0.3419 -1.8268  0.5945
16660TIP3   OH271394   0.987   1.366   1.599  0.6600  0.0657  0.0830
16660TIP3    H171395   1.038   1.301   1.550  1.4212  1.3613 -0.9252
16660TIP3    H271396   0.932   1.408   1.533 -0.5995 -0.2554  0.9065
16661TIP3   OH271397   0.577   3.180   1.551  0.2722 -0.2005 -0.5088
16661TIP3    H171398   0.664   3.171   1.513  0.1465  2.6748 -1.7750
16661TIP3    H271399   0.593   3.204   1.643  0.7695 -0.5410 -0.5023
16662TIP3   OH271400   2.212   4.061   2.568  0.0429  0.1659  0.3390
16662TIP3    H171401   2.252   4.013   2.641  2.5458  0.4651 -0.7271
16662TIP3    H271402   2.242   4.015   2.490 -2.5000 -0.0950 -0.5961
16663TIP3   OH271403   0.437   1.957  11.381 -0.2828  0.9189  0.4896
16663TIP3    H171404   0.401   2.035  11.337 -0.7433 -0.5726 -1.9811
16663TIP3    H271405   0.531   1.961  11.364 -0.3641  0.7287 -0.0222
16664TIP3   OH271406   0.621   0.203   0.441  0.4942  0.0439  0.2986
16664TIP3    H171407   0.574   0.285   0.457 -0.2420 -0.0194 -1.3609
16664TIP3    H271408   0.556   0.134   0.456  0.4374 -0.1102 -0.6049
16665TIP3   OH271409   0.376   4.821   2.671 -0.1837 -0.0817  0.4417
16665TIP3    H171410   0.316   4.747   2.687  0.0578 -0.5277 -0.6297
16665TIP3    H271411   0.457   4.796   2.715  0.4914 -1.3202 -1.3556
16666TIP3   OH271412   1.504   6.716   4.549  0.1632 -0.2047  0.4749
16666TIP3    H171413   1.469   6.781   4.609  0.6056 -0.3609  0.9091
16666TIP3    H271414   1.599   6.721   4.560  0.2316 -0.4950  0.0602
16667TIP3   OH271415   3.824   2.073  15.578  0.0438 -0.1544  0.1071
16667TIP3    H171416   3.821   2.149  15.520  1.1246  0.1032  0.3662
16667TIP3    H271417   3.901   2.024  15.548  0.0656 -0.5071  0.7301
16668TIP3   OH271418   3.505   2.241  16.714 -0.2024 -0.1569  0.1477
16668TIP3    H171419   3.491   2.281  16.628  0.4094  0.1446  0.1786
16668TIP3    H271420   3.518   2.148  16.695  0.6325  0.0114 -0.1739
16669TIP3   OH271421   1.882   5.165   3.639  0.0619  0.2105 -0.8598
16669TIP3    H171422   1.946   5.234   3.655  2.0576 -1.5083 -0.9786
16669TIP3    H271423   1.890   5.145   3.546  0.3693 -0.9370 -0.6055
16670TIP3   OH271424   1.703   3.411   1.894 -0.8235  0.3526 -0.5124
16670TIP3    H171425   1.650   3.339   1.927 -2.1915  0.6743 -1.8486
16670TIP3    H271426   1.773   3.369   1.844 -0.0408 -0.0726  0.9117
16671TIP3   OH271427   2.325   4.384  12.851 -0.5541 -0.5345  0.1734
16671TIP3    H171428   2.358   4.320  12.914 -1.4833 -0.6899  0.5125
16671TIP3    H271429   2.239   4.352  12.826 -2.4648  2.0790  2.7155
16672TIP3   OH271430   0.044   4.083  15.557 -0.1346 -0.3785  0.2397
16672TIP3    H171431   0.020   3.996  15.590 -0.0334 -0.9055 -0.9932
16672TIP3    H271432   0.100   4.120  15.625 -0.7609 -0.9778  1.1110
16673TIP3   OH271433   6.142   3.310  11.419  0.1356 -0.4647  0.3176
16673TIP3    H171434   6.176   3.396  11.393  1.1487 -0.7576  0.6119
16673TIP3    H271435   6.119   3.267  11.337  1.0719 -0.4903  0.0635
16674TIP3   OH271436   4.703   1.060  11.781 -0.0853 -0.1513 -0.2301
16674TIP3    H171437   4.666   1.122  11.844 -0.9928 -0.9748  0.0808
16674TIP3    H271438   4.654   0.979  11.796 -0.2919 -0.3890 -1.9554
16675TIP3   OH271439   5.002   1.157  14.705 -0.1779 -0.3006  0.3102
16675TIP3    H171440   4.988   1.142  14.611 -0.6176 -0.5882  0.4178
16675TIP3    H271441   4.976   1.248  14.719  1.6131  0.3217 -0.1770
16676TIP3   OH271442   2.986   1.123  12.787  0.2819  0.3719 -0.1104
16676TIP3    H171443   3.037   1.071  12.849 -0.1426 -1.2275 -1.0454
16676TIP3    H271444   2.916   1.065  12.759 -0.6225  1.6981 -0.7175
16677TIP3   OH271445   4.390   4.499   6.638  0.1903 -0.1244  0.3470
16677TIP3    H171446   4.374   4.480   6.546  0.6306 -2.1572  0.6452
16677TIP3    H271447   4.480   4.470   6.654 -0.8237 -2.7241  2.0588
16678TIP3   OH271448   0.123   0.048   2.246 -0.0093  0.1576  0.1062
16678TIP3    H171449   0.150   0.130   2.204  1.2590 -0.3168 -0.0325
16678TIP3    H271450   0.035   0.033   2.212  0.4619  0.4902 -1.3449
16679TIP3   OH271451   3.912   6.289   0.398  0.4279 -0.1922 -0.4983
16679TIP3    H171452   3.884   6.357   0.337  1.9892  0.0504 -0.9840
16679TIP3    H271453   3.995   6.321   0.434  0.2317 -0.9686  0.7329
16680TIP3   OH271454   1.173   4.171   5.264 -0.3716 -0.6862  0.2416
16680TIP3    H171455   1.080   4.191   5.273 -0.4642 -1.6046  1.7505
16680TIP3    H271456   1.175   4.088   5.215 -0.2312  0.1610 -1.2651
16681TIP3   OH271457   5.589   4.231  12.531  0.2766 -0.5091  0.4682
16681TIP3    H171458   5.682   4.212  12.518  0.2518 -0.7455  0.6343
16681TIP3    H271459   5.575   4.221  12.625  0.5688  1.6962  0.8000
16682TIP3   OH271460   1.095   2.265  12.673 -0.2506 -0.0128  0.3355
16682TIP3    H171461   1.149   2.329  12.626  0.9077 -0.7721  0.6008
16682TIP3    H271462   1.016   2.314  12.697  0.4334  1.2100  0.1874
16683TIP3   OH271463   5.423   3.253   6.122  0.2049  0.1614  0.1829
16683TIP3    H171464   5.423   3.202   6.202 -2.0634 -0.3192 -0.0522
16683TIP3    H271465   5.413   3.344   6.151 -0.5050 -0.0015  0.4744
16684TIP3   OH271466   3.090   4.995  11.818 -0.1250 -0.6902 -0.2321
16684TIP3    H171467   3.085   4.951  11.733  2.2890 -0.9607 -0.3021
16684TIP3    H271468   3.117   4.926  11.878  0.8368  0.0723  0.2240
16685TIP3   OH271469   5.077   5.748  15.358 -0.8329 -0.2863 -0.3464
16685TIP3    H171470   5.118   5.760  15.444 -1.3616  0.7303 -0.2175
16685TIP3    H271471   5.142   5.779  15.296 -0.6446 -0.5429 -0.2769
16686TIP3   OH271472   5.604   5.668   5.297  0.0663 -0.3228 -0.4552
16686TIP3    H171473   5.627   5.716   5.377 -2.3620 -0.7014  0.5374
16686TIP3    H271474   5.675   5.689   5.237  1.0980  1.3778  1.2148
16687TIP3   OH271475   0.837   1.923  13.518 -0.6407 -0.0174 -0.7711
16687TIP3    H171476   0.828   1.845  13.464 -0.9266 -0.5288 -0.0054
16687TIP3    H271477   0.904   1.975  13.474  1.7501 -2.0366  0.2152
16688TIP3   OH271478   0.586   0.770  12.950 -0.7428 -0.0683 -0.3724
16688TIP3    H171479   0.503   0.752  12.996 -0.2040 -0.2079  0.5696
16688TIP3    H271480   0.608   0.860  12.975  0.2485 -0.5974  0.7934
16689TIP3   OH271481   6.322   5.263   5.288 -0.2739  0.0281 -0.2639
16689TIP3    H171482   6.417   5.259   5.279 -0.0508  0.7371  1.2927
16689TIP3    H271483   6.307   5.343   5.340 -1.5077 -1.3876  1.6773
16690TIP3   OH271484   4.968   4.660  13.313  0.4716  0.5225  0.6569
16690TIP3    H171485   4.946   4.751  13.297  0.9045  0.6642  0.8681
16690TIP3    H271486   4.995   4.626  13.228 -0.2319  0.4323  0.4596
16691TIP3   OH271487   2.427   3.265   1.170  0.4044 -0.5055  0.7513
16691TIP3    H171488   2.343   3.309   1.162  1.5458  1.5690 -0.8633
16691TIP3    H271489   2.448   3.238   1.080  2.0406  0.1968  0.8894
16692TIP3   OH271490   4.427   0.697  13.478  1.0030 -0.1827 -0.1374
16692TIP3    H171491   4.453   0.789  13.477  0.5315  0.0085  1.5759
16692TIP3    H271492   4.374   0.685  13.399  1.5343  0.8611 -0.6615
16693TIP3   OH271493   4.199   1.949  12.031 -0.0737  1.0002 -0.1517
16693TIP3    H171494   4.222   1.875  11.975 -1.6894 -1.0675  1.6906
16693TIP3    H271495   4.282   1.997  12.044  0.8453  0.0256 -2.0873
16694TIP3   OH271496   4.195   6.497  17.040  0.2938 -0.2812  0.2137
16694TIP3    H171497   4.194   6.552  16.962  1.1151  1.0989  1.1284
16694TIP3    H271498   4.259   6.428  17.021 -0.6007 -0.8398 -0.8705
16695TIP3   OH271499   2.853   2.051  16.136  0.4491  0.3932  0.2323
16695TIP3    H171500   2.846   2.146  16.128  0.2030  0.5052  1.5637
16695TIP3    H271501   2.922   2.037  16.200 -0.1058 -0.2941  0.7020
16696TIP3   OH271502   3.440   6.400  12.321 -0.3727 -0.1856  0.5296
16696TIP3    H171503   3.366   6.340  12.333 -1.5631  1.1448  0.0536
16696TIP3    H271504   3.439   6.419  12.227 -0.6051  1.3029  0.8189
16697TIP3   OH271505   4.793   3.362  16.200  0.1795 -0.3646 -0.2757
16697TIP3    H171506   4.882   3.356  16.165  0.5195 -1.3320  0.7049
16697TIP3    H271507   4.768   3.453  16.187  0.9683 -0.2890 -1.3860
16698TIP3   OH271508   5.432   6.041  12.536  0.1950  0.1974  0.3740
16698TIP3    H171509   5.354   6.095  12.523 -0.3785 -0.6308  0.2227
16698TIP3    H271510   5.398   5.960  12.575  0.9391 -0.3019  0.0040
16699TIP3   OH271511   0.850   3.523   2.900  0.2450  0.1256 -0.6372
16699TIP3    H171512   0.862   3.528   2.805  0.8288 -0.2077 -0.5860
16699TIP3    H271513   0.938   3.527   2.936 -0.0230  1.2114 -0.0514
16700TIP3   OH271514   1.643   6.640   4.275  0.4603  0.6939 -0.0414
16700TIP3    H171515   1.597   6.723   4.284 -0.8391  0.2432 -1.9616
16700TIP3    H271516   1.664   6.614   4.365  0.8058  2.9987  0.6220
16701TIP3   OH271517   1.773   3.868  13.514 -0.2222 -0.5363  0.3162
16701TIP3    H171518   1.682   3.882  13.538 -0.7125 -2.5472 -0.1373
16701TIP3    H271519   1.802   3.952  13.479 -1.8603  0.1865  0.5983
16702TIP3   OH271520   6.183   6.250  10.795 -0.3904  0.4882 -0.2022
16702TIP3    H171521   6.208   6.340  10.774  0.5383  0.3322  0.1564
16702TIP3    H271522   6.124   6.258  10.869 -3.1104  0.9997 -2.2481
16703TIP3   OH271523   2.602   6.052   1.503 -0.3549 -0.1972 -0.2425
16703TIP3    H171524   2.554   6.030   1.583 -1.7326 -0.3935 -1.0868
16703TIP3    H271525   2.688   6.011   1.515 -0.6490 -0.5072  0.9826
16704TIP3   OH271526   5.141   2.782   4.678 -0.1353 -0.2365 -0.4416
16704TIP3    H171527   5.143   2.704   4.622 -1.0294  0.0626 -0.9060
16704TIP3    H271528   5.067   2.767   4.737 -1.0707  0.7773 -1.3191
16705TIP3   OH271529   3.578   4.348  10.533 -0.2537 -0.5415 -0.2014
16705TIP3    H171530   3.667   4.369  10.505 -0.6074 -0.8867 -1.6933
16705TIP3    H271531   3.529   4.336  10.451 -1.3458 -1.7038  0.5702
16706TIP3   OH271532   2.243   5.481  16.170  0.3043  0.2267  0.1716
16706TIP3    H171533   2.208   5.509  16.086 -2.0160 -1.5377  0.4598
16706TIP3    H271534   2.168   5.483  16.230  1.3277 -0.8995  1.5719
16707TIP3   OH271535   0.638   3.428  16.144  0.5677 -0.1830 -0.3355
16707TIP3    H171536   0.616   3.356  16.085 -1.9478  0.4303 -0.2752
16707TIP3    H271537   0.565   3.488  16.136  1.5914  1.3646  1.2043
16708TIP3   OH271538   5.759   2.108  13.399  0.1884 -0.3118 -0.0024
16708TIP3    H171539   5.772   2.034  13.458 -0.0589  1.2330  2.1338
16708TIP3    H271540   5.687   2.081  13.342 -0.3098 -1.4946  1.1282
16709TIP3   OH271541   4.664   0.468  15.068 -0.3948  0.1747 -0.0301
16709TIP3    H171542   4.753   0.483  15.100 -0.4834  0.8863 -0.1036
16709TIP3    H271543   4.640   0.382  15.104  0.1537  0.1783  0.3614
16710TIP3   OH271544   3.228   5.378  12.857 -0.5737 -0.2643 -0.2765
16710TIP3    H171545   3.170   5.443  12.898 -1.3884 -0.4956 -1.0153
16710TIP3    H271546   3.310   5.385  12.905 -1.1821  0.1498  0.7456
16711TIP3   OH271547   2.302   3.039   5.295 -0.3936  0.7694  0.1176
16711TIP3    H171548   2.367   3.015   5.229 -0.9981 -0.1241 -0.1865
16711TIP3    H271549   2.258   3.116   5.258 -2.3796 -1.1103 -1.7743
16712TIP3   OH271550   2.834   3.923   3.859  0.6689  0.0644 -0.2800
16712TIP3    H171551   2.771   3.856   3.834 -0.2770  1.2018 -1.0202
16712TIP3    H271552   2.815   3.941   3.951  0.3490 -0.0782 -0.3181
16713TIP3   OH271553   3.625   1.965   3.144 -0.5256  0.1035  0.2747
16713TIP3    H171554   3.590   1.933   3.061 -1.4841 -0.6634  0.9524
16713TIP3    H271555   3.720   1.959   3.133 -0.6101 -2.7723  0.2237
16714TIP3   OH271556   5.334   0.125   5.634 -0.4036 -0.2803  0.0705
16714TIP3    H171557   5.300   0.035   5.635 -1.8982  0.2425  1.2956
16714TIP3    H271558   5.295   0.166   5.711  0.7329  1.2620 -0.1219
16715TIP3   OH271559   5.619   0.730  15.501  0.2009  0.1682  0.2822
16715TIP3    H171560   5.573   0.773  15.573  2.2753 -0.7877  2.3030
16715TIP3    H271561   5.595   0.638  15.508  0.5108  0.0467 -0.1896
16716TIP3   OH271562   3.641   1.551   3.076 -0.1229 -0.6230 -0.4355
16716TIP3    H171563   3.719   1.605   3.091 -1.4578  1.1264  0.5103
16716TIP3    H271564   3.640   1.488   3.148 -1.1837  1.3616  1.3826
16717TIP3   OH271565   1.868   4.359   4.552 -0.5416 -0.3503  0.6018
16717TIP3    H171566   1.830   4.359   4.640  0.7252 -0.1782  1.1677
16717TIP3    H271567   1.905   4.446   4.541  1.8271 -1.2138  1.0666
16718TIP3   OH271568   4.211   2.926   0.526  0.3998 -0.2992 -0.1676
16718TIP3    H171569   4.193   2.909   0.619  0.8911  2.2409  0.4619
16718TIP3    H271570   4.304   2.907   0.516  0.2061 -1.2174 -0.3348
16719TIP3   OH271571   4.634   0.973   4.081  0.1285 -0.0305  0.0371
16719TIP3    H171572   4.681   0.983   3.998 -0.1738 -1.7570 -0.3924
16719TIP3    H271573   4.695   1.002   4.148  0.1513  2.0215 -0.8072
16720TIP3   OH271574   5.849   0.522  14.012  0.7069  0.6179  0.0076
16720TIP3    H171575   5.828   0.500  13.921  2.4959  1.5409 -0.6753
16720TIP3    H271576   5.941   0.499  14.022  1.0262  2.2118  1.0354
16721TIP3   OH271577   1.574   1.896   3.339 -0.2707  0.3695 -0.0462
16721TIP3    H171578   1.556   1.949   3.416  1.8145  1.1563 -0.0438
16721TIP3    H271579   1.490   1.892   3.293 -1.2675  0.8581  1.6400
16722TIP3   OH271580   1.243   5.647  15.318  0.1508 -0.5847 -0.1729
16722TIP3    H171581   1.223   5.700  15.395 -1.2739  1.5367 -1.8836
16722TIP3    H271582   1.315   5.693  15.275  0.6906 -1.5409 -0.3310
16723TIP3   OH271583   3.580   4.705  17.143  0.2278 -0.4862 -0.5278
16723TIP3    H171584   3.613   4.667  17.225 -1.6868 -0.0400  0.5150
16723TIP3    H271585   3.492   4.735  17.165  0.7516  2.3860 -1.9593
16724TIP3   OH271586   4.336   3.760   4.023 -0.0734 -0.0082  0.2366
16724TIP3    H171587   4.334   3.785   4.115  1.5432 -1.1367  0.6302
16724TIP3    H271588   4.247   3.732   4.003 -0.4829  0.4173  1.4036
16725TIP3   OH271589   4.261   6.274  13.156 -0.8992 -0.3962 -0.1107
16725TIP3    H171590   4.272   6.213  13.229 -3.1861 -2.0286 -1.0259
16725TIP3    H271591   4.337   6.258  13.100 -0.5971 -1.1817  0.5009
16726TIP3   OH271592   6.466   2.592  16.202 -0.2387  0.4757  0.6322
16726TIP3    H171593   6.459   2.563  16.111  0.4395  1.4716  0.2419
16726TIP3    H271594   6.557   2.573  16.226 -0.3158  0.5475  0.9870
16727TIP3   OH271595   3.784   0.106  16.415 -0.4208 -0.4123 -0.6380
16727TIP3    H171596   3.697   0.091  16.451 -1.2454  0.7048 -2.0676
16727TIP3    H271597   3.816   0.183  16.462  0.6688 -1.9415  1.2852
16728TIP3   OH271598   6.265   4.111  12.348  0.0485 -0.1081 -0.2704
16728TIP3    H171599   6.197   4.168  12.312 -0.1960  0.6649  1.3407
16728TIP3    H271600   6.347   4.145  12.310 -0.0492  1.6024  0.9505
16729TIP3   OH271601   6.723   4.166   6.589 -0.7360 -0.2736  0.0178
16729TIP3    H171602   6.646   4.206   6.548  0.9704 -0.3030 -3.6178
16729TIP3    H271603   6.792   4.232   6.578  0.3464 -1.2199  0.9679
16730TIP3   OH271604   2.588   2.562  17.160  0.5843 -0.3784 -0.0465
16730TIP3    H171605   2.674   2.595  17.135  0.2140  0.2446 -0.5360
16730TIP3    H271606   2.526   2.611  17.106 -0.1530  0.0136  1.1011
16731TIP3   OH271607   6.554   2.274  15.973 -0.2888 -0.6843  0.0433
16731TIP3    H171608   6.475   2.271  16.027 -0.7254 -0.1933 -0.5511
16731TIP3    H271609   6.524   2.308  15.889 -0.0389 -3.4021 -1.2441
16732TIP3   OH271610   5.655   5.148  12.975 -0.1714  1.0330  0.1077
16732TIP3    H171611   5.584   5.186  13.027 -0.4061  0.1834  0.4372
16732TIP3    H271612   5.631   5.166  12.885 -0.5668  1.1771  0.2359
16733TIP3   OH271613   4.669   4.900  15.358  0.7353 -0.4191  0.0977
16733TIP3    H171614   4.689   4.981  15.311  0.0560  0.3057  1.0104
16733TIP3    H271615   4.755   4.863  15.379  1.0793  0.5612  0.4926
16734TIP3   OH271616   5.341   4.346  13.511 -0.3491 -0.5582 -0.6737
16734TIP3    H171617   5.335   4.251  13.505  0.2243 -0.8302  1.8609
16734TIP3    H271618   5.417   4.369  13.458  1.0688 -1.8491  0.7047
16735TIP3   OH271619   0.185   1.672  12.659  0.1360 -0.2069  0.2028
16735TIP3    H171620   0.175   1.686  12.565  2.3874  1.5852  0.1375
16735TIP3    H271621   0.155   1.754  12.699  0.5006 -0.4150  0.9259
16736TIP3   OH271622   5.107   3.648  12.441  0.2173 -0.2210 -0.5915
16736TIP3    H171623   5.177   3.702  12.478 -0.3670 -0.2790  0.6307
16736TIP3    H271624   5.072   3.701  12.368  1.1777  0.0251 -0.8882
16737TIP3   OH271625   5.145   2.557  15.728  0.5351  0.0492  0.2569
16737TIP3    H171626   5.195   2.638  15.716 -2.9493  2.4370  0.1860
16737TIP3    H271627   5.098   2.570  15.810 -0.3490 -1.7659  0.0834
16738TIP3   OH271628   3.050   3.804  11.545 -0.3158  0.3681  0.2958
16738TIP3    H171629   3.027   3.805  11.638  1.3822  0.6945  0.7485
16738TIP3    H271630   3.082   3.715  11.530  1.0199  0.7880  0.4848
16739TIP3   OH271631   5.154   0.979  14.199 -0.4369 -0.0030 -0.7321
16739TIP3    H171632   5.091   0.918  14.237  1.3622 -0.6162  1.4718
16739TIP3    H271633   5.187   1.028  14.274  1.6752  0.3224 -1.8220
16740TIP3   OH271634   2.888   3.080  12.018  0.2973 -1.1093  0.4595
16740TIP3    H171635   2.793   3.074  12.031 -0.0372  1.0910 -0.5226
16740TIP3    H271636   2.903   3.044  11.931 -0.1857  1.6135 -0.8444
16741TIP3   OH271637   0.913   1.734   3.211 -0.1070  0.9136  0.0006
16741TIP3    H171638   0.858   1.656   3.203  0.8315  0.0323  1.6923
16741TIP3    H271639   0.962   1.738   3.129 -1.0431  0.4293 -0.5946
16742TIP3   OH271640   2.156   5.517  11.252 -0.0932 -0.0054 -0.3683
16742TIP3    H171641   2.233   5.526  11.196 -0.2348 -1.4743 -0.8286
16742TIP3    H271642   2.183   5.555  11.335  1.8367 -2.2128  0.1122
16743TIP3   OH271643   4.585   5.349  15.462 -0.2093  0.6520 -0.0382
16743TIP3    H171644   4.614   5.336  15.372 -0.4071  1.1326 -0.1749
16743TIP3    H271645   4.493   5.374  15.454  0.1377  2.1289  0.1884
16744TIP3   OH271646   0.174   3.593   3.626 -0.4456  0.3105  0.6676
16744TIP3    H171647   0.222   3.651   3.567 -0.4424 -1.2270 -0.9740
16744TIP3    H271648   0.242   3.544   3.672 -0.4317  0.5037  0.8473
16745TIP3   OH271649   2.394   5.297  11.003  0.1954 -0.6294  0.6649
16745TIP3    H171650   2.410   5.392  11.004  0.5405 -0.6824  0.3089
16745TIP3    H271651   2.458   5.262  10.942 -0.5772 -0.9776  0.0296
16746TIP3   OH271652   0.360   3.099  12.048 -0.2216  0.5702  0.5023
16746TIP3    H171653   0.443   3.146  12.045  0.4812 -0.6082  0.9784
16746TIP3    H271654   0.294   3.166  12.027  0.9323  1.2524 -1.1987
16747TIP3   OH271655   1.871   5.179   1.750 -0.2425  0.8304 -0.0430
16747TIP3    H171656   1.830   5.257   1.788  0.9753  0.6665  1.7838
16747TIP3    H271657   1.964   5.202   1.744  0.2212 -0.6212  1.0356
16748TIP3   OH271658   0.744   5.371   4.574  0.4756  0.6706 -0.2482
16748TIP3    H171659   0.706   5.285   4.554 -0.1704  0.6499  0.9793
16748TIP3    H271660   0.685   5.434   4.532  0.8206  0.5457 -0.9481
16749TIP3   OH271661   5.639   5.215   0.568  0.0025  0.4820 -0.3329
16749TIP3    H171662   5.642   5.126   0.533  1.4249  0.3348  0.1088
16749TIP3    H271663   5.681   5.209   0.653  0.4828  1.6498 -0.4674
16750TIP3   OH271664   2.243   0.823   1.360  0.0063 -0.2975  0.0932
16750TIP3    H171665   2.317   0.765   1.378  1.4281  0.6568 -2.2326
16750TIP3    H271666   2.272   0.909   1.389  0.4544  0.3510 -2.1256
16751TIP3   OH271667   3.368   3.353  15.462 -0.0506 -0.0815 -0.2018
16751TIP3    H171668   3.446   3.316  15.502  0.9812  1.7468 -0.3757
16751TIP3    H271669   3.299   3.341  15.526  0.9828  0.5177  1.0691
16752TIP3   OH271670   0.342   5.262   1.556  0.0464 -0.0008  0.9697
16752TIP3    H171671   0.426   5.217   1.542 -0.0356  0.2029 -0.2847
16752TIP3    H271672   0.364   5.355   1.551 -0.2078  0.0597  0.9787
16753TIP3   OH271673   4.613   0.486  16.639 -0.4693  0.0132 -0.4455
16753TIP3    H171674   4.519   0.495  16.622 -0.8207 -3.4365 -1.1017
16753TIP3    H271675   4.618   0.434  16.720  0.8756 -0.0706 -0.5576
16754TIP3   OH271676   0.229   3.172  10.564 -0.1105  0.4758 -0.3004
16754TIP3    H171677   0.218   3.255  10.610  1.6685  0.4208  0.2824
16754TIP3    H271678   0.320   3.171  10.537 -0.1336 -1.2302 -0.4138
16755TIP3   OH271679   4.788   1.762   5.419  0.9843  0.2139 -0.1235
16755TIP3    H171680   4.828   1.815   5.350  2.0570 -1.0326 -0.4931
16755TIP3    H271681   4.801   1.671   5.391 -0.4703 -0.2814  0.6816
16756TIP3   OH271682   2.533   4.154  10.888  0.5321 -0.3607  0.7240
16756TIP3    H171683   2.614   4.131  10.933  1.5800  2.4662  0.4946
16756TIP3    H271684   2.481   4.201  10.953  0.0932 -0.1679  0.2457
16757TIP3   OH271685   1.222   2.714   3.966  0.4697  0.1124 -0.0970
16757TIP3    H171686   1.288   2.655   3.929  0.6423 -0.1256  0.5693
16757TIP3    H271687   1.209   2.781   3.899 -1.6248 -2.0516 -2.0507
16758TIP3   OH271688   5.723   4.011  16.832  0.3531  0.0366  0.5683
16758TIP3    H171689   5.686   3.924  16.820  0.7755 -0.1826  0.8010
16758TIP3    H271690   5.745   4.041  16.743  0.3501 -0.1607  0.5015
16759TIP3   OH271691   1.053   0.395   0.765  0.0878  0.2277  0.5811
16759TIP3    H171692   1.062   0.445   0.684  1.4336 -1.3155 -0.2757
16759TIP3    H271693   1.017   0.457   0.828 -0.9547  1.4880 -1.1717
16760TIP3   OH271694   2.500   5.360   1.597  0.2731 -0.5788 -0.4862
16760TIP3    H171695   2.418   5.320   1.568  0.0097  0.6424 -1.5211
16760TIP3    H271696   2.548   5.288   1.637 -0.7791 -1.6067 -0.9854
16761TIP3   OH271697   1.723   4.882  12.916 -0.3485 -0.0415  0.3216
16761TIP3    H171698   1.730   4.791  12.886 -0.9841  0.2581 -0.7999
16761TIP3    H271699   1.631   4.891  12.942 -0.8675  0.8301 -1.5853
16762TIP3   OH271700   5.706   4.185   4.334  0.2657 -0.0501  0.5622
16762TIP3    H171701   5.682   4.277   4.337  0.2125 -0.0835  1.2935
16762TIP3    H271702   5.762   4.177   4.257 -2.0469  0.0136 -1.2029
16763TIP3   OH271703   5.007   5.687   1.109 -0.6057  0.4693  0.1956
16763TIP3    H171704   4.918   5.651   1.109 -0.6323  0.4495  1.7672
16763TIP3    H271705   5.044   5.658   1.192  1.0177  0.1751 -0.6066
16764TIP3   OH271706   0.457   1.349   4.062 -0.7069  0.3578  0.3373
16764TIP3    H171707   0.371   1.323   4.095 -0.7644 -1.7670 -1.2817
16764TIP3    H271708   0.439   1.380   3.973  0.3599 -2.0557 -0.8044
16765TIP3   OH271709   4.886   0.963   0.795  0.3033  0.7807 -0.3813
16765TIP3    H171710   4.918   1.004   0.876  0.0396 -1.4436  0.9479
16765TIP3    H271711   4.883   1.034   0.731  1.6003  2.3995  1.2512
16766TIP3   OH271712   6.580   1.821   6.399  0.0054  0.0050 -0.6173
16766TIP3    H171713   6.535   1.893   6.354  0.6767  2.6507  2.5059
16766TIP3    H271714   6.513   1.785   6.458  0.2239 -0.5702 -0.7176
16767TIP3   OH271715   4.234   3.455  16.944 -0.1522  0.2398 -0.1756
16767TIP3    H171716   4.323   3.452  16.980  0.5597  1.6002 -1.6388
16767TIP3    H271717   4.232   3.385  16.879 -0.7204 -0.8370  0.9722
16768TIP3   OH271718   6.001   1.084   3.199  0.4495  0.2392 -0.1010
16768TIP3    H171719   6.065   1.146   3.166  0.2020  0.4464 -0.1977
16768TIP3    H271720   5.928   1.090   3.137  0.6759 -0.5997 -0.4668
16769TIP3   OH271721   2.309   0.824  16.693 -0.4330 -0.0864 -0.2344
16769TIP3    H171722   2.308   0.847  16.786 -2.2234  0.9037 -0.4631
16769TIP3    H271723   2.340   0.734  16.691 -0.6560 -0.2201  1.3411
16770TIP3   OH271724   4.448   1.484   0.337 -0.3019 -0.1104 -0.1456
16770TIP3    H171725   4.461   1.392   0.316 -1.6040 -0.0993 -1.1827
16770TIP3    H271726   4.509   1.502   0.409  0.0485 -1.7385 -0.0022
16771TIP3   OH271727   2.232   1.998   5.674  0.4542 -0.6594  0.0855
16771TIP3    H171728   2.279   2.014   5.755 -1.0256 -0.9033  1.0314
16771TIP3    H271729   2.203   1.907   5.681 -1.2209 -0.1444  0.1280
16772TIP3   OH271730   1.185   5.736  16.608  0.1918  0.0666  0.1001
16772TIP3    H171731   1.114   5.693  16.656  1.0565 -0.7565  0.6831
16772TIP3    H271732   1.246   5.764  16.676  0.6840  0.2810 -0.4210
16773TIP3   OH271733   5.981   4.595  12.968 -0.2189  0.3317 -0.4389
16773TIP3    H171734   6.064   4.625  12.932  0.2612  1.8503  1.7422
16773TIP3    H271735   6.003   4.515  13.016 -0.7557 -1.3573 -2.8239
16774TIP3   OH271736   4.318   6.462   2.393  0.2213 -0.4384  0.4801
16774TIP3    H171737   4.242   6.477   2.449  0.2683  0.6042  0.2807
16774TIP3    H271738   4.341   6.549   2.360  0.5212 -0.9620 -0.7378
16775TIP3   OH271739   2.097   0.265  13.178  0.0480 -0.5060  0.7759
16775TIP3    H171740   2.008   0.237  13.156  0.0630 -0.9470  1.2360
16775TIP3    H271741   2.099   0.262  13.274 -0.2082  1.9148  0.9226
16776TIP3   OH271742   2.669   0.284  12.981  0.3969  0.1286  0.9422
16776TIP3    H171743   2.711   0.200  13.000 -0.0587 -0.1140  0.8721
16776TIP3    H271744   2.583   0.278  13.023  1.1155  1.3420  2.7436
16777TIP3   OH271745   3.120   4.637   1.477 -0.0267  0.3286  0.2372
16777TIP3    H171746   3.054   4.694   1.438  0.8019  1.1171 -0.0573
16777TIP3    H271747   3.073   4.557   1.501 -0.7782  0.2258 -1.4278
16778TIP3   OH271748   0.946   4.236  11.243  0.5950 -0.0268  0.2008
16778TIP3    H171749   1.009   4.166  11.257  1.9832  1.5932  2.6931
16778TIP3    H271750   0.866   4.205  11.286 -0.6768 -2.2874 -3.3653
16779TIP3   OH271751   1.502   0.086  16.953 -0.2158 -0.3528  0.1707
16779TIP3    H171752   1.532  -0.004  16.965 -1.1690 -0.3632  3.3405
16779TIP3    H271753   1.580   0.139  16.968  0.3272 -0.5942 -1.6057
16780TIP3   OH271754   6.266   5.799  13.972 -0.3946  0.9198 -0.8969
16780TIP3    H171755   6.337   5.830  14.029 -1.8232  1.7213  0.5472
16780TIP3    H271756   6.278   5.847  13.890  0.1388  1.8363 -0.3029
16781TIP3   OH271757   1.849   5.162   6.444  0.1784  0.4954 -0.1871
16781TIP3    H171758   1.891   5.246   6.462  2.1945 -0.7560  1.3742
16781TIP3    H271759   1.828   5.126   6.530 -1.5611 -0.2136 -0.8544
16782TIP3   OH271760   2.188   6.239   2.756  0.3020  0.2106  0.3176
16782TIP3    H171761   2.221   6.165   2.807  1.1643  1.8758  2.3261
16782TIP3    H271762   2.103   6.258   2.795  0.5637  0.9482  0.5283
16783TIP3   OH271763   2.428   2.036  14.229  0.2141 -0.4587  0.8134
16783TIP3    H171764   2.370   1.980  14.178  0.4373 -0.7962  0.9287
16783TIP3    H271765   2.513   2.032  14.184  0.9416 -2.2455  2.2119
16784TIP3   OH271766   2.479   4.194   2.977 -1.2177  0.0246 -0.0490
16784TIP3    H171767   2.454   4.113   3.021 -0.4379 -0.9910 -1.3728
16784TIP3    H271768   2.543   4.166   2.912 -1.3465  1.6414 -0.9167
16785TIP3   OH271769   1.407   4.206  14.459 -0.0146 -0.5472  0.5832
16785TIP3    H171770   1.468   4.245  14.398 -1.1934  0.1459 -0.1852
16785TIP3    H271771   1.359   4.141  14.408 -0.8733 -0.1043  0.8020
16786TIP3   OH271772   5.052   2.758  13.850  0.3474 -0.2254 -0.1745
16786TIP3    H171773   5.088   2.812  13.779  2.1255  0.3418  1.0971
16786TIP3    H271774   4.969   2.726  13.815  0.5042  1.1620 -1.9851
16787TIP3   OH271775   4.397   6.330   0.797  0.2361  0.8770  0.4091
16787TIP3    H171776   4.452   6.370   0.730 -1.7879 -0.6486 -2.3719
16787TIP3    H271777   4.308   6.359   0.775 -0.6770 -0.9097  1.4967
16788TIP3   OH271778   6.461   1.324  14.946  0.2820 -0.3978  0.1606
16788TIP3    H171779   6.504   1.395  14.993 -1.0406 -0.6014  1.7991
16788TIP3    H271780   6.514   1.247  14.966 -0.0950 -0.4260  1.1401
16789TIP3   OH271781   4.825   2.234   1.386 -0.0730  0.1186  0.2425
16789TIP3    H171782   4.846   2.171   1.455  1.6326  0.4368  0.0502
16789TIP3    H271783   4.878   2.207   1.311  0.4125  1.5333  0.0441
16790TIP3   OH271784   6.449   0.765  16.236  0.2131  0.1499  0.0086
16790TIP3    H171785   6.518   0.814  16.281  0.6414 -0.0117 -0.4625
16790TIP3    H271786   6.433   0.689  16.292  0.5174  0.1139  0.0448
16791TIP3   OH271787   0.013   4.255  14.919 -0.3662  0.0159  0.0903
16791TIP3    H171788  -0.031   4.170  14.913  0.0338 -0.1067 -1.5917
16791TIP3    H271789  -0.059   4.319  14.921 -0.7054 -0.2095 -2.1379
16792TIP3   OH271790   1.611   5.125   6.296 -0.7547 -0.2464  0.0936
16792TIP3    H171791   1.653   5.204   6.264 -0.4465 -0.2091  0.5879
16792TIP3    H271792   1.656   5.104   6.378 -0.9792 -0.8071  0.0827
16793TIP3   OH271793   4.336   5.299   6.028 -0.0491 -0.0100 -0.6858
16793TIP3    H171794   4.381   5.376   6.063 -0.3290 -0.0317 -0.2675
16793TIP3    H271795   4.338   5.311   5.933  0.1592  0.3720 -0.6342
16794TIP3   OH271796   2.671   0.504   3.972  0.1014 -0.0090  0.3729
16794TIP3    H171797   2.730   0.431   3.987  0.7599 -0.0154 -1.8458
16794TIP3    H271798   2.615   0.476   3.899 -0.2049  1.3532  0.0401
16795TIP3   OH271799   2.111   2.251   2.778  0.2589 -0.1344 -0.0187
16795TIP3    H171800   2.028   2.273   2.735  0.9412 -1.2953 -2.0205
16795TIP3    H271801   2.176   2.256   2.708  1.9258  0.8009  1.5222
16796TIP3   OH271802   5.831   3.874  14.715 -0.1653 -0.2983  0.3483
16796TIP3    H171803   5.920   3.897  14.741  0.6035 -0.5057 -1.9675
16796TIP3    H271804   5.839   3.791  14.670 -1.2241  0.5987 -1.6050
16797TIP3   OH271805   4.140   1.618   1.850 -0.7347 -0.3602  0.2895
16797TIP3    H171806   4.066   1.641   1.907 -0.5990 -1.7497  1.0698
16797TIP3    H271807   4.117   1.656   1.765 -1.9030  0.0214  0.7518
16798TIP3   OH271808   5.426   2.913  11.569  0.1029  0.3789 -0.2715
16798TIP3    H171809   5.511   2.919  11.611  0.5611 -2.8641 -0.5207
16798TIP3    H271810   5.445   2.916  11.475 -0.1024 -0.0095 -0.3259
16799TIP3   OH271811   1.301   1.166   1.453 -0.0118  0.2668 -0.5400
16799TIP3    H171812   1.300   1.127   1.365  1.3992  1.9222 -1.3583
16799TIP3    H271813   1.221   1.217   1.458  1.1980  2.4991 -2.0793
16800TIP3   OH271814   0.600   0.314   3.842  0.1263 -0.0870 -0.2379
16800TIP3    H171815   0.566   0.382   3.785  0.4013  2.1809  2.1137
16800TIP3    H271816   0.529   0.249   3.848 -0.6750  0.6418 -1.4868
16801TIP3   OH271817   0.218   1.421  12.387 -0.1726 -0.6494  0.2608
16801TIP3    H171818   0.198   1.363  12.461  0.0369 -1.7326 -0.5053
16801TIP3    H271819   0.133   1.458  12.362 -0.2498 -0.2947  1.0119
16802TIP3   OH271820   1.373   6.010   4.184  0.2134 -0.0570 -0.1239
16802TIP3    H171821   1.393   6.046   4.270  2.2224  1.2687 -1.0614
16802TIP3    H271822   1.455   5.971   4.155 -0.6354 -1.1641 -1.1368
16803TIP3   OH271823   2.443   0.810  13.007 -0.2136  0.2156  0.7950
16803TIP3    H171824   2.418   0.875  13.072 -0.4095  1.0555 -0.0861
16803TIP3    H271825   2.373   0.814  12.941  0.1791 -0.3161  0.3319
16804TIP3   OH271826   2.451   3.163   5.623  0.2501  0.8368 -0.1913
16804TIP3    H171827   2.522   3.128   5.678  0.9385 -0.8736 -2.0329
16804TIP3    H271828   2.480   3.146   5.533 -0.4915  4.1739 -1.2135
16805TIP3   OH271829   3.520   1.635  16.799 -0.0887 -0.0869  0.2666
16805TIP3    H171830   3.531   1.690  16.877 -0.9059  1.1452 -0.4728
16805TIP3    H271831   3.434   1.657  16.765  0.0481 -0.9807 -0.7212
16806TIP3   OH271832   0.313   5.898  15.177  0.4208  0.0672  0.1424
16806TIP3    H171833   0.283   5.979  15.136  3.4484  1.7261  0.8843
16806TIP3    H271834   0.280   5.902  15.267 -1.6637 -0.9276 -0.5116
16807TIP3   OH271835   5.426   0.320  12.471 -0.2106  0.3158  0.2116
16807TIP3    H171836   5.409   0.369  12.391 -0.2419  1.1679  0.7268
16807TIP3    H271837   5.520   0.326  12.485  0.0258 -1.0887 -0.5331
16808TIP3   OH271838   5.396   0.818   3.365 -0.4274 -0.2466  0.1619
16808TIP3    H171839   5.459   0.887   3.346 -0.4582  0.0457  1.0396
16808TIP3    H271840   5.420   0.746   3.307  0.0491  0.2484 -0.2620
16809TIP3   OH271841   5.486   2.248   2.500  0.3125  0.6899  0.6295
16809TIP3    H171842   5.561   2.273   2.554  0.9485  1.1096 -0.4275
16809TIP3    H271843   5.418   2.311   2.523  0.7018  1.0976  0.6662
16810TIP3   OH271844   1.059   1.871  14.933 -0.4112 -0.3844  0.5561
16810TIP3    H171845   1.092   1.782  14.921 -1.4958 -0.7864  0.4982
16810TIP3    H271846   0.964   1.863  14.926 -0.5886  0.6249  1.5277
16811TIP3   OH271847   5.403   2.664   5.540  0.0868 -0.6575 -0.4954
16811TIP3    H171848   5.455   2.735   5.504 -1.1935  0.5054 -0.1306
16811TIP3    H271849   5.374   2.614   5.464  0.6855 -0.5799 -0.7783
16812TIP3   OH271850   0.544   4.820  15.441 -0.1572  0.0329 -0.1880
16812TIP3    H171851   0.457   4.845  15.471 -0.1824  0.2250 -0.4239
16812TIP3    H271852   0.597   4.899  15.452 -0.1394  0.0703 -0.5423
16813TIP3   OH271853   1.738   1.945  14.397  0.5322 -0.0586  0.0227
16813TIP3    H171854   1.732   1.987  14.483 -0.0843 -1.3940  0.6678
16813TIP3    H271855   1.657   1.969  14.353  1.3388  1.5686 -0.6820
16814TIP3   OH271856   0.354   1.357   6.481 -0.1323  0.0029  0.0123
16814TIP3    H171857   0.396   1.274   6.459 -1.3435 -0.7768  0.5889
16814TIP3    H271858   0.423   1.408   6.524  0.0265 -1.6116  1.7942
16815TIP3   OH271859   0.563   2.015   6.510  0.1283  0.6328  0.0396
16815TIP3    H171860   0.522   1.929   6.518 -1.0924  1.3181  1.6295
16815TIP3    H271861   0.497   2.068   6.466  0.1553  1.2217  0.7071
16816TIP3   OH271862   0.242   4.821   2.965 -0.2294  0.3956  0.2956
16816TIP3    H171863   0.180   4.750   2.984 -0.2877  0.1293 -0.8383
16816TIP3    H271864   0.315   4.778   2.921 -0.7470  1.1443 -1.3995
16817TIP3   OH271865   6.104   6.653  15.890  0.0400  0.3334  0.1326
16817TIP3    H171866   6.141   6.679  15.805  1.6005  1.6826  1.1560
16817TIP3    H271867   6.148   6.571  15.911  1.7026  1.3364  0.7981
16818TIP3   OH271868   0.882   0.045  13.069 -0.3262  0.0319  0.0304
16818TIP3    H171869   0.948   0.053  13.000  0.9323  0.2859  1.2219
16818TIP3    H271870   0.911  -0.029  13.122 -1.5525 -0.4899  0.0159
16819TIP3   OH271871   2.532   2.028  11.889  0.8772 -0.0308  0.1552
16819TIP3    H171872   2.494   2.034  11.802  1.3345  0.6589 -0.0034
16819TIP3    H271873   2.508   1.941  11.920 -2.5479  1.0014  0.8543
16820TIP3   OH271874   5.195   2.689   1.282 -0.0507  0.6362  0.2648
16820TIP3    H171875   5.233   2.602   1.286 -1.8891 -0.2036  0.3353
16820TIP3    H271876   5.231   2.734   1.358 -0.1528 -0.5247  1.0255
16821TIP3   OH271877   1.587   0.051  13.868  0.8127 -0.3469 -0.4179
16821TIP3    H171878   1.608   0.128  13.922  4.0090 -1.3503 -0.0066
16821TIP3    H271879   1.517   0.082  13.809  1.1688  2.5201  0.4808
16822TIP3   OH271880   0.322   6.110   1.619 -0.0823  0.1292  0.4976
16822TIP3    H171881   0.262   6.038   1.639 -0.6501  0.5828  0.4499
16822TIP3    H271882   0.266   6.177   1.580  0.6183  0.1779 -0.4538
16823TIP3   OH271883   5.450   2.118   0.621  0.0437  0.3694  0.2240
16823TIP3    H171884   5.418   2.094   0.534 -1.0667  1.5407  0.2751
16823TIP3    H271885   5.545   2.104   0.617 -0.0835 -0.2477 -0.9441
16824TIP3   OH271886   4.460   5.699  13.806  0.3653 -0.4381  0.1514
16824TIP3    H171887   4.417   5.618  13.781 -0.4546  0.1295 -0.3428
16824TIP3    H271888   4.528   5.713  13.739  0.2511 -0.5185  0.0208
16825TIP3   OH271889   1.184   4.826   1.824 -0.1264 -0.0004  0.8587
16825TIP3    H171890   1.151   4.742   1.793 -1.2996  0.4937  0.7183
16825TIP3    H271891   1.109   4.866   1.869  0.2676  1.1878  0.4869
16826TIP3   OH271892   3.878   0.494  15.953 -0.7655  0.2495 -0.1650
16826TIP3    H171893   3.854   0.459  16.038  0.1522 -0.9146 -0.3707
16826TIP3    H271894   3.970   0.518  15.962 -1.2689  2.3481 -0.1350
16827TIP3   OH271895   3.641   3.128   5.035  0.1363  0.0802 -0.0386
16827TIP3    H171896   3.667   3.036   5.039 -0.9486 -0.2007  2.1051
16827TIP3    H271897   3.547   3.126   5.018  0.3293  0.8584 -1.3061
16828TIP3   OH271898   6.393   1.995   5.598 -0.2214 -0.6145 -0.0411
16828TIP3    H171899   6.320   2.055   5.611  0.0672  0.1020 -1.5295
16828TIP3    H271900   6.359   1.928   5.539  0.8580  0.8997 -2.5409
16829TIP3   OH271901   1.528   3.353   5.886  0.1186  0.2390 -0.6405
16829TIP3    H171902   1.448   3.364   5.938  1.3135  3.4731  0.8284
16829TIP3    H271903   1.583   3.294   5.938 -0.1352  0.4799 -0.0916
16830TIP3   OH271904   2.809   5.836  16.268  0.7608  0.1583  0.0122
16830TIP3    H171905   2.793   5.906  16.332  1.0519 -0.9868  1.3920
16830TIP3    H271906   2.760   5.863  16.191 -3.6777 -0.5482  2.2012
16831TIP3   OH271907   2.596   0.781  11.834 -0.7928  0.3605 -0.4383
16831TIP3    H171908   2.565   0.870  11.853  0.3945  1.0807 -1.7032
16831TIP3    H271909   2.671   0.794  11.776 -0.9110 -1.5011 -1.0530
16832TIP3   OH271910   4.842   3.718   4.462 -0.0958  0.4466  1.0970
16832TIP3    H171911   4.889   3.714   4.378 -1.8959 -3.3168  0.0731
16832TIP3    H271912   4.754   3.747   4.438 -0.5121 -0.2652  1.7521
16833TIP3   OH271913   3.644   1.806  12.722  0.3654  0.0956 -0.6454
16833TIP3    H171914   3.574   1.825  12.783  2.2573  0.7020  1.4577
16833TIP3    H271915   3.631   1.868  12.650 -1.2462  0.1490 -0.3413
16834TIP3   OH271916   3.774   5.310  14.342  0.5174 -0.4789 -0.2480
16834TIP3    H171917   3.799   5.376  14.406 -0.3408 -0.1386 -0.2464
16834TIP3    H271918   3.825   5.232  14.366  0.7495 -0.1344  0.3916
16835TIP3   OH271919   2.845   4.467  12.692  0.2521 -0.6469  0.1742
16835TIP3    H171920   2.750   4.472  12.683  0.2395 -0.4360  0.4198
16835TIP3    H271921   2.858   4.422  12.776  0.3705 -0.3240  0.3278
16836TIP3   OH271922   2.836   0.842   3.889  0.5922  0.4740  0.4816
16836TIP3    H171923   2.806   0.781   3.822  0.0750  1.9699 -0.7109
16836TIP3    H271924   2.928   0.860   3.866  0.6122  0.4753  0.5621
16837TIP3   OH271925   4.933   0.025  16.577  0.3574  0.9567 -0.1246
16837TIP3    H171926   4.975   0.103  16.539  3.1490  0.3294  1.4492
16837TIP3    H271927   4.906   0.053  16.664 -1.8912  1.0837 -0.7901
16838TIP3   OH271928   5.123   1.287   1.054  0.2628  0.6216 -0.1112
16838TIP3    H171929   5.160   1.246   0.977  2.4034  2.9840 -0.4663
16838TIP3    H271930   5.040   1.324   1.024  0.1563 -0.1071 -0.7427
16839TIP3   OH271931   3.065   5.465   4.494 -0.1039 -0.1501 -0.1685
16839TIP3    H171932   3.123   5.434   4.425  1.1508  0.5980  0.5151
16839TIP3    H271933   2.986   5.494   4.448  0.7762  0.5178 -1.3088
16840TIP3   OH271934   0.896   3.096  11.705 -0.5066 -0.3049  0.6615
16840TIP3    H171935   0.880   3.190  11.699 -2.3455 -0.6766 -2.4120
16840TIP3    H271936   0.985   3.089  11.738 -0.4037  2.4777  1.2195
16841TIP3   OH271937   2.944   2.953   4.764 -0.1808 -0.5598  0.4831
16841TIP3    H171938   2.980   3.041   4.772 -0.2647 -0.2848 -1.5081
16841TIP3    H271939   2.877   2.961   4.696  1.2159 -2.5245 -1.2643
16842TIP3   OH271940   0.774   1.115  11.996  0.4017 -0.1794  0.4653
16842TIP3    H171941   0.853   1.073  12.031  0.2944 -0.4675  0.3650
16842TIP3    H271942   0.783   1.207  12.020  0.6381 -0.2607  0.6925
16843TIP3   OH271943   1.799   3.753  14.741  0.0562  1.3112  0.4269
16843TIP3    H171944   1.777   3.756  14.834 -1.0927  2.2714  0.1487
16843TIP3    H271945   1.791   3.844  14.712  3.3292  1.5668  0.0032
16844TIP3   OH271946   0.904   5.702  12.814 -0.3140  0.2401 -0.1446
16844TIP3    H171947   0.825   5.656  12.841 -1.9905  2.3809 -1.0549
16844TIP3    H271948   0.953   5.717  12.895 -1.0638 -0.7086  0.5008
16845TIP3   OH271949   1.971   2.936   2.677  0.3946 -0.5280  0.1654
16845TIP3    H171950   1.928   2.970   2.756  1.5388 -0.9674  1.0083
16845TIP3    H271951   1.931   2.984   2.605  1.7361  2.5181  1.2563
16846TIP3   OH271952   1.444   3.454   4.960  0.0185  0.0750  0.3219
16846TIP3    H171953   1.428   3.425   5.049 -0.5796  1.6530  0.7569
16846TIP3    H271954   1.390   3.396   4.906 -0.2673 -0.3511  1.0559
16847TIP3   OH271955   6.775   1.244  13.671 -0.1224 -0.1113 -0.0056
16847TIP3    H171956   6.831   1.238  13.748 -0.9899  0.1617  0.6522
16847TIP3    H271957   6.714   1.315  13.690 -1.2306 -0.9428 -0.3615
16848TIP3   OH271958   4.625   6.072   5.148 -0.0952  0.0526 -0.0080
16848TIP3    H171959   4.678   6.087   5.070 -0.6023 -0.9421 -0.5643
16848TIP3    H271960   4.619   5.976   5.154 -1.8018  0.1408  0.0557
16849TIP3   OH271961   5.273   6.128   4.602  0.4188 -0.1302 -0.1595
16849TIP3    H171962   5.265   6.066   4.675  1.0826 -0.1800 -0.1307
16849TIP3    H271963   5.366   6.150   4.598  0.4353 -0.3433 -1.1680
16850TIP3   OH271964   3.100   0.424  16.803  0.4842  0.6884  0.0842
16850TIP3    H171965   3.113   0.469  16.719  1.5942  0.8807  0.3487
16850TIP3    H271966   3.187   0.391  16.826 -0.0718 -0.5004  0.5224
16851TIP3   OH271967   2.159   1.624  12.529  0.3883 -0.0326  0.3928
16851TIP3    H171968   2.213   1.667  12.595  1.3355 -2.8105  1.5703
16851TIP3    H271969   2.078   1.674  12.527  1.4841  1.8939  1.4565
16852TIP3   OH271970   1.012   6.463   4.956  0.1731 -0.3317  0.4884
16852TIP3    H171971   1.077   6.489   5.021 -1.9112  1.0208  2.1541
16852TIP3    H271972   0.980   6.378   4.988 -0.9312  0.3848  1.3771
16853TIP3   OH271973   5.845   3.177   2.680 -0.0796  0.1953 -0.0901
16853TIP3    H171974   5.767   3.123   2.695  0.0931  0.2662  1.2579
16853TIP3    H271975   5.830   3.254   2.735  1.0843  0.0465  0.4622
16854TIP3   OH271976   4.623   3.621   0.396 -0.3732  0.4840 -0.3239
16854TIP3    H171977   4.552   3.683   0.380 -0.6190  0.4892  0.7280
16854TIP3    H271978   4.646   3.634   0.488  0.3728 -0.1586 -0.4103
16855TIP3   OH271979   0.119   3.779   4.922  0.1140 -0.8971  0.4921
16855TIP3    H171980   0.043   3.748   4.873 -0.3973 -0.0186  0.7303
16855TIP3    H271981   0.187   3.790   4.855 -0.8509  1.2023 -0.2088
16856TIP3   OH271982   0.356   1.182   2.717 -0.2814 -0.0004 -0.0643
16856TIP3    H171983   0.367   1.128   2.795  0.9055 -1.1447 -0.9905
16856TIP3    H271984   0.441   1.180   2.674 -0.7048  1.2370 -1.0014
16857TIP3   OH271985   1.635   1.938  12.754  0.1803  0.1962 -0.2234
16857TIP3    H171986   1.728   1.927  12.775  0.0132  0.2484  0.5588
16857TIP3    H271987   1.593   1.857  12.781 -0.2964  0.8836  1.2078
16858TIP3   OH271988   4.933   4.823  11.372 -0.6277  0.2801 -0.1315
16858TIP3    H171989   4.937   4.813  11.467  0.4668  1.0547 -0.0810
16858TIP3    H271990   4.962   4.912  11.356 -1.7806  0.4943 -1.1408
16859TIP3   OH271991   0.645   4.799  14.403 -0.2594 -0.2204  0.1275
16859TIP3    H171992   0.578   4.864  14.381 -0.4946 -0.9798 -1.5440
16859TIP3    H271993   0.726   4.849  14.409 -0.3682  0.2152 -1.5378
16860TIP3   OH271994   4.817   1.287   0.320 -0.2615  0.3627 -0.4582
16860TIP3    H171995   4.781   1.351   0.258  0.6746  2.5695  1.1079
16860TIP3    H271996   4.912   1.297   0.310 -0.1076  0.3263  0.8719
16861TIP3   OH271997   0.408   1.451   2.828  0.7980 -0.3658  0.5024
16861TIP3    H171998   0.460   1.476   2.752  1.2540 -1.8296  0.3093
16861TIP3    H271999   0.371   1.365   2.805 -1.5683  0.5225  0.7058
16862TIP3   OH272000   1.927   5.634  10.346 -0.4064  0.5392 -0.3974
16862TIP3    H172001   1.898   5.725  10.354 -2.7672 -0.0858 -1.0556
16862TIP3    H272002   1.852   5.588  10.307  0.4087 -1.8575  0.6586
16863TIP3   OH272003   6.579   4.816  17.148  0.2504  0.0464 -0.2923
16863TIP3    H172004   6.667   4.848  17.128 -0.1958  1.1546 -0.5502
16863TIP3    H272005   6.592   4.748  17.214  1.3918 -0.6323 -1.1847
16864TIP3   OH272006   0.099   1.494   3.620 -0.4795 -0.3017 -0.2982
16864TIP3    H172007   0.042   1.567   3.643  0.6094  0.4326  0.1270
16864TIP3    H272008   0.042   1.417   3.625 -0.9423  0.1202  2.3120
16865TIP3   OH272009   0.956   2.308   6.300  0.3937  0.0095  0.2524
16865TIP3    H172010   0.943   2.386   6.353  3.1856 -0.3738  1.7381
16865TIP3    H272011   1.051   2.305   6.284  0.3013 -2.6282 -0.4070
16866TIP3   OH272012   0.836   3.008   5.665 -0.1099 -0.6285  0.6017
16866TIP3    H172013   0.781   2.938   5.700 -1.5173 -0.0153 -0.3012
16866TIP3    H272014   0.803   3.022   5.576  1.9041 -0.6237 -0.1948
16867TIP3   OH272015   6.537   5.045  13.199 -0.8244  0.3003 -0.4281
16867TIP3    H172016   6.627   5.021  13.217  0.0170  3.3060 -0.0989
16867TIP3    H272017   6.539   5.079  13.109 -1.3906  1.2909 -0.0839
16868TIP3   OH272018   5.462   2.474  14.267 -0.1856  0.0664 -0.0114
16868TIP3    H172019   5.525   2.402  14.273 -0.9107 -0.5727  0.0532
16868TIP3    H272020   5.393   2.441  14.210 -0.2606  0.9192 -0.4333
16869TIP3   OH272021   3.392   2.992  15.711 -0.2653 -0.5627  0.0750
16869TIP3    H172022   3.432   2.924  15.658 -1.2089 -0.6597 -0.5312
16869TIP3    H272023   3.406   3.073  15.661  1.1155 -0.2292  0.9314
16870TIP3   OH272024   5.671   1.483  15.405 -0.4272 -0.1615  0.1523
16870TIP3    H172025   5.699   1.440  15.324  2.0350  2.4879 -0.5668
16870TIP3    H272026   5.602   1.543  15.377  0.4046  0.7335 -0.0056
16871TIP3   OH272027   2.439   1.061  16.545  0.1272  0.1675  0.0040
16871TIP3    H172028   2.387   0.986  16.514  0.6844 -0.6705  1.0566
16871TIP3    H272029   2.429   1.126  16.476  1.3105 -1.6187 -1.9691
16872TIP3   OH272030   1.254   1.473   1.471 -0.6924  0.6088  0.1800
16872TIP3    H172031   1.331   1.501   1.423 -0.2945 -0.8503 -0.0942
16872TIP3    H272032   1.185   1.533   1.444 -0.5044 -0.1615 -2.2888
16873TIP3   OH272033   3.473   0.287  15.596  0.4707  0.8149  0.4661
16873TIP3    H172034   3.513   0.345  15.661 -1.9490  0.2243  2.6703
16873TIP3    H272035   3.396   0.335  15.566  0.1875  0.0276 -0.0836
16874TIP3   OH272036   5.696   5.887   3.723  0.3806  0.1622  0.1671
16874TIP3    H172037   5.688   5.972   3.765  1.3333 -0.2498  1.2396
16874TIP3    H272038   5.786   5.859   3.742  1.4010  0.5514 -3.3768
16875TIP3   OH272039   0.919   1.461  15.207  0.1128 -0.0961 -1.0038
16875TIP3    H172040   0.870   1.400  15.152 -3.0962  0.6599  0.7944
16875TIP3    H272041   0.997   1.412  15.233 -1.2295 -2.6384 -1.4384
16876TIP3   OH272042   3.978   4.706   3.166  0.8583  0.4676 -0.1558
16876TIP3    H172043   3.931   4.744   3.093 -0.9369 -2.8953 -0.9339
16876TIP3    H272044   4.062   4.678   3.129  0.3546 -0.3292 -0.7268
16877TIP3   OH272045   2.329   1.878  16.851  0.0170 -0.8705 -0.2375
16877TIP3    H172046   2.414   1.923  16.845 -0.1449 -0.1869  1.7081
16877TIP3    H272047   2.351   1.785  16.843  0.4979 -0.5790 -3.1956
16878TIP3   OH272048   2.330   1.595  13.537  0.0760 -0.8747 -0.3404
16878TIP3    H172049   2.351   1.555  13.453  0.9893 -1.4074  0.1237
16878TIP3    H272050   2.239   1.570  13.553 -0.4592  0.1135 -1.6417
16879TIP3   OH272051   2.028   2.441   0.440  0.4349 -0.3971  0.3148
16879TIP3    H172052   2.108   2.436   0.387  0.6400 -1.0737  0.6845
16879TIP3    H272053   1.980   2.361   0.418  1.0567 -1.2674  2.0014
16880TIP3   OH272054   5.678   5.640  12.114 -0.2824 -0.4456 -0.3737
16880TIP3    H172055   5.590   5.605  12.103 -1.0701  1.7800 -1.9224
16880TIP3    H272056   5.709   5.656  12.025  0.8541  0.7008  0.1896
16881TIP3   OH272057   6.449   0.227  15.659 -0.3357 -0.1398 -0.0194
16881TIP3    H172058   6.368   0.218  15.608  0.5144 -1.3487 -1.2380
16881TIP3    H272059   6.489   0.308  15.627 -0.0240 -0.6631 -1.0274
16882TIP3   OH272060   6.508   5.337   0.756  0.6347  0.2554  0.2049
16882TIP3    H172061   6.467   5.314   0.839 -0.6064 -1.3845 -0.8005
16882TIP3    H272062   6.571   5.267   0.740  3.3709  2.2852  1.2981
16883TIP3   OH272063   0.203   3.563   0.092 -0.2661  0.5052 -0.8181
16883TIP3    H172064   0.266   3.571   0.021  0.0203 -1.1782 -0.7961
16883TIP3    H272065   0.120   3.589   0.054  0.1177  0.9180 -1.3861
16884TIP3   OH272066   3.036   4.306   1.122 -0.8789 -0.3139  0.5024
16884TIP3    H172067   3.105   4.254   1.164  0.8058  1.0641 -0.3688
16884TIP3    H272068   2.960   4.249   1.119  0.0045 -1.6735  2.1708
16885TIP3   OH272069   3.111   0.868   3.870 -0.2468  0.2733  0.4612
16885TIP3    H172070   3.126   0.912   3.954 -0.0525 -1.7189  1.5351
16885TIP3    H272071   3.195   0.826   3.851 -1.0148 -1.3699  0.5751
16886TIP3   OH272072   5.438   5.624   0.798 -0.1834  0.9528 -0.5493
16886TIP3    H172073   5.494   5.572   0.855  0.2857  0.0194 -1.8156
16886TIP3    H272074   5.375   5.665   0.857  0.3040  0.0600  0.6316
16887TIP3   OH272075   1.878   0.811  11.537 -0.0958 -0.7389 -0.2187
16887TIP3    H172076   1.899   0.719  11.553 -0.7279 -0.9950 -0.7928
16887TIP3    H272077   1.948   0.841  11.478 -0.4004 -1.1136 -0.7754
16888TIP3   OH272078   4.885   2.216  13.634 -0.7253 -0.2690 -0.1583
16888TIP3    H172079   4.974   2.246  13.616 -1.0315  1.5128  0.9852
16888TIP3    H272080   4.894   2.126  13.664  0.7697  0.1401  0.6732
16889TIP3   OH272081   1.300   3.943   2.381 -0.0542  0.1430  0.2079
16889TIP3    H172082   1.210   3.967   2.357  0.2834 -0.1973 -1.5174
16889TIP3    H272083   1.336   4.022   2.422 -1.1836  0.2150  1.1256
16890TIP3   OH272084   3.466   3.524  14.147  0.0703 -0.1793  0.1038
16890TIP3    H172085   3.522   3.601  14.155  1.1850 -0.7847 -1.4106
16890TIP3    H272086   3.446   3.518  14.054  0.1243 -1.7848  0.1585
16891TIP3   OH272087   3.958   0.981  11.742 -0.0884  1.3148 -0.4912
16891TIP3    H172088   4.013   1.018  11.673 -0.2375  2.2770 -0.1041
16891TIP3    H272089   4.011   0.910  11.778 -1.1694 -1.2724 -3.5680
16892TIP3   OH272090   3.769   4.523  12.536 -0.0890  0.6621 -0.1778
16892TIP3    H172091   3.680   4.545  12.561  0.3388  1.9430  0.3106
16892TIP3    H272092   3.786   4.579  12.460  0.7019  1.3529  0.4882
16893TIP3   OH272093   3.654   1.912  16.023  0.1175 -0.7786  0.1128
16893TIP3    H172094   3.681   1.927  15.933  1.2846  0.3389  0.6127
16893TIP3    H272095   3.722   1.855  16.060  0.1480 -0.4728  0.5360
16894TIP3   OH272096   3.015   5.093   1.395  0.4611  1.1195 -0.0205
16894TIP3    H172097   3.083   5.160   1.402  0.1324  1.3115  1.6485
16894TIP3    H272098   2.935   5.139   1.421 -0.1705  0.6458 -1.0509
16895TIP3   OH272099   1.860   6.372  12.586  0.1846 -0.2559 -0.6271
16895TIP3    H172100   1.839   6.305  12.521  0.3024  1.1692 -2.2110
16895TIP3    H272101   1.908   6.325  12.654 -0.7984 -1.9880 -1.0601
16896TIP3   OH272102   2.828   3.939  11.313 -0.6720  0.0293  0.3158
16896TIP3    H172103   2.786   4.008  11.262  1.2445  0.5501 -0.6419
16896TIP3    H272104   2.780   3.859  11.290 -0.1227  0.3159 -2.0555
16897TIP3   OH272105   5.090   1.142   4.812  0.2575 -0.7431  0.5007
16897TIP3    H172106   5.087   1.055   4.852 -1.5195  0.7990  4.2395
16897TIP3    H272107   5.173   1.179   4.842 -0.1015 -0.3253  0.9946
16898TIP3   OH272108   2.457   1.096   1.934 -0.2264 -0.0082  0.2262
16898TIP3    H172109   2.439   1.043   2.012 -2.2079 -1.5743 -1.2234
16898TIP3    H272110   2.406   1.176   1.948 -0.7485 -0.3744  0.4481
16899TIP3   OH272111   0.399   0.947   4.644 -0.0571  0.0275  0.0206
16899TIP3    H172112   0.438   0.860   4.651  0.3811  0.3425  2.4560
16899TIP3    H272113   0.472   1.007   4.659 -0.4938  0.8039 -0.8683
16900TIP3   OH272114   2.663   4.773  16.545 -0.0937 -0.3780  0.1908
16900TIP3    H172115   2.620   4.751  16.628  0.3750 -0.7226  0.3455
16900TIP3    H272116   2.606   4.735  16.478 -0.3387 -0.3256  0.3668
16901TIP3   OH272117   2.571   4.992  12.238  0.3100  0.4010  0.1119
16901TIP3    H172118   2.643   5.016  12.179  1.2837 -0.7723  0.7887
16901TIP3    H272119   2.613   4.962  12.318 -0.9807  1.1475  1.1227
16902TIP3   OH272120   6.617   2.344   3.801 -0.7474  0.5421  0.2649
16902TIP3    H172121   6.660   2.260   3.819 -1.0643  0.5190  0.9442
16902TIP3    H272122   6.647   2.368   3.713 -1.8140 -0.9965 -0.5547
16903TIP3   OH272123   5.895   5.464   2.013 -0.2749  0.1528  0.2817
16903TIP3    H172124   5.944   5.385   1.989 -1.5928 -1.7176  3.2418
16903TIP3    H272125   5.962   5.529   2.032  0.8554 -0.2500 -1.9755
16904TIP3   OH272126   6.546   2.502  16.951  0.3269 -0.4130  0.3042
16904TIP3    H172127   6.463   2.528  16.991  0.9084  2.0667  0.1007
16904TIP3    H272128   6.595   2.460  17.022  0.1359  1.1012  1.3902
16905TIP3   OH272129   1.974   3.289   0.694  0.0893  0.0505 -0.4615
16905TIP3    H172130   1.894   3.257   0.735 -0.5672  1.5654 -0.4655
16905TIP3    H272131   1.967   3.385   0.700  2.0486  0.2193 -0.2003
16906TIP3   OH272132   5.603   5.463   2.755  0.7563  0.0214 -0.2816
16906TIP3    H172133   5.633   5.505   2.674 -1.8190  1.0759 -0.8034
16906TIP3    H272134   5.596   5.370   2.732  1.6011  0.0677 -0.7518
16907TIP3   OH272135   2.093   3.379  15.529  0.1027  0.3292  0.2627
16907TIP3    H172136   2.016   3.401  15.477  1.4714  0.8954 -1.6208
16907TIP3    H272137   2.057   3.335  15.606 -2.0710  0.1139 -0.7805
16908TIP3   OH272138   6.415   5.193   4.131 -0.1642 -0.1151 -0.2866
16908TIP3    H172139   6.340   5.252   4.142 -0.8648 -1.0821  0.2921
16908TIP3    H272140   6.441   5.169   4.220 -0.2262 -1.0679 -0.5080
16909TIP3   OH272141   3.269   3.775  14.283  0.4979 -0.1134  0.3834
16909TIP3    H172142   3.256   3.683  14.262  1.7640  0.0181 -1.2086
16909TIP3    H272143   3.348   3.776  14.337  2.6443  0.2073 -2.4866
16910TIP3   OH272144   5.272   4.804   5.628  0.5382  0.1383  0.0287
16910TIP3    H172145   5.259   4.747   5.704  0.3371 -0.3098 -0.3415
16910TIP3    H272146   5.195   4.791   5.574  0.9236  0.0575 -0.5131
16911TIP3   OH272147   0.787   5.127   3.091 -0.1263  0.1507  0.2617
16911TIP3    H172148   0.767   5.083   3.008 -0.9573 -0.3025  0.6825
16911TIP3    H272149   0.874   5.093   3.115 -1.1108 -2.0582  1.0309
16912TIP3   OH272150   1.991   6.005  15.944 -0.1757 -0.2691 -0.0320
16912TIP3    H172151   1.921   6.056  15.902  0.1672  0.1997 -0.0484
16912TIP3    H272152   2.051   6.072  15.978 -1.4927 -0.5150  3.0916
16913TIP3   OH272153   1.336   2.468  12.899 -0.4277 -0.9768  0.0504
16913TIP3    H172154   1.426   2.437  12.915 -0.6156 -0.7036  1.9274
16913TIP3    H272155   1.320   2.449  12.807  1.3622 -1.5382 -0.1904
16914TIP3   OH272156   0.580   0.985   1.324  0.1428 -0.1797  0.2706
16914TIP3    H172157   0.554   1.046   1.393  0.0470 -0.4730  0.4963
16914TIP3    H272158   0.517   0.913   1.330 -0.0417 -0.0701 -0.3148
16915TIP3   OH272159   6.247   2.041  15.703  0.2635  0.7023  0.2119
16915TIP3    H172160   6.262   1.973  15.637  1.2004  0.6526  0.4690
16915TIP3    H272161   6.288   2.007  15.782 -2.3265 -0.0343  1.3449
16916TIP3   OH272162   6.666   4.370   5.763  0.1851  0.0293 -0.2334
16916TIP3    H172163   6.620   4.344   5.683 -0.8057  0.6041  0.1243
16916TIP3    H272164   6.753   4.397   5.733 -0.0281 -0.1695 -1.0618
16917TIP3   OH272165   3.334   5.468   2.238  0.0834 -0.8253 -0.3195
16917TIP3    H172166   3.246   5.499   2.254  0.6165 -0.0367  1.2744
16917TIP3    H272167   3.358   5.420   2.318  1.1322 -0.9441 -0.6829
16918TIP3   OH272168   3.254   0.749  11.497 -0.2409  0.4818 -0.5478
16918TIP3    H172169   3.296   0.671  11.535 -1.2581 -0.3001 -0.9701
16918TIP3    H272170   3.252   0.731  11.403 -3.4225 -0.5344 -0.3923
16919TIP3   OH272171   1.798   1.294  15.230  0.4292  0.5032 -0.0724
16919TIP3    H172172   1.885   1.295  15.190  1.4448  0.2272  1.9814
16919TIP3    H272173   1.813   1.262  15.319 -2.0000 -0.9133 -0.0873
16920TIP3   OH272174   1.886   2.906  11.416 -0.6636  0.0584 -0.5986
16920TIP3    H172175   1.809   2.858  11.447 -1.1579  0.3219 -1.3843
16920TIP3    H272176   1.922   2.948  11.494 -0.6441 -0.9857 -0.0192
16921TIP3   OH272177   5.956   4.063   4.202  0.0349  0.2146 -0.0075
16921TIP3    H172178   6.014   4.050   4.278  0.0078 -0.3101 -0.0731
16921TIP3    H272179   5.972   3.987   4.147 -0.6727  0.1046 -0.0614
16922TIP3   OH272180   3.697   6.482   2.077  0.3316  0.1542  0.2220
16922TIP3    H172181   3.718   6.560   2.026 -1.2686  1.2903  1.1822
16922TIP3    H272182   3.719   6.409   2.020 -0.0646  1.3506 -1.5454
16923TIP3   OH272183   1.725   2.749   4.209 -0.2699  0.1420  0.2451
16923TIP3    H172184   1.752   2.667   4.168  1.1522  0.8936 -0.3809
16923TIP3    H272185   1.657   2.784   4.150 -0.9430 -0.5940  0.5591
16924TIP3   OH272186   3.793   1.603   4.668  0.3227  0.0901 -0.0878
16924TIP3    H172187   3.762   1.693   4.661  2.2873  0.8710  0.3902
16924TIP3    H272188   3.816   1.592   4.760 -1.1730 -1.4076  0.1690
16925TIP3   OH272189   4.686   3.317  15.611 -0.0552  0.0785  0.1153
16925TIP3    H172190   4.727   3.310  15.524 -1.2339  2.1692 -0.6968
16925TIP3    H272191   4.749   3.369  15.662  0.8838 -1.5899  0.7557
16926TIP3   OH272192   4.062   4.059  12.998  0.7425 -0.4501  0.0137
16926TIP3    H172193   4.034   3.968  12.988 -1.4819  0.0781  0.8319
16926TIP3    H272194   4.096   4.084  12.912  1.4950 -2.0586 -0.1854
16927TIP3   OH272195   6.224   1.932  12.403 -0.5406  0.2233 -0.2139
16927TIP3    H172196   6.151   1.991  12.421  0.2725  1.2464 -0.1829
16927TIP3    H272197   6.270   1.925  12.486  0.2311  0.7595 -0.5893
16928TIP3   OH272198   4.374   4.314  13.914 -0.4719 -0.6772 -0.0838
16928TIP3    H172199   4.422   4.392  13.939  1.0545 -1.4562 -0.4291
16928TIP3    H272200   4.282   4.339  13.919 -0.0333  1.7007 -1.9652
16929TIP3   OH272201   0.753   4.149  13.522 -0.4943  0.0996  0.3240
16929TIP3    H172202   0.789   4.229  13.560 -0.7206 -0.8292  2.7085
16929TIP3    H272203   0.822   4.084  13.534  0.1736  0.1285 -2.7052
16930TIP3   OH272204   2.570   5.496  13.243 -0.3140  0.0798 -0.5102
16930TIP3    H172205   2.658   5.524  13.268 -0.0001  0.0891 -1.5488
16930TIP3    H272206   2.514   5.522  13.316  0.5525  0.0234  0.1885
16931TIP3   OH272207   4.751   4.349   5.248  0.4860 -0.0200  0.2186
16931TIP3    H172208   4.664   4.310   5.249  0.4110  0.1404  1.1639
16931TIP3    H272209   4.737   4.437   5.214 -0.0488  0.6616  2.0551
16932TIP3   OH272210   6.686   2.026   5.739 -0.5091  0.3817  0.2341
16932TIP3    H172211   6.741   2.102   5.759 -2.1516  1.7028  0.0511
16932TIP3    H272212   6.743   1.965   5.693  1.1107  1.0790  1.2510
16933TIP3   OH272213   2.259   0.797   5.877  0.1200 -0.3575  0.5190
16933TIP3    H172214   2.235   0.803   5.970  0.9323 -1.1337  0.7929
16933TIP3    H272215   2.285   0.886   5.854 -4.6002  1.0723 -0.3207
16934TIP3   OH272216   5.110   2.067  13.253 -0.2148  0.4607  0.1489
16934TIP3    H172217   5.047   2.136  13.274 -1.8035 -0.6548 -0.6929
16934TIP3    H272218   5.094   2.048  13.161  1.6903  0.4317 -0.2020
16935TIP3   OH272219   1.099   2.597  10.786 -0.1696 -0.3865  0.2429
16935TIP3    H172220   1.063   2.666  10.841  0.4901  0.7486 -0.7055
16935TIP3    H272221   1.178   2.635  10.747 -0.0273 -1.5210 -0.6511
16936TIP3   OH272222   4.700   6.093  12.076 -0.4277 -0.3339  0.0617
16936TIP3    H172223   4.668   6.128  11.993 -0.0229 -0.9869 -0.3767
16936TIP3    H272224   4.737   6.007  12.054  0.3270 -0.2158  0.7962
16937TIP3   OH272225   5.101   4.474  11.490 -0.2914  0.3012 -0.0056
16937TIP3    H172226   5.066   4.411  11.427 -1.5700 -0.3348  1.2843
16937TIP3    H272227   5.121   4.552  11.438 -1.5682 -0.1050 -1.1594
16938TIP3   OH272228   3.918   0.629   5.845 -0.0403  0.4746 -0.3394
16938TIP3    H172229   3.935   0.673   5.762  2.7562  0.0937 -0.0650
16938TIP3    H272230   4.002   0.629   5.890 -0.7296 -2.1409  1.1563
16939TIP3   OH272231   4.831   4.727  12.322 -0.2369  0.1021 -0.5180
16939TIP3    H172232   4.878   4.649  12.351 -0.3615 -0.7509 -2.4582
16939TIP3    H272233   4.772   4.695  12.253 -0.2946  1.9034 -1.3461
16940TIP3   OH272234   3.342   5.679   1.279 -0.3849  0.1448  0.2882
16940TIP3    H172235   3.266   5.654   1.332  0.0751  0.1420  0.9511
16940TIP3    H272236   3.387   5.745   1.332 -0.2887  0.6355 -0.3982
16941TIP3   OH272237   3.687   6.228   4.490  0.1976  0.0770 -0.5073
16941TIP3    H172238   3.770   6.265   4.521  0.5498 -0.2428 -1.0486
16941TIP3    H272239   3.695   6.228   4.395 -0.7256  0.7220 -0.5939
16942TIP3   OH272240   3.329   5.481   4.859 -0.0972 -0.5229  0.7707
16942TIP3    H172241   3.384   5.433   4.920  1.1855  1.0052  0.8987
16942TIP3    H272242   3.317   5.422   4.785  1.0897 -1.1772  1.0802
16943TIP3   OH272243   5.949   4.433  17.231 -0.0575 -0.4900  0.6483
16943TIP3    H172244   5.940   4.367  17.162 -1.7451 -1.3559  1.6174
16943TIP3    H272245   5.948   4.517  17.185  1.1890 -1.0912 -0.5355
16944TIP3   OH272246   2.693   1.225   1.819 -0.5350  0.1242 -0.0728
16944TIP3    H172247   2.612   1.192   1.858 -0.8474  0.7546 -0.1766
16944TIP3    H272248   2.679   1.220   1.725 -0.5014  0.3500 -0.0899
16945TIP3   OH272249   5.359   1.135   4.870  0.9288 -0.1230 -0.4218
16945TIP3    H172250   5.393   1.072   4.934  0.6248 -1.1556 -1.2376
16945TIP3    H272251   5.435   1.185   4.842  1.0386  0.4306  0.8383
16946TIP3   OH272252   0.016   6.214   0.349 -0.3416 -0.3864 -0.0557
16946TIP3    H172253   0.092   6.270   0.360 -0.8219  0.7638 -2.1723
16946TIP3    H272254   0.053   6.126   0.335  0.7166  0.3930 -2.5615
16947TIP3   OH272255   1.613   2.787   2.585 -0.4426 -0.1743  0.6595
16947TIP3    H172256   1.530   2.834   2.584  0.2048  1.0246  0.9143
16947TIP3    H272257   1.640   2.788   2.677 -0.1777 -0.6011  0.5898
16948TIP3   OH272258   0.124   3.669   2.478  0.6405  0.7823  0.1619
16948TIP3    H172259   0.197   3.608   2.483  1.1246  1.3350 -0.0190
16948TIP3    H272260   0.093   3.677   2.569 -0.0621 -0.4611  0.0594
16949TIP3   OH272261   1.115   3.453   2.989 -0.3397 -0.0874 -0.0980
16949TIP3    H172262   1.194   3.399   2.990  0.1212  0.5695 -0.5173
16949TIP3    H272263   1.145   3.540   3.015 -0.9580  0.1240 -0.0788
16950TIP3   OH272264   4.330   0.036   1.340 -0.4667 -0.1412 -0.0496
16950TIP3    H172265   4.298  -0.011   1.418  0.2996 -0.3648  0.1319
16950TIP3    H272266   4.328  -0.029   1.270 -1.2929  0.0984 -0.2600
16951TIP3   OH272267   5.310   4.677   1.545 -0.1551 -0.0901  0.1643
16951TIP3    H172268   5.299   4.766   1.511 -0.3189 -0.5255 -0.9702
16951TIP3    H272269   5.402   4.671   1.569  0.7403 -0.6401 -2.9529
16952TIP3   OH272270   6.222   5.126   4.931 -0.0309 -0.0373  0.4057
16952TIP3    H172271   6.266   5.140   5.016  0.4551 -0.4472  0.2272
16952TIP3    H272272   6.202   5.215   4.900  1.6657  0.2472 -0.0140
16953TIP3   OH272273   0.301   2.849  12.693  0.0920  0.2309 -0.1557
16953TIP3    H172274   0.248   2.781  12.734 -0.2233  0.4087 -0.2636
16953TIP3    H272275   0.238   2.906  12.649  0.3843  0.3437 -0.4404
16954TIP3   OH272276   3.484   1.700  16.097 -0.2752 -0.2366  0.7309
16954TIP3    H172277   3.434   1.707  16.016  0.6739 -2.5418 -0.1251
16954TIP3    H272278   3.502   1.790  16.122 -0.1971  0.5412 -1.8766
16955TIP3   OH272279   4.431   2.753   0.454  0.3742 -0.6945 -0.2964
16955TIP3    H172280   4.419   2.707   0.537 -1.1718  3.1065  1.8128
16955TIP3    H272281   4.353   2.731   0.403 -1.2170  0.7892  1.3747
16956TIP3   OH272282   0.985   3.229  15.465  0.1323 -0.0501  0.0083
16956TIP3    H172283   1.005   3.320  15.489  0.4962 -0.3728  0.9612
16956TIP3    H272284   1.047   3.210  15.394 -1.4642  1.1490 -1.8412
16957TIP3   OH272285   3.171   5.014  14.576 -0.6554 -0.1208  0.1085
16957TIP3    H172286   3.214   5.016  14.491 -0.6661 -0.0356  0.1047
16957TIP3    H272287   3.095   5.072  14.566 -2.0964 -2.0321 -0.5811
16958TIP3   OH272288   4.354   3.172   2.604  0.1423 -0.1735 -0.0170
16958TIP3    H172289   4.390   3.100   2.656  0.7598  0.6064  0.6835
16958TIP3    H272290   4.259   3.164   2.614  0.1953 -1.0033 -0.1161
16959TIP3   OH272291   4.727   4.324  12.969  0.3182 -0.3599 -0.0189
16959TIP3    H172292   4.687   4.278  12.895  1.4063  1.0631 -1.5604
16959TIP3    H272293   4.821   4.318  12.954  0.5239  1.1786  0.4705
16960TIP3   OH272294   3.019   6.072  16.176  0.2543  0.0646  0.2133
16960TIP3    H172295   3.023   6.103  16.267 -0.1527 -0.1782  0.3165
16960TIP3    H272296   2.978   5.985  16.182  1.4603 -0.5454 -0.0564
16961TIP3   OH272297   3.650   5.268  17.272  0.5672  0.4187 -0.0576
16961TIP3    H172298   3.672   5.221  17.352 -0.8308  0.7469  0.5444
16961TIP3    H272299   3.637   5.200  17.207 -0.2402  0.0134  0.5053
16962TIP3   OH272300   5.281   0.505  15.740  0.0299 -0.1816  0.4714
16962TIP3    H172301   5.276   0.590  15.785  0.8773 -0.1599  0.5348
16962TIP3    H272302   5.323   0.447  15.804  0.7389 -0.2895 -0.0829
16963TIP3   OH272303   6.618   1.305  12.198 -0.0036 -0.1897 -0.2633
16963TIP3    H172304   6.698   1.253  12.195 -0.9230 -1.6078 -1.9614
16963TIP3    H272305   6.582   1.299  12.110 -2.3956 -0.2647  0.6494
16964TIP3   OH272306   3.471   5.333   5.038  0.0257  0.0512  0.3354
16964TIP3    H172307   3.451   5.279   5.115  1.4276 -1.3430 -0.2157
16964TIP3    H272308   3.556   5.373   5.058  0.5520 -0.5653 -0.5736
16965TIP3   OH272309   0.786   4.481   4.156 -0.0362 -0.1693 -0.1651
16965TIP3    H172310   0.692   4.477   4.169  0.1345  0.2480  1.3502
16965TIP3    H272311   0.796   4.522   4.070 -1.2274 -0.3063 -0.3849
16966TIP3   OH272312   2.670   1.965   1.848 -0.0943 -0.5189  0.8617
16966TIP3    H172313   2.704   2.010   1.771  0.4126 -1.0337  0.7770
16966TIP3    H272314   2.598   2.020   1.878  1.2777  0.9873  1.4938
16967TIP3   OH272315   4.354   4.854  11.492  0.6819 -0.1381  0.2587
16967TIP3    H172316   4.357   4.901  11.409  0.3050 -0.2790  0.1633
16967TIP3    H272317   4.446   4.833  11.511  0.9697  1.5219  0.8161
16968TIP3   OH272318   6.335   0.471   0.894 -0.6175 -0.0899 -0.1151
16968TIP3    H172319   6.368   0.397   0.843 -0.7566 -1.1512  1.2694
16968TIP3    H272320   6.360   0.548   0.843 -1.0320 -1.0892 -1.9346
16969TIP3   OH272321   3.503   3.731  13.570  0.2690  0.4547 -0.5807
16969TIP3    H172322   3.537   3.647  13.599  0.7638  0.1234 -2.0461
16969TIP3    H272323   3.579   3.777  13.535  0.4870  2.4619  2.1446
16970TIP3   OH272324   5.274   0.294  16.775 -0.4023 -0.0706  0.2086
16970TIP3    H172325   5.215   0.221  16.797  1.6477 -1.1807  2.4880
16970TIP3    H272326   5.300   0.276  16.684 -1.3816 -1.1101  0.1021
16971TIP3   OH272327   5.435   0.716   4.857 -0.7984 -0.0817  0.1048
16971TIP3    H172328   5.363   0.718   4.794  0.2917  0.1568 -1.1857
16971TIP3    H272329   5.500   0.777   4.822  0.5934 -1.2667  0.5050
16972TIP3   OH272330   3.840   5.336  14.092 -0.7830 -0.0530 -0.1859
16972TIP3    H172331   3.820   5.324  14.185 -2.6163 -0.9987 -0.6529
16972TIP3    H272332   3.898   5.263  14.070  2.2966  1.9173  0.8651
16973TIP3   OH272333   4.132   4.971  15.522  0.5354  0.5260  0.4443
16973TIP3    H172334   4.156   4.905  15.457  0.3142  0.0174  0.8713
16973TIP3    H272335   4.058   5.017  15.482 -1.6420 -1.7814  1.5346
16974TIP3   OH272336   1.536   0.695   5.773  0.9340  0.3398 -0.1072
16974TIP3    H172337   1.494   0.634   5.833 -0.0080 -0.4475 -1.5064
16974TIP3    H272338   1.627   0.663   5.766  0.7278 -0.2819 -0.0239
16975TIP3   OH272339   2.685   2.427  12.352  0.2134 -0.5745 -0.0845
16975TIP3    H172340   2.668   2.393  12.440  3.0141 -0.1020  0.7598
16975TIP3    H272341   2.639   2.511  12.349 -0.7216 -1.0467  0.5386
16976TIP3   OH272342   6.335   2.209   5.871 -0.2223  0.5259  0.3631
16976TIP3    H172343   6.295   2.250   5.794 -0.1819  1.6888  0.9309
16976TIP3    H272344   6.278   2.234   5.944 -0.3446 -0.6897  0.6993
16977TIP3   OH272345   3.230   6.346   1.684  0.1007 -0.0507 -0.1083
16977TIP3    H172346   3.174   6.285   1.731 -0.2466  1.0858  1.0106
16977TIP3    H272347   3.198   6.433   1.709  0.9228  0.6091 -1.2259
16978TIP3   OH272348   0.635   3.854   0.507 -0.3123 -0.2704 -0.1321
16978TIP3    H172349   0.691   3.786   0.471  0.5979  0.1776  0.4051
16978TIP3    H272350   0.598   3.816   0.586  1.0475  0.2084  0.7631
16979TIP3   OH272351   0.703   3.274  12.958 -0.0315  0.4081  0.2782
16979TIP3    H172352   0.753   3.303  12.882  1.2642  0.8750  1.2510
16979TIP3    H272353   0.757   3.301  13.033 -0.0998 -2.0590  1.3298
16980TIP3   OH272354   1.122   1.974   3.797 -0.6718  0.2778 -0.1993
16980TIP3    H172355   1.173   1.924   3.733 -2.2490 -0.3567 -1.0075
16980TIP3    H272356   1.102   1.910   3.866  1.0731  0.9702  1.0440
16981TIP3   OH272357   3.143   4.117  15.142 -0.4164  0.4656  0.4595
16981TIP3    H172358   3.145   4.140  15.049  2.4494  1.0345  0.5764
16981TIP3    H272359   3.051   4.128  15.167 -1.1877  0.7229 -2.1754
16982TIP3   OH272360   6.342   3.861   0.895  0.4309 -0.1364 -0.5624
16982TIP3    H172361   6.276   3.864   0.826 -1.7183 -1.3205  1.3091
16982TIP3    H272362   6.414   3.810   0.858 -0.3504 -0.1641 -2.1157
16983TIP3   OH272363   0.244   0.993  17.038 -0.0924  0.5274 -0.0132
16983TIP3    H172364   0.151   1.012  17.029 -0.4572 -0.9845  0.3869
16983TIP3    H272365   0.248   0.901  17.064  1.5584  0.1028 -1.5228
16984TIP3   OH272366   0.283   6.569  11.780  0.0192  0.1283  0.4955
16984TIP3    H172367   0.202   6.549  11.732  0.0961  1.2243 -0.1152
16984TIP3    H272368   0.353   6.543  11.720  0.1506 -0.9992  1.0983
16985TIP3   OH272369   5.238   2.998  13.766 -0.4357 -0.4330 -0.1096
16985TIP3    H172370   5.303   3.061  13.736 -0.2812  0.3688  1.7827
16985TIP3    H272371   5.290   2.925  13.801 -0.6094 -1.0106 -1.0029
16986TIP3   OH272372   1.096   3.975   2.866 -0.1075 -0.0915  0.2148
16986TIP3    H172373   1.084   4.011   2.779  0.8450 -0.7538 -0.2140
16986TIP3    H272374   1.092   4.051   2.924 -0.7752  0.3498 -0.3976
16987TIP3   OH272375   4.747   2.617   4.486 -0.2458  0.5490  0.2202
16987TIP3    H172376   4.741   2.664   4.403 -0.4760  0.0942 -0.0236
16987TIP3    H272377   4.838   2.628   4.514  0.5771 -1.5137 -1.4181
16988TIP3   OH272378   4.242   0.246   4.370  0.6529 -0.2055  0.4588
16988TIP3    H172379   4.229   0.265   4.277 -0.7092 -1.8451  0.2631
16988TIP3    H272380   4.317   0.187   4.372 -0.0884 -1.1775  0.2471
16989TIP3   OH272381   0.134   3.023   5.354  0.2521 -0.1329  0.0229
16989TIP3    H172382   0.102   3.064   5.274 -1.7782 -0.2344  0.7345
16989TIP3    H272383   0.066   2.960   5.378  1.4324 -1.0402  1.1454
16990TIP3   OH272384   3.724   3.243  11.667 -0.2668 -0.1666  0.3953
16990TIP3    H172385   3.665   3.168  11.663  1.8576 -1.9049  0.0782
16990TIP3    H272386   3.750   3.259  11.576  1.8747 -1.2818  0.7410
16991TIP3   OH272387   0.336   6.765  11.972  0.4094 -0.0732 -0.1258
16991TIP3    H172388   0.317   6.704  11.900 -0.0776  1.3500 -1.2468
16991TIP3    H272389   0.268   6.832  11.967  0.1740 -0.0917  1.8963
16992TIP3   OH272390   4.338   1.584   1.204  0.3789 -0.1311  0.0145
16992TIP3    H172391   4.425   1.608   1.173  0.1604 -0.1623 -0.6410
16992TIP3    H272392   4.279   1.646   1.161 -0.0438 -0.9082 -0.5442
16993TIP3   OH272393   0.191   3.868  16.495  0.4965 -0.1647 -0.9593
16993TIP3    H172394   0.111   3.867  16.547  1.4312  1.6908  0.6604
16993TIP3    H272395   0.261   3.848  16.558  1.4739 -0.0422 -1.9740
16994TIP3   OH272396   2.352   3.239  16.509  0.0620 -0.2451 -0.1579
16994TIP3    H172397   2.336   3.323  16.467  3.3186 -0.5592 -2.3928
16994TIP3    H272398   2.435   3.250  16.555  0.1048 -1.9575  0.2542
16995TIP3   OH272399   5.757   3.629   2.604 -0.1379 -0.2623  0.0142
16995TIP3    H172400   5.738   3.550   2.654  0.0295 -1.8082 -2.2258
16995TIP3    H272401   5.817   3.600   2.535  0.8994  2.0844 -0.1599
16996TIP3   OH272402   2.224   5.290  15.837 -0.1941 -0.6304 -0.0883
16996TIP3    H172403   2.311   5.304  15.873 -0.3002 -1.8708  0.7095
16996TIP3    H272404   2.228   5.203  15.797 -1.1352 -0.8398  0.2280
16997TIP3   OH272405   6.030   1.527  11.202 -0.2734 -0.0398 -0.0680
16997TIP3    H172406   5.950   1.496  11.159  0.1700 -0.4053 -0.6534
16997TIP3    H272407   6.090   1.452  11.197  0.1214  0.2479  0.3176
16998TIP3   OH272408   5.631   0.252  15.421 -0.2088 -0.0346  0.3657
16998TIP3    H172409   5.710   0.199  15.427 -0.4222 -0.3067  0.7759
16998TIP3    H272410   5.562   0.199  15.460 -0.7886 -0.1585 -0.7866
16999TIP3   OH272411   6.726   5.646  14.340  0.1607  0.3280  0.1567
16999TIP3    H172412   6.748   5.690  14.423 -0.3070 -0.4872  0.7357
16999TIP3    H272413   6.686   5.563  14.368  0.7446 -0.3200 -0.9058
17000TIP3   OH272414   1.274   4.178   1.984  0.6817  0.2988  0.0550
17000TIP3    H172415   1.306   4.268   1.988  1.0122  0.3513 -2.2207
17000TIP3    H272416   1.343   4.126   2.026  0.3450  1.1152  1.6611
17001TIP3   OH272417   2.655   4.176  15.739 -0.5463  0.6903  0.3270
17001TIP3    H172418   2.565   4.195  15.766 -0.0992 -0.3003  2.7028
17001TIP3    H272419   2.674   4.090  15.777  1.6968  1.2595  0.6065
17002TIP3   OH272420   2.044   3.033  16.618 -0.1049  0.2435  0.3015
17002TIP3    H172421   2.096   3.030  16.698  0.1272  1.7581  0.2361
17002TIP3    H272422   1.984   3.106  16.631 -1.3902 -0.7073 -0.1359
17003TIP3   OH272423   4.788   5.424   4.421 -0.0958  0.4777 -0.1099
17003TIP3    H172424   4.734   5.354   4.384 -0.7966  1.3829 -0.8591
17003TIP3    H272425   4.863   5.379   4.459  0.8227 -0.5427 -2.8839
17004TIP3   OH272426   2.145   3.132  11.980 -0.2683  0.3082 -0.7128
17004TIP3    H172427   2.167   3.189  12.054  1.5297  0.4997 -1.3443
17004TIP3    H272428   2.175   3.045  12.007 -2.1364 -0.2101 -0.1401
17005TIP3   OH272429   2.754   0.321   2.655 -0.8175 -0.4181  0.1612
17005TIP3    H172430   2.661   0.337   2.638 -0.5925  0.8242  0.0347
17005TIP3    H272431   2.796   0.330   2.570 -0.6346 -1.5304  0.1172
17006TIP3   OH272432   0.059   3.800   1.538  0.2286  0.5219 -0.0532
17006TIP3    H172433   0.125   3.735   1.564  0.2789  0.2355 -0.8660
17006TIP3    H272434   0.081   3.878   1.590  0.2522 -0.0565  0.8317
17007TIP3   OH272435   5.885   4.319   1.727 -0.2159  0.1375  0.4149
17007TIP3    H172436   5.831   4.255   1.682 -2.0471  1.4192  0.6521
17007TIP3    H272437   5.935   4.268   1.791 -1.3262 -1.1066  0.3412
17008TIP3   OH272438   5.798   2.296  16.234  0.4589 -0.8549  0.5145
17008TIP3    H172439   5.861   2.253  16.176  0.7027 -0.5306  0.5398
17008TIP3    H272440   5.716   2.247  16.221 -0.2602  0.8643 -2.1846
17009TIP3   OH272441   2.283   2.145  17.162  0.4266 -0.3523 -0.2763
17009TIP3    H172442   2.235   2.063  17.171  3.2465 -1.9904  1.4304
17009TIP3    H272443   2.375   2.119  17.163  1.4429  2.7270 -1.3783
17010TIP3   OH272444   6.691   2.014  13.756 -0.0108 -0.4793 -0.3904
17010TIP3    H172445   6.629   2.082  13.729  1.4146  0.4364 -1.4847
17010TIP3    H272446   6.639   1.933  13.755 -1.2175  0.2655 -1.1526
17011TIP3   OH272447   4.723   4.373  16.632  0.0804 -0.3982  0.7779
17011TIP3    H172448   4.797   4.430  16.611  0.1073 -0.4086  0.8418
17011TIP3    H272449   4.686   4.349  16.548 -0.7064  0.7285  0.7774
17012TIP3   OH272450   0.202   1.884  16.840 -0.3414  0.1809 -0.0959
17012TIP3    H172451   0.283   1.879  16.891 -0.4137 -1.9013 -0.0854
17012TIP3    H272452   0.149   1.948  16.886  0.7057  0.4525  0.7868
17013TIP3   OH272453   0.118   1.849   0.329 -0.0346  0.1850  0.3413
17013TIP3    H172454   0.109   1.779   0.264  0.4430 -0.0347  0.5084
17013TIP3    H272455   0.203   1.888   0.310  0.7179 -0.7402  1.6562
17014TIP3   OH272456   0.534   4.954   5.301 -0.6566  0.4212 -0.6716
17014TIP3    H172457   0.438   4.961   5.307 -0.5856  1.4287 -0.5936
17014TIP3    H272458   0.565   5.044   5.313  0.3938 -0.1283  1.0807
17015TIP3   OH272459   6.519   3.405  17.203 -0.3546  0.1065 -0.1141
17015TIP3    H172460   6.491   3.490  17.236 -2.3580 -0.8067  0.7380
17015TIP3    H272461   6.542   3.420  17.112 -0.9634  1.4923 -0.0574
17016TIP3   OH272462   1.837   4.851   1.278 -0.3025 -0.3020  0.1785
17016TIP3    H172463   1.746   4.854   1.249 -0.7675 -3.0956  1.0148
17016TIP3    H272464   1.840   4.909   1.354 -1.1749  0.4043 -0.3060
17017TIP3   OH272465   3.459   3.621   3.530 -0.1782 -0.0163 -0.2261
17017TIP3    H172466   3.532   3.661   3.483  0.9250 -0.6444  0.8758
17017TIP3    H272467   3.447   3.677   3.607 -1.6728  0.7521 -0.9655
17018TIP3   OH272468   1.332   3.057   3.943  0.2076  0.4671  0.1983
17018TIP3    H172469   1.271   3.088   4.009  0.6761  0.0907  0.8245
17018TIP3    H272470   1.306   3.102   3.863 -0.5479  0.7124  0.5727
17019TIP3   OH272471   1.585   5.307  16.035  0.0022 -0.3638 -0.6140
17019TIP3    H172472   1.556   5.350  15.955  0.8522 -0.0106 -0.7455
17019TIP3    H272473   1.511   5.315  16.095  0.7907  3.1383  0.1025
17020TIP3   OH272474   3.272   5.223  14.330 -0.7725  0.0972  0.5071
17020TIP3    H172475   3.177   5.212  14.333 -0.7616 -0.2235 -0.1570
17020TIP3    H272476   3.285   5.316  14.314 -0.9593  0.2528  1.2306
17021TIP3   OH272477   1.997   2.441   5.675  0.5409 -0.0623  0.0204
17021TIP3    H172478   2.066   2.458   5.611  0.2557 -1.4637 -0.7068
17021TIP3    H272479   2.006   2.348   5.695 -0.2281  0.0665  1.0122
17022TIP3   OH272480   4.768   0.931   1.131 -0.9416  0.0797 -0.6870
17022TIP3    H172481   4.735   0.984   1.203  1.1372 -0.4150  0.7266
17022TIP3    H272482   4.853   0.971   1.109  0.0259 -1.7705 -0.5164
17023TIP3   OH272483   5.440   1.927  11.084 -0.2224 -0.4065 -0.0957
17023TIP3    H172484   5.475   1.872  11.013  0.8166 -1.2462  1.0304
17023TIP3    H272485   5.490   2.008  11.080  1.3568 -1.2853  0.9897
17024TIP3   OH272486   3.729   0.748  11.683  0.0738  0.0748  0.4585
17024TIP3    H172487   3.642   0.785  11.695 -1.7875 -2.3377 -3.4549
17024TIP3    H272488   3.766   0.798  11.609 -0.5011 -2.4459 -1.6712
17025TIP3   OH272489   4.482   3.359   2.982  0.7442  0.6106 -0.1920
17025TIP3    H172490   4.528   3.442   2.981  2.1488 -0.1182  0.9112
17025TIP3    H272491   4.550   3.292   2.977 -0.3634 -0.5061 -1.4377
17026TIP3   OH272492   4.386   0.593   3.583  0.7004 -0.2590  0.7325
17026TIP3    H172493   4.384   0.584   3.488 -1.5948  1.9608  0.4632
17026TIP3    H272494   4.399   0.687   3.598  0.0409 -0.4173  2.5649
17027TIP3   OH272495   0.596   4.897  12.977 -0.2341  0.0406 -0.4874
17027TIP3    H172496   0.619   4.937  12.892 -3.2222  2.1488 -0.4713
17027TIP3    H272497   0.519   4.844  12.958  0.7091 -1.7442  0.4772
17028TIP3   OH272498   3.619   5.576   0.675  0.2310  0.2525  0.0816
17028TIP3    H172499   3.558   5.609   0.609  0.3174  0.3867  0.0691
17028TIP3    H272500   3.637   5.651   0.732  0.8108  0.3633 -0.2393
17029TIP3   OH272501   4.986   0.537   1.624  0.2995 -0.2120 -0.1051
17029TIP3    H172502   4.923   0.472   1.594  0.4847 -0.7298  0.5994
17029TIP3    H272503   5.019   0.578   1.544 -0.6682 -0.1791 -0.4955
17030TIP3   OH272504   4.543   4.943   1.525 -0.1873 -0.2447  0.4095
17030TIP3    H172505   4.489   4.907   1.455  0.1788  0.9905 -0.5465
17030TIP3    H272506   4.483   4.997   1.577  0.0034  0.7598 -0.3837
17031TIP3   OH272507   0.836   1.749  15.650  0.3182 -0.3191  0.1728
17031TIP3    H172508   0.784   1.781  15.577 -2.3578 -1.8772  1.2418
17031TIP3    H272509   0.920   1.794  15.642 -0.5957  1.0894 -2.6237
17032TIP3   OH272510   2.638   0.162   2.035  0.0579 -0.2630  0.4535
17032TIP3    H172511   2.546   0.150   2.058  0.1725 -3.4809 -0.3382
17032TIP3    H272512   2.643   0.134   1.943  1.9167 -0.5200  0.6131
17033TIP3   OH272513   4.076   2.967   3.740 -0.1256 -0.0945 -0.2669
17033TIP3    H172514   4.111   3.006   3.819  1.4841 -0.1381 -0.9359
17033TIP3    H272515   4.071   3.039   3.677 -0.4861 -0.2629 -0.4400
17034TIP3   OH272516   6.326   2.425  17.201 -0.0635  0.3819  0.1156
17034TIP3    H172517   6.342   2.363  17.272  0.4214  0.6449  0.2469
17034TIP3    H272518   6.264   2.380  17.143 -0.7584  0.3135  0.8928
17035TIP3   OH272519   1.093   1.388   3.910 -0.4205 -0.1618  0.8730
17035TIP3    H172520   1.106   1.294   3.898 -0.6558 -0.5605  3.2410
17035TIP3    H272521   1.156   1.429   3.850 -0.6186 -1.7756 -0.5230
17036TIP3   OH272522   0.250   5.999   2.778 -0.6781 -0.8259 -0.8469
17036TIP3    H172523   0.282   6.050   2.853 -0.4312  0.0636 -1.5355
17036TIP3    H272524   0.257   6.059   2.704 -0.3865 -1.8778 -1.6913
17037TIP3   OH272525   3.861   1.942   1.893  0.4023 -0.3079 -0.4614
17037TIP3    H172526   3.796   1.878   1.923  0.5988 -0.2942  0.0019
17037TIP3    H272527   3.942   1.892   1.885  0.6176 -0.0639  0.1574
17038TIP3   OH272528   5.611   0.257   0.111 -0.3623  0.2636  0.1213
17038TIP3    H172529   5.552   0.332   0.102  1.0472  1.2640 -1.4614
17038TIP3    H272530   5.665   0.259   0.032  1.3344 -1.0055  1.1627
17039TIP3   OH272531   2.556   3.706  17.199 -0.0079 -0.2726 -0.2188
17039TIP3    H172532   2.642   3.668  17.178 -0.8969 -3.1440  0.8681
17039TIP3    H272533   2.561   3.723  17.293 -0.2862  0.5983 -0.3558
17040TIP3   OH272534   6.467   6.719   4.183 -0.1641 -0.0664  0.4481
17040TIP3    H172535   6.400   6.782   4.157  0.6960  0.0766 -1.6210
17040TIP3    H272536   6.550   6.768   4.175  0.2653 -0.1809  3.0912
17041TIP3   OH272537   3.042   3.972   3.694 -0.1783  0.4037 -0.7090
17041TIP3    H172538   3.005   4.059   3.676 -1.4438 -0.7198 -4.3791
17041TIP3    H272539   2.973   3.925   3.740 -0.8700  0.3444 -1.7646
17042TIP3   OH272540   5.080   4.997   1.931 -0.1039 -0.0598  0.1116
17042TIP3    H172541   5.166   4.984   1.970  0.0163  0.6712  0.1035
17042TIP3    H272542   5.095   4.989   1.837  0.0878  0.7723  0.0695
17043TIP3   OH272543   6.132   1.790  13.920 -0.0343  0.2842  0.3696
17043TIP3    H172544   6.223   1.817  13.918 -0.0636  0.3317 -0.9076
17043TIP3    H272545   6.112   1.762  13.831 -0.4252 -2.6014  1.2303
17044TIP3   OH272546   5.839   4.383  14.877 -0.3098 -0.0443 -0.1373
17044TIP3    H172547   5.805   4.472  14.877 -2.2535 -0.7220  0.5484
17044TIP3    H272548   5.883   4.374  14.962 -3.0666 -0.6934  1.3372
17045TIP3   OH272549   5.804   2.284  14.896  0.1839 -0.1472 -0.2732
17045TIP3    H172550   5.753   2.340  14.837  0.6800 -0.1181 -0.6834
17045TIP3    H272551   5.749   2.207  14.909 -0.5045  0.4163  0.2871
17046TIP3   OH272552   1.709   3.268  14.324 -0.0302  0.0461 -0.0998
17046TIP3    H172553   1.786   3.323  14.306 -0.0037  0.4864  1.2339
17046TIP3    H272554   1.746   3.182  14.344  0.0351 -0.0457 -0.6040
17047TIP3   OH272555   3.889   0.234   6.077 -0.2276 -0.0187 -0.4329
17047TIP3    H172556   3.922   0.256   6.164 -0.5198  0.6023 -0.4778
17047TIP3    H272557   3.808   0.285   6.068 -0.0020  0.2094 -1.2143
17048TIP3   OH272558   5.819   0.188   6.273  0.3714 -0.2029  0.2947
17048TIP3    H172559   5.748   0.214   6.332 -0.0243  0.6363 -0.5192
17048TIP3    H272560   5.881   0.261   6.277 -1.0119  1.2890 -2.4445
17049TIP3   OH272561   0.618   5.166  15.636  0.9757 -0.1109  0.2345
17049TIP3    H172562   0.648   5.118  15.713 -0.2765 -0.6729  0.4077
17049TIP3    H272563   0.684   5.148  15.569  1.3075 -0.8377  0.7470
17050TIP3   OH272564   1.670   4.121  12.395 -1.2953 -0.5200  0.6883
17050TIP3    H172565   1.713   4.204  12.373 -1.5707 -0.0899  1.7140
17050TIP3    H272566   1.592   4.119  12.340 -1.3952  0.0054  0.8038
17051TIP3   OH272567   3.356   6.479   2.732 -1.1339 -0.3450 -0.0239
17051TIP3    H172568   3.379   6.562   2.772  1.1379 -0.2277 -1.3936
17051TIP3    H272569   3.319   6.502   2.647 -0.6194 -0.7146 -0.3547
17052TIP3   OH272570   4.949   6.011   4.256 -0.1748  0.0780 -0.1123
17052TIP3    H172571   4.871   6.054   4.221 -0.3879 -0.4967 -0.3548
17052TIP3    H272572   4.925   5.983   4.344 -0.3141 -0.2799 -0.2616
17053TIP3   OH272573   5.250   5.110   5.961 -0.0401  0.3153 -0.2652
17053TIP3    H172574   5.311   5.115   5.888 -1.2251 -1.9844 -1.5271
17053TIP3    H272575   5.294   5.156   6.033  2.3700  0.2382 -1.5932
17054TIP3   OH272576   2.443   0.026  10.600 -0.2989  0.0524  0.6065
17054TIP3    H172577   2.443   0.078  10.680  1.4965 -0.4924  1.0022
17054TIP3    H272578   2.414   0.086  10.532  2.0919  1.7615  0.9574
17055TIP3   OH272579   1.310   3.086  15.846 -0.2995  0.3158  0.0805
17055TIP3    H172580   1.363   3.052  15.918 -1.1646 -0.8463  0.1969
17055TIP3    H272581   1.327   3.180  15.846  0.3922  0.2131  1.2314
17056TIP3   OH272582   6.696   0.452   3.236 -0.8594  0.5691 -0.6457
17056TIP3    H172583   6.668   0.464   3.145 -0.7377 -0.2908 -0.8008
17056TIP3    H272584   6.616   0.463   3.287 -0.7841  1.9171 -0.7681
17057TIP3   OH272585   3.260   0.193   4.443  0.0469  0.4571  0.2697
17057TIP3    H172586   3.245   0.207   4.350  3.3699  0.2908 -0.4065
17057TIP3    H272587   3.348   0.155   4.448 -0.5885 -0.9348  3.3948
17058TIP3   OH272588   0.514   1.826   5.652 -0.1124  0.6759  0.3727
17058TIP3    H172589   0.476   1.881   5.720 -1.7468 -0.6473  0.5847
17058TIP3    H272590   0.565   1.761   5.700 -1.0849 -0.1213  0.3665
17059TIP3   OH272591   2.368   2.779  12.047 -0.4281  0.5696  0.4033
17059TIP3    H172592   2.315   2.757  11.970 -0.3571 -0.6619  0.6827
17059TIP3    H272593   2.457   2.786  12.013 -0.2764 -0.7540  0.4779
17060TIP3   OH272594   0.967   5.572  14.251  0.4684  0.3268 -0.1363
17060TIP3    H172595   0.888   5.606  14.209  0.5783 -0.5917 -1.1122
17060TIP3    H272596   0.995   5.642  14.310 -1.8663  0.1393  1.3294
17061TIP3   OH272597   5.765   3.629  16.080  0.5173 -0.2859 -0.1987
17061TIP3    H172598   5.850   3.588  16.098 -0.1429 -0.9774  1.6539
17061TIP3    H272599   5.780   3.723  16.092  1.3488 -0.2483 -1.4123
17062TIP3   OH272600   0.481   5.164  13.348 -0.6073 -0.3916 -0.2774
17062TIP3    H172601   0.548   5.196  13.409 -0.7872 -0.8407  0.1574
17062TIP3    H272602   0.400   5.164  13.399 -0.6794 -1.1856 -0.3786
17063TIP3   OH272603   0.188   0.091  11.654 -0.3284  0.3471  0.3764
17063TIP3    H172604   0.224   0.012  11.694  1.9445  0.7602 -0.6602
17063TIP3    H272605   0.130   0.128  11.720 -0.6570 -1.6298  1.2690
17064TIP3   OH272606   3.148   0.368  10.710  0.2856  0.6998 -0.0023
17064TIP3    H172607   3.131   0.460  10.691 -0.7608  0.5461  0.1264
17064TIP3    H272608   3.062   0.327  10.708  0.6027 -0.0659  1.0443
17065TIP3   OH272609   2.433   6.759  15.146  0.3256  0.3815  0.0315
17065TIP3    H172610   2.346   6.790  15.120  0.4110  1.9997  1.4424
17065TIP3    H272611   2.442   6.674  15.104 -2.4439 -0.4090  0.8051
17066TIP3   OH272612   1.715   1.053   2.268 -0.5678 -0.2005  0.2549
17066TIP3    H172613   1.650   1.108   2.311 -2.4227 -2.3166  0.3242
17066TIP3    H272614   1.669   1.015   2.193  0.9295 -0.9011 -0.3561
17067TIP3   OH272615   6.129   2.515   0.107 -0.1561 -0.6807 -0.4604
17067TIP3    H172616   6.174   2.507   0.023 -1.2587  0.1492 -1.1700
17067TIP3    H272617   6.197   2.537   0.169  0.8459 -2.3195 -0.9268
17068TIP3   OH272618   1.173   2.292   5.654 -0.5275 -0.2325 -0.2182
17068TIP3    H172619   1.165   2.387   5.660 -0.1120 -0.2130  0.0506
17068TIP3    H272620   1.253   2.278   5.604 -1.3126 -0.4387 -1.4747
17069TIP3   OH272621   2.157   0.012  14.026 -0.1605  0.3455  0.1288
17069TIP3    H172622   2.129   0.089  13.976 -0.6166  0.3178  0.3395
17069TIP3    H272623   2.252   0.021  14.032 -0.1085  0.3899 -0.6790
17070TIP3   OH272624   0.368   5.167  17.166 -0.0747 -0.3523  0.0168
17070TIP3    H172625   0.343   5.247  17.121 -2.5123 -0.6252  0.7716
17070TIP3    H272626   0.444   5.192  17.219 -0.9042  1.5348  0.4009
17071TIP3   OH272627   0.822   2.095  15.634  0.2195  0.0941 -0.5563
17071TIP3    H172628   0.775   2.162  15.583  1.8343  0.6062 -1.4226
17071TIP3    H272629   0.860   2.037  15.568  3.2474  1.3609 -0.0889
17072TIP3   OH272630   0.310   1.496   3.803 -0.2961 -0.5980 -0.0678
17072TIP3    H172631   0.246   1.519   3.735 -0.2352  2.1406  0.6798
17072TIP3    H272632   0.259   1.495   3.884  0.2968  0.0260  0.3252
17073TIP3   OH272633   3.482   4.779   4.999 -0.1808  0.1197  0.1994
17073TIP3    H172634   3.493   4.688   4.968 -1.4273 -0.7302  2.1025
17073TIP3    H272635   3.465   4.771   5.092  0.3808  2.4018  0.5600
17074TIP3   OH272636   5.236   3.915   4.227  0.1746  0.1927 -0.1490
17074TIP3    H172637   5.247   3.841   4.168 -0.8732 -0.4519  0.4422
17074TIP3    H272638   5.249   3.879   4.315  2.2249  1.2450  0.0230
17075TIP3   OH272639   3.183   4.838  13.035 -0.0789 -0.1574  0.1065
17075TIP3    H172640   3.239   4.888  13.094 -1.2919 -0.2383  1.3807
17075TIP3    H272641   3.221   4.751  13.033 -0.3131 -0.3020  1.2187
17076TIP3   OH272642   0.613   2.552  16.533  0.4691  0.2956  0.2421
17076TIP3    H172643   0.526   2.533  16.498  1.5300 -0.3212 -2.2717
17076TIP3    H272644   0.617   2.647  16.537 -0.5044  0.3265  1.0046
17077TIP3   OH272645   4.343   4.594  16.014  0.5352 -0.3483 -0.1944
17077TIP3    H172646   4.410   4.649  16.055  1.0277 -0.1126 -1.2792
17077TIP3    H272647   4.388   4.511  15.995  0.0284 -0.8318  0.6617
17078TIP3   OH272648   3.779   2.592   4.632  0.3966  0.2094  0.0993
17078TIP3    H172649   3.701   2.577   4.685 -0.0604  0.0734 -0.5946
17078TIP3    H272650   3.762   2.544   4.551  1.7080 -0.8008  0.3900
17079TIP3   OH272651   6.046   2.290  14.744  0.2071  0.2286  0.0265
17079TIP3    H172652   6.080   2.203  14.767  1.1832  0.4234 -0.5785
17079TIP3    H272653   5.966   2.299  14.795  0.5935 -0.6415  0.8198
17080TIP3   OH272654   4.422   4.314   2.766  0.3012  0.7623  0.3919
17080TIP3    H172655   4.439   4.300   2.672  1.3857  2.0747  0.3592
17080TIP3    H272656   4.501   4.284   2.809 -0.3531 -0.2079  0.9429
17081TIP3   OH272657   4.027   5.272   0.501  0.2505  0.5583 -0.0820
17081TIP3    H172658   4.035   5.338   0.571 -2.1163  1.7924 -0.8877
17081TIP3    H272659   3.964   5.208   0.536 -0.4335  0.8279 -0.8080
17082TIP3   OH272660   1.475   6.000   0.926 -0.0197 -0.0305 -0.0384
17082TIP3    H172661   1.448   6.079   0.879 -0.2677  0.4987  0.9698
17082TIP3    H272662   1.564   6.019   0.955 -0.7156  0.6888  1.8269
17083TIP3   OH272663   3.342   5.606  16.901  0.0369 -0.1416 -0.2432
17083TIP3    H172664   3.247   5.599  16.913 -0.0958 -1.3926 -1.7167
17083TIP3    H272665   3.379   5.562  16.977 -0.5754 -0.4652 -0.1278
17084TIP3   OH272666   5.137   0.753   3.425 -0.2747  0.3829  0.1946
17084TIP3    H172667   5.221   0.723   3.391 -0.2092  1.7664 -0.9417
17084TIP3    H272668   5.073   0.693   3.385 -0.1344  1.5506 -1.9179
17085TIP3   OH272669   4.765   5.795   1.376  0.0463 -0.1015  0.1819
17085TIP3    H172670   4.755   5.704   1.347  1.7787  0.0054 -0.9350
17085TIP3    H272671   4.737   5.847   1.301  0.8308  0.2470  0.1239
17086TIP3   OH272672   4.461   6.114   1.539  0.0891  0.4189  0.3882
17086TIP3    H172673   4.522   6.111   1.466  2.1677  2.1497  1.8993
17086TIP3    H272674   4.462   6.205   1.567 -0.1986 -0.2440  2.8373
17087TIP3   OH272675   2.581   0.044  14.807  0.0298  0.0753  0.5307
17087TIP3    H172676   2.641   0.119  14.801 -0.5447  0.7557  2.3263
17087TIP3    H272677   2.499   0.082  14.841 -0.8583 -1.1062 -0.2114
17088TIP3   OH272678   1.707   3.445  11.954 -0.2993 -0.3776 -0.3816
17088TIP3    H172679   1.748   3.364  11.983 -1.0214 -1.3444 -1.9198
17088TIP3    H272680   1.707   3.502  12.031 -0.5535 -2.1562  0.9767
17089TIP3   OH272681   4.459   0.236  10.784 -0.2663 -0.0976 -0.3367
17089TIP3    H172682   4.377   0.260  10.829  0.7087 -0.1231  1.5619
17089TIP3    H272683   4.507   0.318  10.778 -0.4100 -0.0883 -1.4327
17090TIP3   OH272684   0.589   2.551   1.496  0.5994 -0.5537  0.0341
17090TIP3    H172685   0.592   2.492   1.571 -0.4376 -1.0073 -0.2542
17090TIP3    H272686   0.503   2.536   1.457 -0.0470  1.7243  0.4071
17091TIP3   OH272687   1.371   0.040   5.655 -0.3916 -0.1158 -0.6213
17091TIP3    H172688   1.355   0.022   5.563 -0.6594 -0.6323 -0.4749
17091TIP3    H272689   1.314   0.114   5.676 -1.5724 -1.0391 -0.4600
17092TIP3   OH272690   4.487   0.567  13.954 -0.4596  0.1062  0.5861
17092TIP3    H172691   4.501   0.479  13.918 -2.6278  0.3097 -0.9071
17092TIP3    H272692   4.568   0.614  13.934  0.3108 -1.2304  0.4514
17093TIP3   OH272693   2.050   0.792   5.095 -0.1531 -0.1151 -0.5614
17093TIP3    H172694   2.138   0.772   5.127 -0.8106  0.7947  2.0347
17093TIP3    H272695   2.019   0.711   5.056  0.2756 -1.7912  2.3358
17094TIP3   OH272696   3.002   2.719  14.448  0.0136  0.5396  0.6137
17094TIP3    H172697   3.079   2.668  14.422  1.0411  2.0307  0.6039
17094TIP3    H272698   2.970   2.676  14.528  0.8289 -0.1313  0.5858
17095TIP3   OH272699   4.025   4.196  11.134 -0.5524  0.3109 -0.4382
17095TIP3    H172700   3.962   4.140  11.088  0.2009 -0.2807 -0.7712
17095TIP3    H272701   3.972   4.265  11.173 -1.8269 -1.7187  1.7261
17096TIP3   OH272702   1.572   1.693  12.025  0.4987  0.0948 -0.4261
17096TIP3    H172703   1.625   1.710  11.947 -0.1409 -0.7597 -1.0634
17096TIP3    H272704   1.485   1.727  12.003  0.4724  0.4293  0.1674
17097TIP3   OH272705   1.910   2.092   4.285 -0.3598  0.0118  0.7180
17097TIP3    H172706   1.930   2.185   4.289 -1.2728  0.1866  2.4735
17097TIP3    H272707   1.968   2.057   4.217  0.2355  1.7853  0.2692
17098TIP3   OH272708   4.976   5.946  13.653 -0.2889 -0.2742  0.0454
17098TIP3    H172709   4.972   6.007  13.726  0.3273 -0.3814  0.1806
17098TIP3    H272710   4.979   6.001  13.575 -1.5659 -0.1647  0.0484
17099TIP3   OH272711   4.825   4.105   4.692  0.0247 -0.4516  0.1098
17099TIP3    H172712   4.872   4.121   4.610 -0.3249 -1.9919 -0.4257
17099TIP3    H272713   4.771   4.183   4.704  1.3604  0.5573 -0.2024
17100TIP3   OH272714   0.450   5.779   3.083  0.2963  0.6925 -0.3996
17100TIP3    H172715   0.420   5.827   3.160  1.7036  0.2141  0.4972
17100TIP3    H272716   0.476   5.694   3.118 -1.4638 -0.4975 -1.8383
17101TIP3   OH272717   1.247   3.308   3.359 -0.0548  0.0507 -0.1114
17101TIP3    H172718   1.336   3.282   3.380 -0.2615 -2.0410 -1.4894
17101TIP3    H272719   1.208   3.231   3.318 -2.0832  1.3171 -0.7590
17102TIP3   OH272720   3.237   4.661   5.901 -0.0362 -0.0673 -0.1456
17102TIP3    H172721   3.265   4.610   5.977  0.6849  0.5625  0.0133
17102TIP3    H272722   3.303   4.643   5.834 -0.3942 -0.2166 -0.4662
17103TIP3   OH272723   0.254   3.451   3.226 -0.1507 -0.0263 -0.5562
17103TIP3    H172724   0.332   3.416   3.268  0.4485  0.9508 -0.8343
17103TIP3    H272725   0.211   3.375   3.188  0.4734 -0.6215 -0.0906
17104TIP3   OH272726   2.521   6.304   4.155  0.0545 -0.1994  0.3234
17104TIP3    H172727   2.502   6.397   4.165  0.7335  0.3697 -2.7629
17104TIP3    H272728   2.441   6.268   4.114 -0.0980 -0.9353  1.2404
17105TIP3   OH272729   5.413   3.223   1.332 -0.1353 -0.6246  0.2426
17105TIP3    H172730   5.423   3.307   1.287 -0.6729  1.2277  3.2959
17105TIP3    H272731   5.449   3.159   1.271 -0.1364  1.7200 -2.4358
17106TIP3   OH272732   0.290   0.255  15.124 -0.5052 -0.2555  0.4831
17106TIP3    H172733   0.301   0.245  15.030  1.8359  1.1866  0.5115
17106TIP3    H272734   0.279   0.165  15.157 -1.6870 -0.7531 -1.1500
17107TIP3   OH272735   6.700   4.669  13.310 -0.0917  0.6627 -0.1057
17107TIP3    H172736   6.748   4.712  13.239 -0.0624  2.0915  0.7492
17107TIP3    H272737   6.629   4.729  13.332  0.2895  0.5785  1.5230
17108TIP3   OH272738   5.772   5.693  13.683  0.1084  0.1244  0.3603
17108TIP3    H172739   5.796   5.756  13.751  0.5473 -0.5520  0.8511
17108TIP3    H272740   5.843   5.629  13.684 -0.9941 -1.1469  0.8607
17109TIP3   OH272741   1.061   0.540  13.331  0.3169 -0.3650 -0.1055
17109TIP3    H172742   1.048   0.449  13.359 -0.6870  0.2525  1.6012
17109TIP3    H272743   1.110   0.580  13.403 -2.2166  1.2691  0.8446
17110TIP3   OH272744   5.653   4.539  14.663  0.1585  0.1791 -0.1468
17110TIP3    H172745   5.641   4.545  14.758  1.6999  0.1699  0.0753
17110TIP3    H272746   5.575   4.580  14.626 -0.7456 -0.3532  1.1084
17111TIP3   OH272747   2.578   4.735  10.747 -0.3715  0.3560  0.2618
17111TIP3    H172748   2.657   4.789  10.738 -0.6217  0.4683 -1.7211
17111TIP3    H272749   2.599   4.654  10.701 -0.3578 -0.9236  2.3727
17112TIP3   OH272750   1.119   1.124  11.644 -0.1917  0.8611  0.5794
17112TIP3    H172751   1.079   1.048  11.685  1.9000 -0.5401  0.1389
17112TIP3    H272752   1.189   1.150  11.703 -0.7760  2.4153  0.6622
17113TIP3   OH272753   1.231   6.472  13.951  0.1016  0.4261 -0.0579
17113TIP3    H172754   1.319   6.455  13.982 -0.1819 -0.8746  0.0846
17113TIP3    H272755   1.238   6.472  13.856  0.1067 -0.6870 -0.0754
17114TIP3   OH272756   1.264   6.529   3.300 -0.2256  0.1510  0.1970
17114TIP3    H172757   1.336   6.470   3.323 -0.3845  0.1532  0.6948
17114TIP3    H272758   1.220   6.484   3.228  0.2336  0.1195 -0.0740
17115TIP3   OH272759   3.095   4.017  11.935  0.6698  0.1140 -0.5829
17115TIP3    H172760   3.096   4.105  11.896  1.5309 -0.0055 -0.8478
17115TIP3    H272761   3.049   4.029  12.018 -0.6179  0.5023 -1.3096
17116TIP3   OH272762   5.329   1.458  11.478  0.0012 -0.2554 -0.2660
17116TIP3    H172763   5.299   1.549  11.478 -0.1297 -0.2653  1.3226
17116TIP3    H272764   5.412   1.460  11.431 -1.1232  0.2377 -2.3952
17117TIP3   OH272765   1.618   5.362  12.520  0.7930  0.1169  0.5806
17117TIP3    H172766   1.656   5.438  12.564  0.8929  0.2295  0.3064
17117TIP3    H272767   1.675   5.289  12.543 -0.4472 -0.3159  2.5437
17118TIP3   OH272768   0.803   6.461  11.786 -0.0694 -0.0308 -0.0676
17118TIP3    H172769   0.801   6.494  11.876  0.3826  1.6993 -0.6510
17118TIP3    H272770   0.751   6.524  11.737 -0.6753 -1.1978 -0.9629
17119TIP3   OH272771   1.693   5.317   0.188 -0.3414  0.0793 -0.2396
17119TIP3    H172772   1.748   5.387   0.223 -1.0359  0.6211 -0.2178
17119TIP3    H272773   1.712   5.318   0.094 -1.4954  1.3571 -0.4902
17120TIP3   OH272774   4.705   5.839   0.038  0.0043  0.2366 -0.2930
17120TIP3    H172775   4.706   5.774  -0.033 -1.0545 -0.1698  0.0477
17120TIP3    H272776   4.628   5.893   0.020 -0.3395  0.0585  0.6023
17121TIP3   OH272777   3.913   2.961  13.341  0.1639 -0.1635  0.0112
17121TIP3    H172778   3.992   2.984  13.293  0.1562  0.6309  0.3629
17121TIP3    H272779   3.860   3.040  13.341 -0.4366 -0.5536  0.1623
17122TIP3   OH272780   5.945   6.197   2.897 -0.0973 -0.2317 -0.4195
17122TIP3    H172781   5.855   6.180   2.924 -0.9065 -1.3494 -3.4021
17122TIP3    H272782   5.999   6.162   2.968 -1.9574  0.4435  1.4356
17123TIP3   OH272783   5.964   5.002  12.787 -0.3844  0.5883  0.2235
17123TIP3    H172784   5.936   5.093  12.789  2.3092  1.5098  1.2111
17123TIP3    H272785   6.058   5.006  12.806 -0.5285 -2.5559  2.2071
17124TIP3   OH272786   0.747   5.432   5.148  0.3431 -0.1670  0.3513
17124TIP3    H172787   0.715   5.450   5.236 -0.4006 -1.2245  0.3104
17124TIP3    H272788   0.669   5.410   5.098  0.8814 -0.5981 -0.3105
17125TIP3   OH272789   0.824   1.790  12.311 -0.2808  0.1611 -0.0654
17125TIP3    H172790   0.894   1.816  12.250  0.0064 -0.1328  0.1352
17125TIP3    H272791   0.755   1.755  12.254  0.8268 -2.1223 -0.1479
17126TIP3   OH272792   2.799   5.564   5.521 -0.2434 -0.5663 -0.2169
17126TIP3    H172793   2.787   5.470   5.505 -1.3183 -0.3401 -0.8615
17126TIP3    H272794   2.849   5.595   5.446 -0.6114 -0.4836 -0.4329
17127TIP3   OH272795   2.141   6.571  11.818 -0.0100 -0.2646 -0.4578
17127TIP3    H172796   2.152   6.655  11.774 -1.5510  0.2391  0.0389
17127TIP3    H272797   2.135   6.594  11.911 -0.2063 -0.9444 -0.2974
17128TIP3   OH272798   2.240   1.600  17.184 -0.2322 -0.1411 -0.3848
17128TIP3    H172799   2.208   1.514  17.210  2.4825 -1.3079 -0.6298
17128TIP3    H272800   2.252   1.647  17.266 -1.4837 -0.0448 -0.2381
17129TIP3   OH272801   2.334   5.315  16.844  0.3026  0.1772 -0.2798
17129TIP3    H172802   2.313   5.373  16.771  1.2913  1.2779  0.2894
17129TIP3    H272803   2.331   5.227  16.806  1.2758  0.7536 -1.7795
17130TIP3   OH272804   2.689   3.630  13.572 -0.0962  0.4530  0.2905
17130TIP3    H172805   2.621   3.648  13.508 -0.0049 -0.0618  0.0392
17130TIP3    H272806   2.693   3.709  13.626 -0.4230  0.7495 -0.1093
17131TIP3   OH272807   4.520   2.672   0.782 -0.1671  0.0159  0.2247
17131TIP3    H172808   4.605   2.629   0.789 -0.7620 -1.2997 -0.3730
17131TIP3    H272809   4.542   2.764   0.768  1.1395  0.3163  3.2490
17132TIP3   OH272810   6.525   1.533  14.059 -0.1978 -0.3996 -0.3264
17132TIP3    H172811   6.574   1.571  14.131 -0.4198 -0.3881 -0.1819
17132TIP3    H272812   6.499   1.608  14.005  0.4718 -0.4534 -0.7405
17133TIP3   OH272813   1.185   1.556   4.473 -0.1279  0.0277 -0.5878
17133TIP3    H172814   1.139   1.582   4.394 -0.4111  0.2982 -0.3336
17133TIP3    H272815   1.117   1.545   4.539 -0.1247 -2.1673 -0.8787
17134TIP3   OH272816   0.426   2.459  15.127 -0.0604 -0.6061  0.0718
17134TIP3    H172817   0.424   2.531  15.065 -0.7453  0.5192  1.3540
17134TIP3    H272818   0.515   2.424  15.121  0.6863  1.1468  0.2895
17135TIP3   OH272819   1.652   6.032   6.189 -0.4321 -0.0297  0.1939
17135TIP3    H172820   1.736   5.985   6.180  0.2312  0.7609  1.8212
17135TIP3    H272821   1.625   6.014   6.279 -2.6205 -1.1529 -0.6169
17136TIP3   OH272822   2.540   2.065  16.417  0.4442  0.8043  0.0518
17136TIP3    H172823   2.464   2.076  16.475  0.0613 -0.1235 -0.2533
17136TIP3    H272824   2.565   2.154  16.392 -1.9404  1.0895 -1.6432
17137TIP3   OH272825   1.573   3.634  16.529  0.6533  0.5068  0.5411
17137TIP3    H172826   1.479   3.624  16.541  0.8237 -1.1830  0.6445
17137TIP3    H272827   1.590   3.726  16.550 -0.7676  0.5097  1.8564
17138TIP3   OH272828   0.824   0.563  14.366  0.0188  0.0647 -0.2259
17138TIP3    H172829   0.879   0.581  14.290  0.4349 -0.6260 -0.0933
17138TIP3    H272830   0.753   0.509  14.332  0.2141 -0.2584 -0.1275
17139TIP3   OH272831   1.773   4.834   6.774 -0.0092  0.2338  0.2175
17139TIP3    H172832   1.686   4.838   6.813  0.7219  2.8167  1.8115
17139TIP3    H272833   1.801   4.925   6.765  3.0955 -0.4825  1.1275
17140TIP3   OH272834   0.678   2.324  13.318  0.3925 -0.2761  0.5357
17140TIP3    H172835   0.620   2.269  13.266 -1.3428  0.7646  1.2868
17140TIP3    H272836   0.697   2.273  13.396 -0.2161 -0.2827  0.6767
17141TIP3   OH272837   5.518   4.986   3.448  0.3567 -0.3518  0.0324
17141TIP3    H172838   5.482   5.035   3.374 -0.4851 -0.0108  0.6476
17141TIP3    H272839   5.461   5.008   3.522  0.5065 -1.5473  0.5393
17142TIP3   OH272840   0.438   3.028  11.688  0.3804  0.6290 -0.5667
17142TIP3    H172841   0.519   2.992  11.724 -0.3943 -1.9321 -1.2007
17142TIP3    H272842   0.467   3.092  11.624  1.8717  0.6027  0.0411
17143TIP3   OH272843   2.397   2.882   2.385 -0.5380 -0.3903  0.2660
17143TIP3    H172844   2.487   2.864   2.412 -0.1595  0.7332 -0.1871
17143TIP3    H272845   2.348   2.884   2.467  0.1171  0.3652  0.6569
17144TIP3   OH272846   1.480   5.182   1.936  0.1836  0.0253  0.3211
17144TIP3    H172847   1.480   5.088   1.953  0.8401 -0.0402 -0.0227
17144TIP3    H272848   1.397   5.198   1.890 -0.5725 -0.1500  1.5642
17145TIP3   OH272849   4.757   0.615   1.833  0.1779  0.3408 -0.3776
17145TIP3    H172850   4.704   0.672   1.778 -0.9572 -0.5573 -0.2440
17145TIP3    H272851   4.765   0.534   1.783  0.7219  0.1735 -0.0245
17146TIP3   OH272852   6.557   2.524   6.477 -0.2157  0.3471  0.8306
17146TIP3    H172853   6.644   2.486   6.466 -0.8075 -0.8803  0.2039
17146TIP3    H272854   6.573   2.617   6.491  1.1402  0.3454 -0.4731
17147TIP3   OH272855   0.084   6.516   4.065  0.2710 -0.3350  0.5917
17147TIP3    H172856  -0.002   6.515   4.025  1.0594 -0.8189 -1.2051
17147TIP3    H272857   0.134   6.580   4.014  0.9929 -0.0551  1.6010
17148TIP3   OH272858   3.787   5.849   2.732  0.3228  0.3578 -0.2935
17148TIP3    H172859   3.853   5.792   2.692 -1.7004 -0.6454 -2.4132
17148TIP3    H272860   3.732   5.789   2.783  0.9410  1.1858  1.4630
17149TIP3   OH272861   6.242   5.032  14.624  0.5003  0.3843  0.0007
17149TIP3    H172862   6.267   5.119  14.655  0.5058  1.3431 -2.4545
17149TIP3    H272863   6.147   5.028  14.634  0.6281  0.1779  1.2273
17150TIP3   OH272864   6.511   1.151   4.522  0.2166  0.0068  0.6940
17150TIP3    H172865   6.423   1.137   4.486  0.4944  0.2622 -0.1032
17150TIP3    H272866   6.503   1.232   4.573  0.2622  0.6965 -0.3583
17151TIP3   OH272867   5.115   2.518   0.473  0.0900  0.5192  0.1696
17151TIP3    H172868   5.097   2.549   0.384  0.6026 -2.8796 -1.2808
17151TIP3    H272869   5.184   2.576   0.505  2.5417 -0.3096 -3.1302
17152TIP3   OH272870   6.569   1.886   1.109 -0.3114  0.3822 -0.4242
17152TIP3    H172871   6.599   1.796   1.104  2.2946  1.1509 -0.3353
17152TIP3    H272872   6.520   1.900   1.028  1.7399 -0.3544 -1.8710
17153TIP3   OH272873   2.129   5.356   2.842  0.3841  0.2292  0.0914
17153TIP3    H172874   2.181   5.279   2.819  0.1853  0.2385 -0.4138
17153TIP3    H272875   2.180   5.400   2.910  0.9763  0.1738 -0.3063
17154TIP3   OH272876   4.373   5.373  12.781  0.1375  0.0683 -0.1217
17154TIP3    H172877   4.349   5.280  12.772  1.4677 -0.3030 -0.0938
17154TIP3    H272878   4.466   5.375  12.761 -0.3897  1.8591 -2.8800
17155TIP3   OH272879   3.385   6.771   2.088  0.1977 -0.2707 -0.2288
17155TIP3    H172880   3.354   6.682   2.072  0.6498 -0.1576 -1.9534
17155TIP3    H272881   3.321   6.827   2.044 -0.0260  0.2639  0.7533
17156TIP3   OH272882   3.935   6.621   5.422  0.0040 -0.4461  0.2040
17156TIP3    H172883   3.852   6.577   5.403 -0.6521  0.0144  1.8353
17156TIP3    H272884   3.911   6.714   5.430  0.7114 -0.2849  0.4998
17157TIP3   OH272885   5.039   4.277   2.721  0.1683  0.3537 -0.1418
17157TIP3    H172886   4.965   4.330   2.694  0.1510  0.2953 -0.2100
17157TIP3    H272887   5.000   4.203   2.767  0.0744 -0.5136 -1.5465
17158TIP3   OH272888   5.752   4.729  12.138 -0.2225  0.3845  0.2542
17158TIP3    H172889   5.793   4.679  12.209 -0.2246 -1.0141 -0.6928
17158TIP3    H272890   5.674   4.679  12.115 -0.0844  0.6603 -0.8901
17159TIP3   OH272891   5.651   2.752  12.873  0.4072 -0.2452  0.5246
17159TIP3    H172892   5.616   2.826  12.823 -1.2108 -1.2654  0.0681
17159TIP3    H272893   5.696   2.793  12.947  1.1669  1.2298 -0.7039
17160TIP3   OH272894   6.250   1.869   5.244  0.0613  0.0841 -0.3815
17160TIP3    H172895   6.272   1.945   5.297 -2.2617  0.6098 -0.0815
17160TIP3    H272896   6.289   1.795   5.291  0.1517  0.8153  0.7168
17161TIP3   OH272897   0.695   6.419  12.994 -0.0342  0.3696  0.0076
17161TIP3    H172898   0.658   6.354  12.935 -0.6527  0.0887  0.6857
17161TIP3    H272899   0.649   6.500  12.973 -0.2967  0.2558  0.1338
17162TIP3   OH272900   0.655   1.584   1.809 -0.6866  0.7781  0.4809
17162TIP3    H172901   0.606   1.665   1.823 -0.2525  0.9150  1.3071
17162TIP3    H272902   0.612   1.520   1.866 -1.0824  0.4002 -0.2350
17163TIP3   OH272903   5.059   4.336   5.144  0.2304 -0.2893 -0.4927
17163TIP3    H172904   4.997   4.289   5.088  0.0296  0.0649 -0.5669
17163TIP3    H272905   5.059   4.426   5.111 -0.2554  0.0443  0.3695
17164TIP3   OH272906   4.640   5.454   4.689  0.4881  0.2751 -0.3231
17164TIP3    H172907   4.683   5.447   4.604 -1.8094  0.6199 -1.5959
17164TIP3    H272908   4.574   5.522   4.678 -1.3732 -1.1689  1.0150
17165TIP3   OH272909   0.044   5.562   3.401  0.2838  0.7513  0.3336
17165TIP3    H172910   0.043   5.626   3.329  0.4773  0.6224  0.2153
17165TIP3    H272911   0.103   5.599   3.466  0.4146  0.6800  0.2545
17166TIP3   OH272912   6.435   1.656   0.784  0.2937 -0.0035  0.5335
17166TIP3    H172913   6.369   1.725   0.783 -0.4592 -0.6774  1.6630
17166TIP3    H272914   6.399   1.588   0.727  0.2834 -0.1359  0.6991
17167TIP3   OH272915   0.125   0.312   2.651 -0.0773 -0.3413  0.5662
17167TIP3    H172916   0.147   0.257   2.727  1.6724  0.0980  0.4191
17167TIP3    H272917   0.165   0.266   2.577  1.3469  1.0465  0.4320
17168TIP3   OH272918   3.166   0.979   0.610 -0.0598 -0.0478 -0.4306
17168TIP3    H172919   3.254   0.978   0.572 -0.1769 -0.3217 -0.7020
17168TIP3    H272920   3.176   0.932   0.694  0.6780  2.5053  1.0191
17169TIP3   OH272921   6.238   6.211  13.590  0.4480 -0.4124  0.0017
17169TIP3    H172922   6.317   6.237  13.544  0.3631 -0.0107  0.0817
17169TIP3    H272923   6.189   6.159  13.526 -0.2516  1.1628 -0.7905
17170TIP3   OH272924   1.521   3.240   3.418  0.4282 -0.2562 -0.0769
17170TIP3    H172925   1.531   3.171   3.483  0.0763 -0.3802 -0.1498
17170TIP3    H272926   1.534   3.196   3.334 -0.7325 -0.4448 -0.1818
17171TIP3   OH272927   0.769   5.791  13.665  0.3453  0.4842 -0.6379
17171TIP3    H172928   0.860   5.764  13.667  0.0703 -0.4549  0.2016
17171TIP3    H272929   0.719   5.709  13.669 -0.5203  1.0416  1.0848
17172TIP3   OH272930   2.357   5.599   1.578  0.1950 -0.2486  0.2341
17172TIP3    H172931   2.400   5.514   1.581  0.0585 -0.2898  3.1676
17172TIP3    H272932   2.263   5.579   1.582  0.1629  0.0259  0.9263
17173TIP3   OH272933   2.433   5.284  12.990  0.1663 -0.1482  0.8381
17173TIP3    H172934   2.390   5.222  12.931  0.4338 -0.3858  0.8912
17173TIP3    H272935   2.405   5.256  13.078  1.9499 -1.5190  1.0216
17174TIP3   OH272936   5.608   5.438   1.245 -0.4709  0.3001 -0.7286
17174TIP3    H172937   5.685   5.418   1.298  0.2159 -1.1019 -2.1873
17174TIP3    H272938   5.560   5.504   1.296  0.1604 -0.9427  1.6118
17175TIP3   OH272939   2.572   5.643  17.163  0.6527 -0.3596  0.0307
17175TIP3    H172940   2.529   5.662  17.080  0.5166 -0.5692  0.0523
17175TIP3    H272941   2.568   5.548  17.171  0.2263 -0.3042  0.5120
17176TIP3   OH272942   6.080   1.973   0.064 -0.1604  0.0016  0.0437
17176TIP3    H172943   6.095   1.996   0.156  1.1485 -1.0859  0.1225
17176TIP3    H272944   6.026   2.045   0.030 -1.2523  0.0904  1.8187
17177TIP3   OH272945   1.432   4.620  14.922 -0.5639 -0.2597 -0.1211
17177TIP3    H172946   1.387   4.555  14.868 -1.8699 -0.8015  1.5376
17177TIP3    H272947   1.428   4.585  15.011 -0.1505  1.4891  0.6362
17178TIP3   OH272948   4.174   1.286   0.158  0.7492 -0.0501 -0.0670
17178TIP3    H172949   4.179   1.199   0.197 -0.4076  0.8461  2.3270
17178TIP3    H272950   4.143   1.342   0.230  3.9276  2.8589 -0.7195
17179TIP3   OH272951   0.743   4.081  10.237 -0.1659  0.2412 -0.1979
17179TIP3    H172952   0.655   4.056  10.209 -0.0683 -0.1027 -0.2044
17179TIP3    H272953   0.763   4.024  10.311  0.8762 -1.2126 -1.5159
17180TIP3   OH272954   4.165   6.400   0.472 -0.4180  0.0631  0.0799
17180TIP3    H172955   4.214   6.467   0.425 -0.5716 -1.3153 -2.1747
17180TIP3    H272956   4.226   6.327   0.480 -1.3474 -0.8194 -0.6853
17181TIP3   OH272957   5.652   1.688  16.462  0.1295  0.3279 -0.2231
17181TIP3    H172958   5.656   1.622  16.393 -0.5337 -0.6525  0.6412
17181TIP3    H272959   5.600   1.647  16.532  0.1702  1.5560  0.5663
17182TIP3   OH272960   4.834   2.042   3.073  0.2134 -0.4245  0.0659
17182TIP3    H172961   4.913   2.053   3.020 -0.6790 -1.0125 -1.4396
17182TIP3    H272962   4.866   2.020   3.160  1.7476  1.3578  0.0004
17183TIP3   OH272963   1.144   0.816  16.844 -0.0905  1.0079  0.0446
17183TIP3    H172964   1.128   0.800  16.937  0.8611 -0.3101  0.0174
17183TIP3    H272965   1.221   0.762  16.823 -0.6295  0.8178 -1.6237
17184TIP3   OH272966   5.152   3.549  16.402 -0.2830 -0.4958 -0.0688
17184TIP3    H172967   5.158   3.604  16.481 -0.6025 -2.7218  1.5966
17184TIP3    H272968   5.067   3.572  16.364  1.0618  2.6741 -1.5069
17185TIP3   OH272969   4.732   6.239  14.199 -0.6463  0.7550  0.2156
17185TIP3    H172970   4.735   6.334  14.185  0.9200  0.5012 -1.5283
17185TIP3    H272971   4.760   6.227  14.289  0.5102  1.8976  0.0437
17186TIP3   OH272972   6.045   1.690  14.217 -0.1459 -0.2768  1.0129
17186TIP3    H172973   5.999   1.743  14.282 -0.3771 -1.3451  1.7300
17186TIP3    H272974   6.138   1.706  14.234 -0.2125  0.3223  0.8540
17187TIP3   OH272975   5.125   4.182  10.949  0.2082 -0.4551  0.1430
17187TIP3    H172976   5.207   4.225  10.971  0.8437 -0.6860 -1.6198
17187TIP3    H272977   5.122   4.184  10.853 -0.9997 -1.9860  0.1136
17188TIP3   OH272978   5.624   5.909  15.994 -0.2412  0.2140 -0.0274
17188TIP3    H172979   5.555   5.975  15.997 -0.0978  0.3825 -0.3323
17188TIP3    H272980   5.578   5.826  16.007 -0.4528  0.3551  0.1346
17189TIP3   OH272981   6.341   1.339  13.122  0.0042 -0.4245 -0.4374
17189TIP3    H172982   6.263   1.284  13.115  0.7563 -1.5630 -0.2584
17189TIP3    H272983   6.378   1.339  13.034 -0.5241  0.6496 -0.6754
17190TIP3   OH272984   4.609   6.207   1.294  0.4360 -0.2677  0.5479
17190TIP3    H172985   4.601   6.247   1.207 -0.3577 -0.9901  0.2803
17190TIP3    H272986   4.701   6.222   1.318  1.1136 -1.4447 -1.1100
17191TIP3   OH272987   0.979   2.165   4.478 -0.1701 -0.4267  0.1747
17191TIP3    H172988   0.899   2.163   4.530 -0.8994 -0.2962 -0.9229
17191TIP3    H272989   0.955   2.212   4.398  0.8213 -0.9695 -0.4605
17192TIP3   OH272990   2.621   4.043   0.704 -0.0033 -0.1477  0.2275
17192TIP3    H172991   2.623   4.065   0.611 -1.2541  0.0244  0.2386
17192TIP3    H272992   2.587   4.121   0.748  0.7516 -0.1598  0.8609
17193TIP3   OH272993   6.180   6.045   1.730 -0.0232 -0.8479 -0.2136
17193TIP3    H172994   6.090   6.041   1.698  0.0376 -1.3146 -0.3360
17193TIP3    H272995   6.173   6.084   1.817 -0.3264 -0.7182 -0.2961
17194TIP3   OH272996   0.300   1.218  14.443 -0.4072  0.0416  0.1309
17194TIP3    H172997   0.368   1.246  14.382 -0.5751  0.8100  0.2830
17194TIP3    H272998   0.240   1.164  14.391 -0.2122  0.1757 -0.2300
17195TIP3   OH272999   1.939   3.170  11.600 -0.0963 -0.3203  0.7280
17195TIP3    H173000   1.878   3.176  11.674 -0.1443 -0.2089  0.6807
17195TIP3    H273001   2.018   3.214  11.630 -0.6122  1.0401  0.2157
17196TIP3   OH273002   3.766   3.524  16.745  0.4598 -0.0740  0.1452
17196TIP3    H173003   3.676   3.490  16.744  0.6079 -0.5591  1.4019
17196TIP3    H273004   3.800   3.506  16.658 -0.3336 -0.8187 -0.0174
17197TIP3   OH273005   0.388   1.400   1.329  0.1187 -0.2902  0.6090
17197TIP3    H173006   0.312   1.395   1.270  0.0893 -1.5351  0.7307
17197TIP3    H273007   0.356   1.370   1.413  0.9964 -2.0210  0.3807
17198TIP3   OH273008   0.203   2.636  12.803 -0.0172 -0.4895 -0.1258
17198TIP3    H173009   0.231   2.566  12.744 -1.8065 -0.0775 -1.5572
17198TIP3    H273010   0.128   2.599  12.849  0.7200 -0.4286  1.1750
17199TIP3   OH273011   3.430   3.662  15.698 -0.0660  0.4996  0.0633
17199TIP3    H173012   3.453   3.573  15.673  0.9088 -0.1824  3.0168
17199TIP3    H273013   3.500   3.716  15.661 -0.6511  0.0947 -1.7224
17200TIP3   OH273014   4.361   4.277   0.667 -0.6696  0.3851  0.1332
17200TIP3    H173015   4.360   4.362   0.711  0.1504  0.1956  0.5508
17200TIP3    H273016   4.345   4.298   0.575  3.1231  1.5020 -0.4669
17201TIP3   OH273017   4.834   4.320   1.621 -0.5663  0.2640  0.0330
17201TIP3    H173018   4.864   4.229   1.613 -1.6718 -0.0185 -1.0980
17201TIP3    H273019   4.885   4.355   1.694  0.2080 -1.1275  0.1957
17202TIP3   OH273020   0.579   4.329   5.891  0.2922 -0.4125  0.3896
17202TIP3    H173021   0.521   4.254   5.899  0.9374 -0.8028  1.9014
17202TIP3    H273022   0.606   4.348   5.981  1.7363  0.3530 -0.1614
17203TIP3   OH273023   2.870   3.485  13.369  0.1716  0.1297  0.5578
17203TIP3    H173024   2.800   3.491  13.434  0.7452  1.1294  1.1171
17203TIP3    H273025   2.841   3.418  13.308 -1.3669  0.6434  0.6823
17204TIP3   OH273026   4.962   3.410  11.169  0.3130  0.1652  0.1270
17204TIP3    H173027   4.998   3.496  11.190 -0.2689  0.0597  1.7515
17204TIP3    H273028   5.025   3.371  11.110  1.3126  1.1613  0.4998
17205TIP3   OH273029   4.583   3.713  17.304  0.0759  0.2606  0.1273
17205TIP3    H173030   4.533   3.701  17.223 -1.3246  0.1856  0.9725
17205TIP3    H273031   4.524   3.761  17.362  0.2885 -1.3535  1.7772
17206TIP3   OH273032   2.731   0.191   0.715 -0.1002  0.2354 -0.1877
17206TIP3    H173033   2.642   0.157   0.717  0.1835 -0.6735 -1.4447
17206TIP3    H273034   2.726   0.268   0.658 -0.0773  0.1245 -0.3424
17207TIP3   OH273035   4.829   5.447  14.749  0.1509  0.3406  0.2384
17207TIP3    H173036   4.849   5.510  14.679  2.7798  1.4139  1.8141
17207TIP3    H273037   4.889   5.375  14.733 -0.4847 -0.2250  0.3911
17208TIP3   OH273038   0.463   5.843  14.458 -0.2266  0.0513  0.2787
17208TIP3    H173039   0.372   5.873  14.449  0.6330  2.6945 -0.5671
17208TIP3    H273040   0.479   5.843  14.552 -0.7477  0.7874  0.3778
17209TIP3   OH273041   4.719   4.256   3.428  0.4420 -0.3096 -0.6253
17209TIP3    H173042   4.670   4.220   3.502 -0.8357  0.7383 -0.9401
17209TIP3    H273043   4.809   4.261   3.460 -0.1740  0.6640  1.0729
17210TIP3   OH273044   5.977   5.878  14.703 -0.1164  0.4237 -0.1662
17210TIP3    H173045   5.896   5.833  14.727 -1.3751  3.6921  2.7212
17210TIP3    H273046   5.966   5.900  14.610 -2.6037  0.7216  0.1193
17211TIP3   OH273047   1.379   5.587   3.128  0.5702 -0.7676  0.0900
17211TIP3    H173048   1.469   5.561   3.148  0.7949  0.2845  0.5599
17211TIP3    H273049   1.332   5.505   3.114  2.1988 -1.3328 -2.9786
17212TIP3   OH273050   2.952   6.330  15.673 -0.4915 -0.5889 -0.6569
17212TIP3    H173051   2.944   6.275  15.595  1.2402  2.5033 -3.2553
17212TIP3    H273052   2.931   6.418  15.642  4.1110  1.4696  1.2277
17213TIP3   OH273053   1.660   6.632   1.685  0.0052  0.2631 -0.4310
17213TIP3    H173054   1.732   6.695   1.691 -1.9723  2.7087 -0.3429
17213TIP3    H273055   1.697   6.557   1.640  2.6418  1.3002 -0.1970
17214TIP3   OH273056   4.564   1.292   2.972  0.0257 -0.0690 -0.1786
17214TIP3    H173057   4.637   1.345   3.003  0.5556 -0.8948  0.0200
17214TIP3    H273058   4.490   1.352   2.971  0.2680  0.3226  1.4721
17215TIP3   OH273059   1.831   3.394   3.165 -0.1131  0.1781  0.3737
17215TIP3    H173060   1.781   3.473   3.143 -2.1673 -1.0021  0.5985
17215TIP3    H273061   1.916   3.427   3.193 -0.3991  2.2266 -0.9393
17216TIP3   OH273062   5.979   0.193  13.248 -0.3072 -0.1934  0.2088
17216TIP3    H173063   6.034   0.203  13.171 -1.6290  2.1249 -0.5414
17216TIP3    H273064   6.009   0.261  13.308 -2.5728  1.5471 -0.4586
17217TIP3   OH273065   4.091   6.424  16.183 -0.1273  0.3808 -0.2275
17217TIP3    H173066   4.127   6.479  16.252 -1.0359 -0.1814  0.7325
17217TIP3    H273067   4.150   6.350  16.177  0.0625  0.5295 -0.1989
17218TIP3   OH273068   1.011   6.281  13.957 -0.0856 -0.0583 -0.6259
17218TIP3    H173069   0.938   6.341  13.943 -0.5752 -0.0220  1.6497
17218TIP3    H273070   1.087   6.337  13.968 -0.3713  0.1246  0.5279
17219TIP3   OH273071   0.365   0.389  13.762  0.1212  1.2285  0.4697
17219TIP3    H173072   0.354   0.390  13.667  0.7785 -0.7021  0.3198
17219TIP3    H273073   0.276   0.395  13.796 -0.3957 -0.7879 -0.3774
17220TIP3   OH273074   5.168   4.131  16.956 -0.3316  0.0530 -0.1965
17220TIP3    H173075   5.137   4.217  16.926  1.3738 -0.3563 -3.6026
17220TIP3    H273076   5.237   4.151  17.019 -0.6238  1.1536 -0.2042
17221TIP3   OH273077   4.131   2.374   1.568  0.7931  0.0449 -0.1771
17221TIP3    H173078   4.100   2.463   1.586  0.5933 -0.0296 -0.1610
17221TIP3    H273079   4.227   2.383   1.568  0.7736  0.2770 -0.2607
17222TIP3   OH273080   5.953   1.238  16.055  0.4218  0.4769 -0.3426
17222TIP3    H173081   5.943   1.210  16.146 -0.0377  1.1781 -0.1719
17222TIP3    H273082   5.959   1.333  16.060 -1.0866  0.6433 -1.1670
17223TIP3   OH273083   5.844   4.792   3.803 -0.4364  0.2092 -0.2148
17223TIP3    H173084   5.748   4.784   3.803 -0.4407  0.1915  0.4728
17223TIP3    H273085   5.865   4.822   3.891 -0.0069  2.6581 -1.0784
17224TIP3   OH273086   2.159   5.841   1.583 -0.0222  0.6069 -0.4567
17224TIP3    H173087   2.121   5.824   1.497 -2.0239  0.4629  0.3958
17224TIP3    H273088   2.207   5.923   1.573  2.9313 -1.1436 -2.5830
17225TIP3   OH273089   4.541   3.903  13.347  0.6923 -0.3795  0.0476
17225TIP3    H173090   4.465   3.957  13.323  1.1911  0.9611  1.3441
17225TIP3    H273091   4.597   3.961  13.398  2.5851 -1.3578 -0.7952
17226TIP3   OH273092   1.099   4.321   6.198 -0.2596 -0.3729  0.6200
17226TIP3    H173093   1.055   4.339   6.115  0.4818  0.2902  0.3445
17226TIP3    H273094   1.117   4.227   6.197  2.3240  0.0335 -1.3426
17227TIP3   OH273095   5.052   6.777   3.138  0.1687 -0.7101 -0.5635
17227TIP3    H173096   5.025   6.740   3.222  0.5157 -0.6976 -0.4427
17227TIP3    H273097   5.067   6.870   3.157 -5.4705  0.8313 -1.8775
17228TIP3   OH273098   3.956   2.207  11.523 -0.2693 -0.2142  0.0322
17228TIP3    H173099   4.010   2.283  11.501  1.4161 -1.4320 -0.2087
17228TIP3    H273100   3.956   2.205  11.619  1.4109 -1.0481  0.0432
17229TIP3   OH273101   0.393   6.317  10.982  0.3412  0.3782  1.1299
17229TIP3    H173102   0.336   6.322  10.905  2.4248 -0.2477 -0.5513
17229TIP3    H273103   0.440   6.400  10.982  0.5213  0.2776  1.6120
17230TIP3   OH273104   5.310   1.839   4.998  0.3142 -0.2741 -0.3154
17230TIP3    H173105   5.372   1.868   5.065  1.5197 -1.0023 -1.0580
17230TIP3    H273106   5.314   1.906   4.930  0.9785 -0.7364 -0.7550
17231TIP3   OH273107   6.544   2.425   5.341  0.0219 -0.2757 -0.4967
17231TIP3    H173108   6.624   2.414   5.289  0.0317 -1.3456 -0.2637
17231TIP3    H273109   6.560   2.377   5.422 -0.4892  0.3161 -0.0299
17232TIP3   OH273110   2.085   5.387  16.923 -0.2605  0.7817 -0.1019
17232TIP3    H173111   2.095   5.306  16.973  1.4607 -0.1296 -1.8267
17232TIP3    H273112   2.174   5.424  16.920 -0.5841  1.4933 -1.3487
17233TIP3   OH273113   3.176   2.509  15.617 -0.2033 -0.0745  0.4578
17233TIP3    H173114   3.176   2.579  15.682 -0.2438  0.1890  0.1741
17233TIP3    H273115   3.142   2.550  15.537 -0.2361 -0.4181  0.2943
17234TIP3   OH273116   3.020   1.768   2.079  0.0066 -0.2397 -0.2142
17234TIP3    H173117   2.988   1.705   2.143 -0.7884  0.0051 -0.3512
17234TIP3    H273118   2.958   1.842   2.085  0.5537  0.2522 -0.4922
17235TIP3   OH273119   0.917   3.432   3.812 -0.2290 -0.5741 -0.5182
17235TIP3    H173120   0.981   3.413   3.881 -0.4154 -1.4062 -0.5560
17235TIP3    H273121   0.967   3.478   3.745 -0.1071  0.4845  0.2848
17236TIP3   OH273122   1.196   1.894   5.027 -0.3140 -0.1402  0.2857
17236TIP3    H173123   1.243   1.868   5.106  1.4699  0.1777 -0.6308
17236TIP3    H273124   1.123   1.832   5.021 -1.3718  0.6844  2.9028
17237TIP3   OH273125   5.138   2.470   3.718 -0.3131 -0.1792 -0.3086
17237TIP3    H173126   5.199   2.397   3.716  0.6305  0.5628 -2.8318
17237TIP3    H273127   5.052   2.430   3.710  0.1730 -1.0595 -1.4163
17238TIP3   OH273128   0.779   1.449   0.122  0.3006 -0.0047  0.1967
17238TIP3    H173129   0.822   1.505   0.057 -1.6350  1.2539 -0.0923
17238TIP3    H273130   0.789   1.360   0.088  0.9647  0.4365 -0.8240
17239TIP3   OH273131   6.411   3.702   1.545 -0.4906  0.0094  0.5308
17239TIP3    H173132   6.340   3.765   1.536 -0.9283 -0.3756  1.1821
17239TIP3    H273133   6.370   3.617   1.525 -0.0133 -0.1254  0.0910
17240TIP3   OH273134   5.500   5.206   1.103  0.2649 -0.2109  0.1672
17240TIP3    H173135   5.549   5.265   1.161  1.8263  0.0207 -1.3245
17240TIP3    H273136   5.553   5.126   1.100 -0.7108 -0.8974  0.4058
17241TIP3   OH273137   0.318   5.158  13.135 -0.2350 -0.8238 -0.4357
17241TIP3    H173138   0.399   5.158  13.186  1.0248 -1.4824 -2.3117
17241TIP3    H273139   0.336   5.099  13.062 -2.2340 -0.5573 -1.2068
17242TIP3   OH273140   6.397   5.326  13.027 -0.0582  0.2828  0.4838
17242TIP3    H173141   6.388   5.329  13.123 -0.6681  0.5456  0.4223
17242TIP3    H273142   6.319   5.279  12.997 -0.0254  0.4770  0.0929
17243TIP3   OH273143   3.145   6.351   0.875 -0.2037 -0.0710 -0.8412
17243TIP3    H173144   3.180   6.436   0.849  1.9710 -0.6646 -0.0596
17243TIP3    H273145   3.168   6.293   0.802 -2.0301  0.0229 -1.5588
17244TIP3   OH273146   3.070   3.256   4.274 -0.4305  0.4720  0.0956
17244TIP3    H173147   3.103   3.199   4.205 -1.0361 -0.8878  0.8952
17244TIP3    H273148   3.131   3.330   4.275  2.5655 -1.7998  1.3553
17245TIP3   OH273149   1.214   2.485  11.105 -0.3909 -0.2609  0.2162
17245TIP3    H173150   1.249   2.572  11.084  0.6742 -0.4477  1.1234
17245TIP3    H273151   1.212   2.439  11.021  0.9739 -0.0242  0.0313
17246TIP3   OH273152   6.427   1.278  16.852  0.2601  0.5441  0.2996
17246TIP3    H173153   6.384   1.339  16.912 -0.1959 -1.6564  2.3266
17246TIP3    H273154   6.517   1.310  16.846 -0.0402  1.5853  1.0692
17247TIP3   OH273155   1.569   1.436   0.948  0.0881  0.3757  0.0878
17247TIP3    H173156   1.531   1.512   0.904  0.0524  0.2869 -0.0356
17247TIP3    H273157   1.525   1.433   1.033  2.2674  2.3369  1.4318
17248TIP3   OH273158   0.648   3.952  12.834 -0.3220  0.0715 -0.3439
17248TIP3    H173159   0.688   3.871  12.804  0.8028  0.6198 -0.3728
17248TIP3    H273160   0.722   4.007  12.861 -1.1202  0.6899  0.6777
17249TIP3   OH273161   1.883   4.461   2.936 -0.5177 -0.1937  0.1519
17249TIP3    H173162   1.923   4.386   2.891  2.1866  0.3042  1.5474
17249TIP3    H273163   1.948   4.531   2.928 -1.4019  0.8948  1.9817
17250TIP3   OH273164   6.184   0.000  15.617  0.2761 -0.2434 -0.2644
17250TIP3    H173165   6.273  -0.034  15.630 -0.3746 -1.5951  0.8495
17250TIP3    H273166   6.180   0.020  15.524  1.4550 -1.0163 -0.5049
17251TIP3   OH273167   2.129   0.946   3.138 -0.0543 -0.1043 -0.0591
17251TIP3    H173168   2.128   0.853   3.161  2.2978 -0.5456 -1.4470
17251TIP3    H273169   2.039   0.964   3.110 -0.7871 -1.7049  1.0872
17252TIP3   OH273170   6.762   1.338   5.871  0.2249 -0.3882  0.3680
17252TIP3    H173171   6.781   1.260   5.924 -0.6900 -1.7761 -1.2279
17252TIP3    H273172   6.667   1.342   5.868  0.2598  1.1570  0.8862
17253TIP3   OH273173   5.345   3.731  11.101 -0.1479 -0.6230  0.1791
17253TIP3    H173174   5.281   3.780  11.048  1.6961  1.2503 -0.4415
17253TIP3    H273175   5.426   3.736  11.050  1.5185  0.5616  2.7495
17254TIP3   OH273176   5.129   4.382  16.110 -0.3823  0.0083 -0.5604
17254TIP3    H173177   5.199   4.446  16.100  0.3214 -0.9114 -1.6864
17254TIP3    H273178   5.142   4.345  16.197  0.1331  0.2996 -0.5113
17255TIP3   OH273179   2.340   4.624  16.858 -0.4784  0.6831 -0.2012
17255TIP3    H173180   2.410   4.563  16.884 -0.2502  0.9265 -0.2315
17255TIP3    H273181   2.261   4.571  16.858 -0.1535  0.1872 -1.0469
17256TIP3   OH273182   5.125   4.936  17.130 -0.2713  0.4579  0.2502
17256TIP3    H173183   5.126   4.967  17.221 -1.2404 -2.0089  1.1798
17256TIP3    H273184   5.034   4.915  17.112  0.2081 -1.1153 -0.5251
17257TIP3   OH273185   3.510   0.056  14.684 -0.3011 -0.1128  0.2505
17257TIP3    H173186   3.581  -0.003  14.709 -0.0102  0.7841  1.6249
17257TIP3    H273187   3.432   0.020  14.727 -0.6427 -0.8997 -0.9758
17258TIP3   OH273188   4.022   6.669  13.121  0.1151 -0.1511  0.1995
17258TIP3    H173189   4.013   6.609  13.047 -2.0331  1.0836 -0.6203
17258TIP3    H273190   3.958   6.638  13.185 -0.6217  0.8902 -0.0074
17259TIP3   OH273191   1.892   2.880   4.909 -0.2912 -0.5452  0.0975
17259TIP3    H173192   1.854   2.962   4.942  0.8098  0.1456 -0.2831
17259TIP3    H273193   1.817   2.830   4.877 -0.7627  1.7705 -2.9008
17260TIP3   OH273194   6.572   3.995  17.054 -0.3807  0.0844 -0.3331
17260TIP3    H173195   6.543   4.048  16.980 -0.9089 -0.9184 -0.8720
17260TIP3    H273196   6.561   3.904  17.024 -2.8059 -0.4293  1.7586
17261TIP3   OH273197   4.857   6.604   0.863 -0.3071  0.1304  0.1360
17261TIP3    H173198   4.921   6.662   0.905  0.5877 -0.6171 -0.1518
17261TIP3    H273199   4.887   6.598   0.772  0.3354 -1.6973  0.4227
17262TIP3   OH273200   5.966   2.549  11.402  0.4254 -0.3204  0.0989
17262TIP3    H173201   5.939   2.561  11.311  0.1652  0.8702  0.3165
17262TIP3    H273202   5.959   2.455  11.417 -0.0368 -0.4662 -0.9571
17263TIP3   OH273203   3.832   6.199  11.820 -0.0820  0.0651  0.0189
17263TIP3    H173204   3.859   6.114  11.855  0.1716 -0.4103 -1.2813
17263TIP3    H273205   3.903   6.224  11.760 -0.2290  1.1236  0.2704
17264TIP3   OH273206   4.630   4.773  16.586 -0.0689 -0.1420  0.2976
17264TIP3    H173207   4.581   4.855  16.599 -0.7356  0.0135 -2.4695
17264TIP3    H273208   4.687   4.766  16.662  0.4973  3.2817  0.3445
17265TIP3   OH273209   3.468   0.843  11.713 -0.0657 -0.0695 -0.3748
17265TIP3    H173210   3.478   0.905  11.641  0.6468 -0.6459 -0.7809
17265TIP3    H273211   3.377   0.855  11.742 -0.5918 -0.3392 -1.8427
17266TIP3   OH273212   4.821   0.881  12.001 -0.4259  0.1841 -0.1554
17266TIP3    H173213   4.893   0.942  12.022 -1.1746  1.1606 -0.3461
17266TIP3    H273214   4.744   0.921  12.041 -0.8312 -0.9837  0.2503
17267TIP3   OH273215   1.302   3.441  16.323 -0.6601  0.1789  0.7563
17267TIP3    H173216   1.356   3.362  16.330 -0.7048 -0.3102 -2.7814
17267TIP3    H273217   1.257   3.447  16.408 -0.3649 -3.3532  1.2884
17268TIP3   OH273218   2.589   6.019   4.927  0.0182 -0.0387  0.2175
17268TIP3    H173219   2.553   5.962   4.858 -0.0570  1.2789 -0.8670
17268TIP3    H273220   2.523   6.015   4.997 -1.5768  1.1209 -1.1207
17269TIP3   OH273221   1.271   2.778  10.649 -0.9289  0.7448  0.5031
17269TIP3    H173222   1.300   2.865  10.676 -0.5274  0.6011  0.5469
17269TIP3    H273223   1.186   2.793  10.608  0.2059  1.5361 -1.7530
17270TIP3   OH273224   3.725   1.632  11.251 -0.1591 -0.4028  0.3968
17270TIP3    H173225   3.678   1.690  11.192 -1.6268  0.0971  1.9983
17270TIP3    H273226   3.763   1.565  11.193  0.0492  1.0865 -1.2795
17271TIP3   OH273227   3.290   4.682  11.787 -0.2012  0.9677 -1.1398
17271TIP3    H173228   3.367   4.714  11.740 -0.6776 -1.3322 -3.7210
17271TIP3    H273229   3.217   4.698  11.728 -1.1178 -0.4703 -0.4604
17272TIP3   OH273230   6.576   3.301   4.776 -0.1817  0.2852 -0.2484
17272TIP3    H173231   6.487   3.333   4.764 -0.9987 -1.4033  0.8436
17272TIP3    H273232   6.585   3.290   4.871  0.9673 -0.1398 -0.3871
17273TIP3   OH273233   5.144   0.366   5.025  0.0539  0.0983 -0.2144
17273TIP3    H173234   5.133   0.365   4.930  0.6349 -1.8910 -0.3181
17273TIP3    H273235   5.210   0.432   5.042 -1.1572  1.5719 -1.0150
17274TIP3   OH273236   0.145   4.369  16.993 -0.2281 -0.0379 -0.1217
17274TIP3    H173237   0.195   4.429  17.048  1.8234 -1.9700  0.2689
17274TIP3    H273238   0.134   4.416  16.910 -0.5585  1.6445  0.8151
17275TIP3   OH273239   3.374   6.183  11.549  0.1565 -0.1343 -0.0594
17275TIP3    H173240   3.437   6.145  11.610  0.4107 -1.6403 -1.1893
17275TIP3    H273241   3.293   6.133  11.564 -0.0435  0.1018 -0.3296
17276TIP3   OH273242   5.464   4.201   3.184 -0.2132  0.2841 -0.3606
17276TIP3    H173243   5.398   4.143   3.145 -1.0011 -0.0483  1.3555
17276TIP3    H273244   5.418   4.242   3.258  1.5119 -0.0031  0.9342
17277TIP3   OH273245   1.474   4.146  14.733 -0.4531  0.0726  0.1703
17277TIP3    H173246   1.402   4.138  14.796  0.3439  1.4222  1.3158
17277TIP3    H273247   1.431   4.156  14.649 -1.5585 -1.6302  0.4802
17278TIP3   OH273248   4.126   6.380   0.759  0.1900  0.0444  0.0669
17278TIP3    H173249   4.034   6.354   0.763  0.5086 -1.6100 -1.6935
17278TIP3    H273250   4.140   6.404   0.667  2.1791 -2.8019 -0.5223
17279TIP3   OH273251   2.924   4.859  13.643 -0.0868  0.0291  0.2729
17279TIP3    H173252   2.899   4.906  13.563 -1.6723 -0.8734  0.2120
17279TIP3    H273253   3.020   4.867  13.646 -0.2441  3.0685  0.1591
17280TIP3   OH273254   3.490   4.030  16.607  0.0449 -0.1698  0.2635
17280TIP3    H173255   3.566   3.985  16.644  0.3627  0.8602  0.9013
17280TIP3    H273256   3.508   4.034  16.513  0.4657 -0.5013  0.3243
17281TIP3   OH273257   1.476   1.007   0.154  0.0082  0.1618  0.1435
17281TIP3    H173258   1.542   0.954   0.109  0.8656 -0.6146  2.2078
17281TIP3    H273259   1.507   1.097   0.144 -0.2011  0.0896 -1.3707
17282TIP3   OH273260   2.713   5.195  13.880 -0.8818 -0.8223 -0.0865
17282TIP3    H173261   2.783   5.252  13.848 -0.3561 -0.7544  1.1322
17282TIP3    H273262   2.665   5.248  13.943 -0.4018 -1.6878  1.0535
17283TIP3   OH273263   4.826   4.114  16.291 -0.1859  0.0954 -0.4935
17283TIP3    H173264   4.889   4.180  16.321 -1.4119  0.7364  0.8014
17283TIP3    H273265   4.835   4.114  16.196  1.7872  0.1238 -0.3321
17284TIP3   OH273266   5.142   6.609  15.125  0.3085  0.1233 -0.2916
17284TIP3    H173267   5.095   6.656  15.056 -0.6261  0.8180  0.7788
17284TIP3    H273268   5.117   6.517  15.113 -0.4938  0.3459 -0.3838
17285TIP3   OH273269   4.184   0.649   5.890  0.4338  0.7138  0.3231
17285TIP3    H173270   4.234   0.579   5.848 -0.5827  1.0412 -1.5076
17285TIP3    H273271   4.249   0.718   5.905  0.7628  0.7580 -1.1423
17286TIP3   OH273272   2.055   2.110  15.899  0.1006  0.1913  0.4432
17286TIP3    H173273   2.013   2.024  15.886  0.7586  0.1407 -1.6770
17286TIP3    H273274   2.023   2.139  15.985 -1.0114 -1.6687  0.7209
17287TIP3   OH273275   0.194   5.884  14.124 -0.2819 -0.0839 -0.2903
17287TIP3    H173276   0.119   5.830  14.100 -2.0828  1.5199  1.3287
17287TIP3    H273277   0.239   5.833  14.192 -0.8110 -0.4162 -0.1810
17288TIP3   OH273278   4.471   1.347  16.262 -0.1469  0.1993 -0.4477
17288TIP3    H173279   4.437   1.373  16.348 -1.1814 -0.5869 -0.5955
17288TIP3    H273280   4.564   1.331  16.277 -0.9046 -3.4385  1.4516
17289TIP3   OH273281   2.858   2.866  16.616  0.1796  0.1620  0.3197
17289TIP3    H173282   2.826   2.898  16.531  2.4343  1.4835 -0.1121
17289TIP3    H273283   2.901   2.783  16.595 -0.7778 -0.3953  0.4982
17290TIP3   OH273284   2.414   3.443   0.281 -0.4311  0.1014 -0.3328
17290TIP3    H173285   2.456   3.379   0.339 -0.4899 -0.7240 -1.1681
17290TIP3    H273286   2.368   3.389   0.217  1.4168  0.9239 -2.4831
17291TIP3   OH273287   0.492   1.614  11.258  0.5363  0.0889  0.0459
17291TIP3    H173288   0.465   1.626  11.349 -2.0290  0.5610 -0.6765
17291TIP3    H273289   0.409   1.607  11.209  1.7692  1.0939 -2.4014
17292TIP3   OH273290   1.132   5.575  14.953  0.0455  0.2766 -0.3163
17292TIP3    H173291   1.167   5.486  14.960 -1.6855 -0.3881  0.4043
17292TIP3    H273292   1.087   5.589  15.036 -0.5328  1.4730 -0.8165
17293TIP3   OH273293   1.603   4.890   3.452  0.1080  0.4384  0.2031
17293TIP3    H173294   1.523   4.837   3.444 -1.2757  2.2950  0.9333
17293TIP3    H273295   1.670   4.828   3.479 -0.2973 -1.7891 -3.2092
17294TIP3   OH273296   3.403   3.483   5.177  0.0572  0.0064  0.8806
17294TIP3    H173297   3.336   3.418   5.158 -1.6222  1.8689 -0.0579
17294TIP3    H273298   3.482   3.433   5.198 -1.6308 -2.2851  2.1015
17295TIP3   OH273299   1.109   6.399   6.182 -0.0649 -0.3533  0.4765
17295TIP3    H173300   1.063   6.335   6.236 -1.6242  0.7696  0.5412
17295TIP3    H273301   1.042   6.461   6.154  0.8964 -0.2220 -1.8084
17296TIP3   OH273302   6.278   1.282   4.800 -0.4278  0.2613 -0.1621
17296TIP3    H173303   6.342   1.348   4.772 -1.2406  1.1068 -0.0436
17296TIP3    H273304   6.240   1.249   4.719 -1.1111  1.0443 -0.1736
17297TIP3   OH273305   6.076   5.588  17.143 -0.2150  0.3815 -0.0232
17297TIP3    H173306   6.127   5.648  17.198  0.7182  0.6509 -1.1451
17297TIP3    H273307   6.033   5.645  17.079  0.1950 -0.0712 -0.7168
17298TIP3   OH273308   0.124   4.615   2.678 -0.2059  0.4105  0.6734
17298TIP3    H173309   0.155   4.580   2.595  0.1163 -1.4818  1.5454
17298TIP3    H273310   0.119   4.710   2.664  2.1433  0.3868 -0.7496
17299TIP3   OH273311   5.606   3.615   5.900  0.5488 -0.1065  0.0014
17299TIP3    H173312   5.634   3.602   5.991  0.3885 -0.3879  0.0094
17299TIP3    H273313   5.535   3.552   5.887  0.0214  0.4837 -0.0667
17300TIP3   OH273314   6.764   4.164  12.412 -0.0633  0.0263  0.2494
17300TIP3    H173315   6.824   4.208  12.353  1.2989  1.8657  2.7962
17300TIP3    H273316   6.790   4.194  12.499 -3.1257 -1.0462  1.6741
17301TIP3   OH273317   4.389   2.202   1.849 -0.0265  0.0740 -0.0496
17301TIP3    H173318   4.370   2.134   1.785  1.3184  0.3856 -0.8165
17301TIP3    H273319   4.485   2.207   1.851 -0.0856  2.7635 -0.9119
17302TIP3   OH273320   2.971   4.407   6.005 -0.5516 -0.6305  0.0930
17302TIP3    H173321   2.970   4.459   6.085  0.3829 -0.4202 -0.0273
17302TIP3    H273322   2.993   4.469   5.936  0.3722 -1.1328 -0.0799
17303TIP3   OH273323   2.769   0.898   1.648 -0.2192 -0.0246 -0.3641
17303TIP3    H173324   2.774   0.813   1.692 -0.0810  0.3350  0.3214
17303TIP3    H273325   2.804   0.961   1.711  0.7393  0.3964 -1.2745
17304TIP3   OH273326   6.049   3.248   2.283  0.4669  0.3172  0.6199
17304TIP3    H173327   6.063   3.281   2.372  0.6975  0.4845  0.5233
17304TIP3    H273328   5.995   3.315   2.242  0.3317  0.2230  0.6432
17305TIP3   OH273329   6.305   1.626  11.927  0.5691 -0.2417  0.3884
17305TIP3    H173330   6.255   1.702  11.900  1.0173 -0.3971 -0.9289
17305TIP3    H273331   6.294   1.623  12.022 -1.6898 -0.1237  0.1970
17306TIP3   OH273332   2.000   2.777   2.414 -0.1426 -0.0079  0.5134
17306TIP3    H173333   2.008   2.868   2.385 -1.8297 -0.0158 -0.0812
17306TIP3    H273334   1.986   2.728   2.334 -1.7517 -0.4460  1.0333
17307TIP3   OH273335   3.700   2.853  13.728  0.3000  0.4477  0.2654
17307TIP3    H173336   3.766   2.801  13.774  0.7179  2.0913  1.6196
17307TIP3    H273337   3.616   2.824  13.765  0.5529  0.9323  1.2542
17308TIP3   OH273338   6.017   0.449   1.482 -0.0445  0.5180  0.3714
17308TIP3    H173339   6.109   0.466   1.499 -0.0084 -0.0023  0.6995
17308TIP3    H273340   6.012   0.437   1.387  0.4123 -0.5510  0.4741
17309TIP3   OH273341   3.261   5.741   6.769  0.0846  0.0469  0.0285
17309TIP3    H173342   3.265   5.831   6.738 -1.4305  0.2033  0.1970
17309TIP3    H273343   3.168   5.727   6.790  0.6778 -0.6930  2.5283
17310TIP3   OH273344   2.845   1.380  12.786  0.1231  0.3136 -0.0487
17310TIP3    H173345   2.871   1.290  12.766 -0.8084  0.2276 -0.9776
17310TIP3    H273346   2.842   1.383  12.882 -0.4652 -0.8383 -0.0122
17311TIP3   OH273347   0.124   5.705   4.708  0.1028  0.2907 -0.2066
17311TIP3    H173348   0.082   5.731   4.790  3.0324  0.5389  1.3670
17311TIP3    H273349   0.167   5.784   4.677  0.2158 -0.1452 -1.1940
17312TIP3   OH273350   6.603   3.444   6.050 -0.5589 -0.2946 -0.7869
17312TIP3    H173351   6.695   3.470   6.052  0.0206 -2.2186 -0.5188
17312TIP3    H273352   6.574   3.463   5.961  0.0276  0.5243 -0.8057
17313TIP3   OH273353   1.636   3.693   5.976 -0.3295  0.1498 -0.0445
17313TIP3    H173354   1.559   3.675   6.030  0.9090 -1.8973  1.1996
17313TIP3    H273355   1.611   3.664   5.889 -0.9336 -0.6128  0.3648
17314TIP3   OH273356   2.935   3.039  15.884  0.1754  0.3125 -0.0297
17314TIP3    H173357   2.993   3.099  15.932 -0.0952  1.0220 -0.5780
17314TIP3    H273358   2.854   3.089  15.872  0.9587  1.0642 -3.1715
17315TIP3   OH273359   2.617   1.232   1.561 -0.2734 -0.3064  0.1543
17315TIP3    H173360   2.566   1.151   1.555  0.0321 -0.6809  2.0707
17315TIP3    H273361   2.554   1.298   1.587 -0.0502 -0.5091  1.2627
17316TIP3   OH273362   0.588   3.098   0.280  0.2139 -0.1592 -0.0798
17316TIP3    H173363   0.671   3.132   0.247  0.7678 -0.8253  0.5799
17316TIP3    H273364   0.539   3.075   0.202  1.2603 -1.1431 -0.4784
17317TIP3   OH273365   2.275   0.515   4.844 -0.0057  0.0444  0.8072
17317TIP3    H173366   2.338   0.577   4.879 -0.3035  0.0063  1.4305
17317TIP3    H273367   2.255   0.457   4.918 -1.4313  0.6043  0.8869
17318TIP3   OH273368   5.892   0.375   5.297  0.0331 -0.2787 -0.2454
17318TIP3    H173369   5.895   0.362   5.202 -3.1939 -0.0147 -0.4832
17318TIP3    H273370   5.840   0.455   5.309 -1.0075 -1.1830  1.7418
17319TIP3   OH273371   1.796   6.022  10.886  0.6786  0.6090  0.0385
17319TIP3    H173372   1.765   6.104  10.848  1.2786 -0.1710 -2.2444
17319TIP3    H273373   1.824   5.970  10.812 -1.6167 -2.5646  1.1791
17320TIP3   OH273374   3.348   3.667   0.312  0.3996 -0.1120  0.7040
17320TIP3    H173375   3.321   3.584   0.273  0.4186 -0.2522  0.9908
17320TIP3    H273376   3.441   3.656   0.331  0.6758  0.3817 -0.3112
17321TIP3   OH273377   5.476   1.091  11.531 -0.0267  0.3176 -0.2392
17321TIP3    H173378   5.503   1.007  11.566 -1.7434 -0.5650 -0.9127
17321TIP3    H273379   5.550   1.121  11.478  0.9991 -0.2514  0.8476
17322TIP3   OH273380   1.111   0.623  17.327  0.1697  0.2324 -0.0490
17322TIP3    H173381   1.112   0.527  17.332  0.9493  0.1881 -0.7763
17322TIP3    H273382   1.202   0.646  17.308  0.1404  1.1655  0.8707
17323TIP3   OH273383   5.508   1.702   5.622 -0.1611 -0.4173  0.5096
17323TIP3    H173384   5.499   1.732   5.532  0.7756 -0.9330  0.2325
17323TIP3    H273385   5.443   1.632   5.631 -0.6402  0.0081  0.4125
17324TIP3   OH273386   3.068   5.126  16.689  0.1838  0.2204  0.8985
17324TIP3    H173387   3.142   5.186  16.698 -0.4184  1.2781 -0.7429
17324TIP3    H273388   3.028   5.150  16.606 -0.4261 -2.1006  0.4415
17325TIP3   OH273389   3.552   5.581  11.309 -0.1712 -0.7959 -0.0679
17325TIP3    H173390   3.597   5.514  11.362  1.4624  1.1007  1.0975
17325TIP3    H273391   3.605   5.589  11.230 -0.8024 -1.3962 -0.5591
17326TIP3   OH273392   4.332   1.880  13.052  0.2920 -0.1132  0.3571
17326TIP3    H173393   4.333   1.796  13.099 -0.7360 -0.7191 -0.6354
17326TIP3    H273394   4.402   1.931  13.092 -0.2291 -0.7650  2.2166
17327TIP3   OH273395   1.515   5.362   0.798 -0.7263 -0.0464  0.4119
17327TIP3    H173396   1.481   5.334   0.712  0.1788 -2.1430  0.6674
17327TIP3    H273397   1.501   5.286   0.854  2.6419 -0.3767  0.9789
17328TIP3   OH273398   4.454   2.120   4.838  0.5764 -0.3833  0.0742
17328TIP3    H173399   4.465   2.035   4.880  0.6605  0.0690  1.0124
17328TIP3    H273400   4.492   2.110   4.751  0.8138 -1.2268  0.2708
17329TIP3   OH273401   2.219   3.422  15.997 -0.7354  0.0379 -1.0518
17329TIP3    H173402   2.262   3.338  15.982 -1.2107 -0.5479  0.6177
17329TIP3    H273403   2.268   3.485  15.944  1.9551 -0.6561  0.4291
17330TIP3   OH273404   2.622   3.234   3.882 -0.0574  0.1505  0.1280
17330TIP3    H173405   2.612   3.150   3.837 -0.5617  0.1958  0.1479
17330TIP3    H273406   2.678   3.215   3.957 -0.6984 -0.3074  0.5025
17331TIP3   OH273407   2.277   1.310  13.902  0.4721 -0.2984  0.2498
17331TIP3    H173408   2.350   1.364  13.934  1.0425 -1.1823  0.4565
17331TIP3    H273409   2.240   1.270  13.981 -0.8695  0.8846  0.2645
17332TIP3   OH273410   3.674   4.587   2.544  0.0619 -0.2078  0.1675
17332TIP3    H173411   3.739   4.637   2.593  1.0004 -1.7680  0.5831
17332TIP3    H273412   3.607   4.565   2.608  0.6278 -1.1064  0.4819
17333TIP3   OH273413   4.275   4.151   0.035  0.0972 -0.3550  0.6816
17333TIP3    H173414   4.183   4.142   0.060 -0.6810  0.0268 -1.7762
17333TIP3    H273415   4.292   4.245   0.041  0.7085 -0.5440  2.2459
17334TIP3   OH273416   4.330   6.014  15.199  0.9352 -0.3243  0.2355
17334TIP3    H173417   4.372   6.085  15.152  0.4486 -0.5356 -0.5462
17334TIP3    H273418   4.353   5.935  15.149 -0.5275 -0.4199 -0.3570
17335TIP3   OH273419   1.373   2.099  11.565 -0.5773 -0.3963 -0.5930
17335TIP3    H173420   1.444   2.084  11.628 -0.1540 -1.1930 -1.2410
17335TIP3    H273421   1.297   2.056  11.605 -0.9143  1.0831  0.4509
17336TIP3   OH273422   3.799   1.214   5.368  0.2971 -0.1277 -0.3920
17336TIP3    H173423   3.708   1.199   5.391  0.2609 -0.7072 -0.8849
17336TIP3    H273424   3.848   1.191   5.447 -0.0332  1.0161  0.1592
17337TIP3   OH273425   1.339   3.609   0.483  0.2092 -0.1212 -0.7202
17337TIP3    H173426   1.282   3.611   0.559 -1.2412 -2.0790 -1.6718
17337TIP3    H273427   1.334   3.698   0.447 -1.4586  0.0334 -0.2002
17338TIP3   OH273428   5.959   3.980  15.681 -0.4328  0.1393  0.2774
17338TIP3    H173429   6.043   3.981  15.727 -1.1992 -1.5326  1.8463
17338TIP3    H273430   5.956   3.894  15.639 -0.4384  1.0445 -1.6846
17339TIP3   OH273431   4.323   0.867   2.294 -0.0744 -0.1953  0.9383
17339TIP3    H173432   4.248   0.824   2.336 -0.9436 -0.8662 -1.1375
17339TIP3    H273433   4.307   0.961   2.308 -1.2227 -0.3347  0.6977
17340TIP3   OH273434   4.904   6.436   6.659 -0.3951 -0.0846  0.5767
17340TIP3    H173435   4.816   6.423   6.624 -0.9102 -0.3174  1.8811
17340TIP3    H273436   4.901   6.525   6.696  0.1256  0.1524  0.0570
17341TIP3   OH273437   1.309   4.953  17.064  0.3785 -0.1518  0.3194
17341TIP3    H173438   1.225   4.917  17.035  0.9765 -0.3536 -1.2532
17341TIP3    H273439   1.294   5.047  17.068 -0.0462 -0.2209  0.4753
17342TIP3   OH273440   2.506   5.947  12.249 -0.2401  0.2231 -0.0387
17342TIP3    H173441   2.444   5.939  12.322  2.1827 -1.1025  2.0626
17342TIP3    H273442   2.555   6.027  12.269  2.2145 -1.5207  1.4232
17343TIP3   OH273443   1.280   5.490   1.568 -0.5165  0.2087 -0.0609
17343TIP3    H173444   1.334   5.568   1.558  1.4947 -0.5687  3.0260
17343TIP3    H273445   1.211   5.516   1.629 -0.1163 -0.2516  0.6046
17344TIP3   OH273446   1.212   6.432  12.022  0.0650  0.3709 -0.9982
17344TIP3    H173447   1.183   6.386  11.943 -0.8827 -0.0769 -0.4061
17344TIP3    H273448   1.195   6.370  12.093  0.8398  0.7948 -0.4321
17345TIP3   OH273449   2.780   6.050  16.430  0.2686  0.2858 -0.1087
17345TIP3    H173450   2.840   6.098  16.373 -0.4519  1.0031 -0.2837
17345TIP3    H273451   2.805   6.076  16.518  0.7971 -0.1244 -0.1313
17346TIP3   OH273452   2.697   5.936   2.550  0.0115 -0.2012  0.5391
17346TIP3    H173453   2.601   5.938   2.546 -0.0052  1.6660 -4.0398
17346TIP3    H273454   2.721   6.021   2.585 -0.2334  1.4604 -2.8807
17347TIP3   OH273455   0.209   3.324  14.355 -0.4886 -0.0570  0.7498
17347TIP3    H173456   0.194   3.405  14.307 -2.3613 -0.2750  0.8953
17347TIP3    H273457   0.236   3.261  14.288 -0.5423  0.2913  0.3962
17348TIP3   OH273458   1.939   0.579   0.986  0.4760  0.3979  0.0719
17348TIP3    H173459   1.846   0.587   1.007  0.6020  0.1249  0.7809
17348TIP3    H273460   1.983   0.628   1.055  0.9480 -1.2136  0.9689
17349TIP3   OH273461   6.356   4.705  14.271  0.3976  0.0168  0.4731
17349TIP3    H173462   6.347   4.771  14.340 -0.2453 -1.2692  1.6797
17349TIP3    H273463   6.291   4.730  14.205 -1.7884 -0.8521  2.1835
17350TIP3   OH273464   3.492   3.712  11.115 -0.0050  0.9963  0.5256
17350TIP3    H173465   3.580   3.745  11.097  0.0020  1.2359  0.9651
17350TIP3    H273466   3.447   3.714  11.031  1.0809 -1.2596 -0.2008
17351TIP3   OH273467   6.042   0.782  16.492  0.0009 -0.2903 -0.1080
17351TIP3    H173468   6.006   0.754  16.407 -0.2845  0.4112 -0.2305
17351TIP3    H273469   5.981   0.850  16.521  1.2226  0.9496 -0.3187
17352TIP3   OH273470   4.076   0.566   3.824  0.1655 -0.0333  0.2128
17352TIP3    H173471   4.037   0.582   3.910  0.4620  0.4207  0.2670
17352TIP3    H273472   4.156   0.618   3.824 -0.5561  1.1338 -0.8725
17353TIP3   OH273473   4.563   4.963   0.576 -0.7083  0.1650  0.7087
17353TIP3    H173474   4.613   5.036   0.612  1.0244 -0.2875 -0.6191
17353TIP3    H273475   4.572   4.893   0.641  1.3551 -0.2538  0.0461
17354TIP3   OH273476   1.911   5.066   5.712  0.4882 -0.4334  0.4597
17354TIP3    H173477   1.998   5.053   5.675  0.0504 -1.1281 -0.3730
17354TIP3    H273478   1.870   5.131   5.654 -0.4902 -2.1311 -0.8518
17355TIP3   OH273479   6.692   0.192  14.959  0.1214 -0.4188  0.1572
17355TIP3    H173480   6.718   0.205  14.867  0.9658 -1.3006  0.2546
17355TIP3    H273481   6.756   0.243  15.009 -0.0034 -0.3821  0.2778
17356TIP3   OH273482   2.678   0.667  14.801 -0.5428 -0.1453 -0.1118
17356TIP3    H173483   2.648   0.578  14.819  0.7678 -0.4505  0.7227
17356TIP3    H273484   2.763   0.673  14.844 -0.1804  1.2184 -0.9435
17357TIP3   OH273485   6.043   3.549   2.973 -0.5766  0.3998 -1.1728
17357TIP3    H173486   6.023   3.489   3.045 -1.7589  2.2755  0.1706
17357TIP3    H273487   6.139   3.559   2.977 -0.5330 -0.1625 -0.3970
17358TIP3   OH273488   6.667   0.133   3.372  0.0758 -0.4975  0.0979
17358TIP3    H173489   6.627   0.098   3.292  0.4811  0.1057 -0.3805
17358TIP3    H273490   6.758   0.151   3.347 -0.7118  3.5537 -0.5936
17359TIP3   OH273491   0.301   6.417  16.730  0.4290  0.3550  0.0296
17359TIP3    H173492   0.257   6.472  16.666 -0.9347 -0.1713  0.4711
17359TIP3    H273493   0.261   6.331  16.719 -0.1221  0.3441  1.8288
17360TIP3   OH273494   2.142   5.065   5.569  0.0204 -0.3539 -0.3991
17360TIP3    H173495   2.173   5.149   5.537  0.6004 -0.0831  0.8262
17360TIP3    H273496   2.217   5.006   5.559  0.2252 -0.2519  0.5043
17361TIP3   OH273497   0.824   4.857  13.742 -0.2154  0.4964 -0.0361
17361TIP3    H173498   0.770   4.876  13.665 -2.1907  0.3350  1.2244
17361TIP3    H273499   0.761   4.835  13.810  1.4689  0.5769  1.6296
17362TIP3   OH273500   2.707   1.309  12.134 -0.2396  0.2960 -0.3023
17362TIP3    H173501   2.639   1.376  12.123 -1.7858 -1.3152 -1.0858
17362TIP3    H273502   2.755   1.336  12.212 -2.8032  0.6774  1.2454
17363TIP3   OH273503   3.957   2.511   1.900  0.2515 -0.1638  0.5133
17363TIP3    H173504   4.012   2.438   1.927  0.2428 -0.1915  0.4562
17363TIP3    H273505   4.014   2.564   1.845 -0.4222 -1.3786 -1.4394
17364TIP3   OH273506   2.627   3.355  13.260  0.3102  0.2892 -0.2115
17364TIP3    H173507   2.636   3.411  13.183 -0.3910  1.1773  0.3299
17364TIP3    H273508   2.566   3.286  13.233 -0.7905  1.2095 -0.1441
17365TIP3   OH273509   1.844   5.053  16.838  0.0430 -0.0165  0.2886
17365TIP3    H173510   1.868   5.063  16.930 -2.1454 -0.6147  0.9605
17365TIP3    H273511   1.834   4.959  16.825 -1.2148  0.1544 -0.1206
17366TIP3   OH273512   3.213   6.608  14.384  0.2332 -0.7407 -0.0933
17366TIP3    H173513   3.189   6.638  14.471  2.0391 -1.3987  0.6622
17366TIP3    H273514   3.300   6.570  14.394  1.3890  0.9690 -2.5437
17367TIP3   OH273515   2.904   6.580   0.355  0.1682  0.5015  0.2986
17367TIP3    H173516   2.971   6.575   0.288 -0.8698  1.9315 -0.9039
17367TIP3    H273517   2.931   6.653   0.411 -0.0493  0.6577  0.2002
17368TIP3   OH273518   2.276   0.325  14.546 -0.3022 -0.0294 -0.1619
17368TIP3    H173519   2.235   0.377  14.615 -0.0754  0.2631 -0.2447
17368TIP3    H273520   2.203   0.283  14.501 -0.5667  0.8854 -0.6268
17369TIP3   OH273521   4.618   1.010  12.255  0.7077  0.3091  0.0729
17369TIP3    H173522   4.665   0.933  12.287 -0.6454 -1.4133 -1.8655
17369TIP3    H273523   4.605   1.064  12.333  0.7407 -1.9356  1.7237
17370TIP3   OH273524   0.045   5.979  11.545  0.1729  0.4702  0.1773
17370TIP3    H173525   0.062   6.073  11.551  1.8276  0.1814  0.5100
17370TIP3    H273526   0.057   5.958  11.452 -1.8664  0.8491 -0.2075
17371TIP3   OH273527   5.785   2.436   4.481 -0.1066  0.2393  0.4639
17371TIP3    H173528   5.834   2.515   4.502  0.4706  0.7819 -2.4675
17371TIP3    H273529   5.837   2.392   4.414 -0.5978 -2.5101  1.7108
17372TIP3   OH273530   4.654   4.107   6.143  0.4320 -0.2206  0.3101
17372TIP3    H173531   4.562   4.130   6.130  0.5394  0.4320  0.6852
17372TIP3    H273532   4.703   4.185   6.118  0.9536 -0.8802 -0.8350
17373TIP3   OH273533   1.655   3.597  12.192 -0.4174  0.6505 -0.3415
17373TIP3    H173534   1.621   3.529  12.251 -0.4975  1.0596  0.0909
17373TIP3    H273535   1.674   3.671  12.250  1.6900  0.2807 -0.4619
17374TIP3   OH273536   5.976   1.274  11.971 -0.0017  0.1152  0.1105
17374TIP3    H173537   5.939   1.233  12.049  0.1968 -0.1382  0.0739
17374TIP3    H273538   5.990   1.202  11.910 -0.7571  0.4014 -0.4099
17375TIP3   OH273539   5.846   5.952   5.581  0.0723  0.3833 -0.4084
17375TIP3    H173540   5.901   5.975   5.655 -0.3479  1.8739 -0.5257
17375TIP3    H273541   5.892   5.880   5.537  0.8382  0.1943  0.6839
17376TIP3   OH273542   6.629   3.089   3.763 -0.3969  0.2228  0.0318
17376TIP3    H173543   6.579   3.140   3.699  0.8360 -0.1039 -1.2239
17376TIP3    H273544   6.720   3.098   3.735 -0.1069 -2.4483 -0.0965
17377TIP3   OH273545   0.536   4.432   0.463  0.0780  0.2440  0.6036
17377TIP3    H173546   0.551   4.415   0.556  0.1130 -0.4009  0.4865
17377TIP3    H273547   0.489   4.354   0.433 -0.5747  0.7688  0.2411
17378TIP3   OH273548   2.065   3.980   1.205 -0.1317  0.8440 -0.1504
17378TIP3    H173549   2.065   4.043   1.133  2.4923  0.8908 -0.2305
17378TIP3    H273550   2.157   3.978   1.235 -0.8195 -0.3410  2.1570
17379TIP3   OH273551   4.410   3.062   5.043  0.7253  0.1800 -0.0264
17379TIP3    H173552   4.496   3.103   5.041  0.8711 -0.0963 -2.4272
17379TIP3    H273553   4.349   3.128   5.009  0.0691  0.1926  1.1327
17380TIP3   OH273554   0.154   6.538   2.218 -0.2834  0.1816  0.0935
17380TIP3    H173555   0.121   6.619   2.257 -2.4015 -0.3270 -0.5482
17380TIP3    H273556   0.154   6.554   2.124 -1.8656 -0.9282 -0.1291
17381TIP3   OH273557   2.453   1.413   1.302 -0.2014 -0.3848 -0.1177
17381TIP3    H173558   2.367   1.439   1.335  0.3362 -0.1904  1.2015
17381TIP3    H273559   2.456   1.318   1.314  1.2892 -0.0193  3.9004
17382TIP3   OH273560   1.262   2.228   1.144 -0.1875 -0.2680  0.3542
17382TIP3    H173561   1.260   2.311   1.192  0.0253  1.3863 -2.3332
17382TIP3    H273562   1.178   2.186   1.164  0.3221 -0.2104  2.9523
17383TIP3   OH273563   1.140   5.201  14.255  0.3306 -0.2121  0.0530
17383TIP3    H173564   1.094   5.224  14.174 -1.2751 -0.8616  0.7232
17383TIP3    H273565   1.070   5.190  14.319  1.5768  0.4550  1.5860
17384TIP3   OH273566   4.959   5.931  14.266 -0.0883  0.2284 -0.7860
17384TIP3    H173567   4.891   5.966  14.209  0.4610  4.3759  0.7418
17384TIP3    H273568   5.038   5.978  14.241  0.8824 -0.2324  1.2162
17385TIP3   OH273569   1.915   6.679  16.836 -0.3723  0.3884 -0.3682
17385TIP3    H173570   2.004   6.709  16.852 -0.3546 -1.0598  3.1676
17385TIP3    H273571   1.860   6.748  16.873 -0.5560 -0.1963  0.4902
17386TIP3   OH273572   2.541   2.691   5.353  0.8264 -0.3291  0.1264
17386TIP3    H173573   2.484   2.720   5.423  1.1260 -1.4794  0.8752
17386TIP3    H273574   2.625   2.674   5.395  1.2838 -0.1595 -0.6816
17387TIP3   OH273575   4.675   3.532  15.367 -0.9073  0.5202 -0.1337
17387TIP3    H173576   4.742   3.578  15.416 -0.3878  0.1792 -0.5102
17387TIP3    H273577   4.711   3.444  15.354 -1.7685  0.0813  0.3485
17388TIP3   OH273578   3.520   0.156   3.211  0.2322  0.4575  0.4357
17388TIP3    H173579   3.559   0.225   3.158 -0.3428  0.9520  0.6397
17388TIP3    H273580   3.557   0.075   3.177 -2.3852  0.4396 -2.8067
17389TIP3   OH273581   4.745   4.420   5.619 -0.0139  0.6284  0.3244
17389TIP3    H173582   4.754   4.393   5.710 -2.0168 -0.0268  0.3737
17389TIP3    H273583   4.805   4.364   5.571  0.7498  0.6915  1.1695
17390TIP3   OH273584   0.450   0.608  17.311  0.2487 -0.4148 -0.0253
17390TIP3    H173585   0.529   0.572  17.352  0.3369  0.2416  0.3880
17390TIP3    H273586   0.428   0.685  17.363 -0.7711 -0.6889 -0.0440
17391TIP3   OH273587   4.943   1.789  12.846 -0.5162 -0.0200  0.3011
17391TIP3    H173588   4.887   1.716  12.818  0.5999 -0.9030  0.2831
17391TIP3    H273589   4.978   1.824  12.764 -1.7828  1.1801  0.2382
17392TIP3   OH273590   2.897   4.964  11.034  0.4305  0.5268  0.0924
17392TIP3    H173591   2.841   4.893  11.064  0.2140  0.9263  0.6489
17392TIP3    H273592   2.884   4.967  10.939  0.4124 -0.1444  0.0715
17393TIP3   OH273593   3.423   1.232   6.010  0.7384 -0.4162 -0.2515
17393TIP3    H173594   3.385   1.206   6.095  0.4609 -0.7151 -0.4644
17393TIP3    H273595   3.472   1.311   6.030 -0.0299  0.0051  0.0330
17394TIP3   OH273596   2.424   1.436   5.976  0.1112 -0.1471  0.6474
17394TIP3    H173597   2.369   1.463   6.050  1.7535  2.1662  1.1279
17394TIP3    H273598   2.373   1.458   5.898 -0.6153 -0.2829  1.0741
17395TIP3   OH273599   3.989   1.075  16.046  0.0078 -0.1216 -0.3975
17395TIP3    H173600   4.055   1.025  15.998 -1.7671 -1.7173 -1.3374
17395TIP3    H273601   3.934   1.114  15.977 -0.4989  0.5047  0.3476
17396TIP3   OH273602   5.081   0.987   2.144 -0.0412 -0.1413 -0.6169
17396TIP3    H173603   5.079   0.945   2.230 -1.7147 -0.2038 -0.6375
17396TIP3    H273604   5.136   0.930   2.090  0.2172 -0.6331  0.1536
17397TIP3   OH273605   3.996   0.341   3.692 -0.6087  0.2412  0.2953
17397TIP3    H173606   4.037   0.360   3.608 -1.1537  1.6232  0.3219
17397TIP3    H273607   4.021   0.414   3.749 -1.0566 -0.1694  1.0368
17398TIP3   OH273608   5.844   1.656   6.006 -0.6951 -0.5338 -0.3412
17398TIP3    H173609   5.849   1.605   6.087 -1.2989 -0.7018 -0.4005
17398TIP3    H273610   5.773   1.614   5.957 -0.3914 -0.3757 -0.9176
17399TIP3   OH273611   2.952   4.129   5.895  0.7333 -0.6307  0.3125
17399TIP3    H173612   2.932   4.182   5.818  1.6033  0.0958  0.5672
17399TIP3    H273613   2.938   4.188   5.969  1.2455 -0.8986  0.6312
17400TIP3   OH273614   3.429   6.507  15.498  0.4082  0.0674  0.2632
17400TIP3    H173615   3.475   6.506  15.582 -2.3585 -2.2447  1.9328
17400TIP3    H273616   3.356   6.568  15.511  1.8684  2.4489 -1.7942
17401TIP3   OH273617   0.940   4.832  14.229 -0.0864  0.0751  0.4213
17401TIP3    H173618   1.010   4.829  14.163 -2.7405  0.3296 -2.6434
17401TIP3    H273619   0.897   4.916  14.214 -0.0973  0.7196  3.4378
17402TIP3   OH273620   0.120   0.142  11.975 -0.1862  0.0860  0.0726
17402TIP3    H173621   0.084   0.204  12.038 -0.6173 -0.3429  0.2526
17402TIP3    H273622   0.061   0.067  11.979 -0.1422  0.0028 -0.7513
17403TIP3   OH273623   2.495   6.592  14.220 -0.4943  0.0246 -0.0463
17403TIP3    H173624   2.417   6.550  14.257  0.9359 -1.5087  1.4623
17403TIP3    H273625   2.538   6.633  14.295  1.0564 -0.7491 -0.4485
17404TIP3   OH273626   1.461   3.523   4.225  0.0302  0.4540  0.0033
17404TIP3    H173627   1.527   3.591   4.207 -0.6602  0.6495 -1.9279
17404TIP3    H273628   1.386   3.571   4.260  0.5187  0.3377  1.2727
17405TIP3   OH273629   6.147   0.539  16.735  0.1286  0.6628  0.2497
17405TIP3    H173630   6.144   0.467  16.798  1.6607  1.3298  1.1316
17405TIP3    H273631   6.106   0.612  16.779  1.9754  1.3808  0.8727
17406TIP3   OH273632   4.789   6.519   5.235 -0.5706 -0.2276  0.9136
17406TIP3    H173633   4.740   6.573   5.173  2.3439 -0.7498 -2.1003
17406TIP3    H273634   4.723   6.466   5.278 -2.7793 -0.4159 -2.3643
17407TIP3   OH273635   2.038   4.005  13.203 -0.3347  0.3599 -0.5333
17407TIP3    H173636   1.946   4.012  13.177 -0.8568 -0.1002  1.0956
17407TIP3    H273637   2.056   3.911  13.202  0.7700  0.5104 -2.8248
17408TIP3   OH273638   5.242   4.511   2.360  0.5945  0.8017 -0.3352
17408TIP3    H173639   5.331   4.476   2.361 -0.2750 -1.5980 -0.4910
17408TIP3    H273640   5.190   4.445   2.407 -1.2421  1.7191 -0.9891
17409TIP3   OH273641   1.637   5.835   2.926 -0.1194  0.5335  0.2606
17409TIP3    H173642   1.683   5.781   2.990 -1.3885  1.2345  1.8533
17409TIP3    H273643   1.547   5.840   2.960 -0.8940  0.7782 -1.7025
17410TIP3   OH273644   5.048   3.409   0.333 -0.1910  0.2433  0.2228
17410TIP3    H173645   5.024   3.446   0.248  0.2353 -0.2470 -0.1172
17410TIP3    H273646   5.026   3.478   0.396 -1.1315  0.3544 -0.2098
17411TIP3   OH273647   6.758   5.239  15.218  0.2840  0.1077  0.3784
17411TIP3    H173648   6.694   5.309  15.222  1.9424  1.8366 -1.2829
17411TIP3    H273649   6.808   5.247  15.299 -0.2105  0.1465  0.6812
17412TIP3   OH273650   0.664   4.853  17.208  0.2880 -0.2593 -0.1541
17412TIP3    H173651   0.646   4.759  17.204 -0.6693 -0.0521 -1.3852
17412TIP3    H273652   0.676   4.879  17.117 -0.7375  1.0383  0.0534
17413TIP3   OH273653   2.896   0.538   2.027 -0.2675 -0.0627  0.0853
17413TIP3    H173654   2.855   0.492   2.099  1.3417  1.7229  2.3067
17413TIP3    H273655   2.981   0.566   2.062 -0.7397  3.6994 -1.3446
17414TIP3   OH273656   2.810   4.756  11.205  0.5061 -0.0527  1.0237
17414TIP3    H173657   2.772   4.794  11.285  0.7111  2.0067  0.2072
17414TIP3    H273658   2.736   4.714  11.161  0.4828 -1.6650  2.4896
17415TIP3   OH273659   5.671   6.290  15.504  0.3710  0.7261  1.1180
17415TIP3    H173660   5.583   6.293  15.540 -0.0344 -0.1352  0.2183
17415TIP3    H273661   5.700   6.200  15.516  0.3782  0.5109 -0.3251
17416TIP3   OH273662   4.754   6.168   4.146 -0.4221 -0.3888  0.0228
17416TIP3    H173663   4.786   6.244   4.097 -0.1776 -0.7997 -0.4644
17416TIP3    H273664   4.678   6.201   4.194  1.2616  0.8751  2.0181
17417TIP3   OH273665   0.097   4.911  16.909  0.1259 -0.4065  0.3770
17417TIP3    H173666   0.188   4.882  16.914  0.6176  0.8860 -0.5327
17417TIP3    H273667   0.102   5.003  16.883 -1.4647 -0.6313 -0.9036
17418TIP3   OH273668   4.690   4.669   2.737  0.1132 -0.0393 -0.1314
17418TIP3    H173669   4.679   4.621   2.654  2.8754 -1.6255  0.2794
17418TIP3    H273670   4.655   4.609   2.803 -0.2666  0.3694  0.0426
17419TIP3   OH273671   1.661   0.252   1.595 -0.2466  0.0843  0.2974
17419TIP3    H173672   1.672   0.251   1.690  0.9826  2.0644  0.2186
17419TIP3    H273673   1.674   0.343   1.569  2.1549 -0.7826 -2.0480
17420TIP3   OH273674   3.649   0.158  11.365 -0.9665  0.4776  0.0224
17420TIP3    H173675   3.733   0.141  11.409 -2.0163  1.4357  2.6165
17420TIP3    H273676   3.629   0.076  11.321  1.9047  0.6149 -1.8213
17421TIP3   OH273677   1.765   3.653  12.559  0.0542 -0.6597  0.6089
17421TIP3    H173678   1.713   3.573  12.562  0.9446 -1.2971 -0.1552
17421TIP3    H273679   1.759   3.689  12.648 -1.1961 -1.0164  0.6828
17422TIP3   OH273680   0.015   6.135   2.345  0.5797  0.8150  0.3034
17422TIP3    H173681   0.071   6.065   2.377 -0.6403 -0.3434  0.0215
17422TIP3    H273682  -0.062   6.132   2.402 -0.8621 -0.1567 -1.5859
17423TIP3   OH273683   3.104   1.259   2.585 -0.4686  0.1830  0.1173
17423TIP3    H173684   3.081   1.170   2.611  0.4005 -0.4041 -1.0263
17423TIP3    H273685   3.109   1.256   2.490  1.8243  0.8565  0.1440
17424TIP3   OH273686   3.326   0.360   1.747  0.0294  0.0768 -0.4611
17424TIP3    H173687   3.246   0.330   1.704  0.7094 -0.6008 -1.2732
17424TIP3    H273688   3.353   0.286   1.801  0.3689  0.1385 -0.5482
17425TIP3   OH273689   4.505   3.166  11.639 -0.2826 -0.3870 -0.1090
17425TIP3    H173690   4.600   3.172  11.647 -0.2949  1.6592 -0.7339
17425TIP3    H273691   4.478   3.106  11.708  1.3720 -0.1166  0.8092
17426TIP3   OH273692   0.389   4.755   6.265  0.0061 -0.2114  0.4536
17426TIP3    H173693   0.370   4.846   6.243 -1.2179 -0.8289 -1.3756
17426TIP3    H273694   0.474   4.737   6.225  0.2951  0.1406  0.9024
17427TIP3   OH273695   0.322   3.657  13.737 -0.2984 -0.9819  0.5872
17427TIP3    H173696   0.298   3.620  13.652 -0.6477  1.7764 -0.6227
17427TIP3    H273697   0.409   3.621  13.754 -0.3315 -1.8189 -0.8111
17428TIP3   OH273698   5.901   6.599  12.265  0.4098  0.8373  0.0943
17428TIP3    H173699   5.836   6.609  12.335 -0.0423 -0.4270 -0.1257
17428TIP3    H273700   5.866   6.529  12.210  0.6352  1.9490 -1.5443
17429TIP3   OH273701   4.500   1.444   1.422 -0.0258  0.4606  0.2459
17429TIP3    H173702   4.535   1.418   1.507  2.2466  3.4398  0.3904
17429TIP3    H273703   4.420   1.393   1.412  0.8200 -1.6762  3.0939
17430TIP3   OH273704   0.970   2.099   2.559 -0.0555  0.5362  0.2780
17430TIP3    H173705   0.886   2.082   2.602  0.4613  0.6779  1.3635
17430TIP3    H273706   1.007   2.173   2.606  1.2097 -0.2665  0.5780
17431TIP3   OH273707   4.165   4.425  15.261 -0.2081  0.3497 -0.2478
17431TIP3    H173708   4.204   4.364  15.198 -0.3979 -0.5650  0.5032
17431TIP3    H273709   4.192   4.392  15.347  0.4649  1.8603  0.1547
17432TIP3   OH273710   5.234   0.835  10.790  0.5535 -0.1461  0.7518
17432TIP3    H173711   5.214   0.741  10.792  2.3625 -0.5816  0.4802
17432TIP3    H273712   5.149   0.878  10.797 -0.5857 -1.7875 -1.6470
17433TIP3   OH273713   2.681   3.315   2.731 -0.2792  0.4228 -0.6218
17433TIP3    H173714   2.731   3.283   2.806  1.7157 -0.1832 -2.1324
17433TIP3    H273715   2.590   3.295   2.753  0.2981 -0.3694  1.3004
17434TIP3   OH273716   6.662   0.564   0.762  0.4159 -0.2304 -0.0189
17434TIP3    H173717   6.691   0.479   0.728  0.5591  0.8885 -3.0174
17434TIP3    H273718   6.738   0.621   0.749 -0.1964  0.7147  0.5007
17435TIP3   OH273719   4.964   6.380  13.211  0.1422 -0.1215  0.1431
17435TIP3    H173720   4.908   6.425  13.274 -0.6148  2.3481 -2.1231
17435TIP3    H273721   4.905   6.319  13.167 -0.2974  0.9446 -0.7810
17436TIP3   OH273722   0.224   2.740   4.308  0.1896  0.5509  0.1879
17436TIP3    H173723   0.166   2.757   4.234  0.5220 -1.2797 -0.5614
17436TIP3    H273724   0.306   2.784   4.285 -0.3291  1.6823  0.4380
17437TIP3   OH273725   1.954   6.073   2.662  0.0669 -0.3927 -0.8131
17437TIP3    H173726   1.926   5.982   2.651  2.0447 -1.0159 -1.1905
17437TIP3    H273727   2.024   6.068   2.727 -1.7012  1.2939  1.3658
17438TIP3   OH273728   5.673   0.734  15.032  0.6481 -0.1209  0.0471
17438TIP3    H173729   5.629   0.648  15.030 -0.0989  0.2053  1.1437
17438TIP3    H273730   5.750   0.720  15.087 -0.1323  0.1599  1.2719
17439TIP3   OH273731   3.256   5.519  14.383  0.1163 -0.3171 -0.1446
17439TIP3    H173732   3.222   5.507  14.295  1.1737 -1.4023 -0.4391
17439TIP3    H273733   3.193   5.475  14.440 -1.7201  2.1993 -0.0650
17440TIP3   OH273734   1.180   5.674   0.605  0.0378 -0.4323 -0.3734
17440TIP3    H173735   1.123   5.751   0.611  0.1613 -0.2089 -1.7426
17440TIP3    H273736   1.268   5.711   0.601  0.1150 -0.6551 -0.7346
17441TIP3   OH273737   1.579   3.365  16.787  0.2224  0.6930  0.1571
17441TIP3    H173738   1.646   3.400  16.728  0.2443  0.8251  0.2595
17441TIP3    H273739   1.629   3.316  16.853  0.0854 -1.0974 -1.0277
17442TIP3   OH273740   1.923   3.986   2.578  0.7755 -0.6442  0.2873
17442TIP3    H173741   1.925   3.944   2.664  2.8457  0.1545  0.6882
17442TIP3    H273742   2.011   4.023   2.567  0.7315 -1.1236 -2.3885
17443TIP3   OH273743   4.312   0.897  13.699  0.3272  0.3188 -0.1457
17443TIP3    H173744   4.292   0.804  13.683 -0.8156  0.5863 -0.3435
17443TIP3    H273745   4.243   0.944  13.653  0.8680  1.2761  0.0086
17444TIP3   OH273746   0.140   0.617  12.893 -0.0767  0.4630  0.1141
17444TIP3    H173747   0.122   0.523  12.897  1.0916  0.2160  0.0496
17444TIP3    H273748   0.087   0.655  12.963 -0.7071 -0.2165  0.0172
17445TIP3   OH273749   3.462   4.735   5.271 -0.1654  0.7937 -0.1476
17445TIP3    H173750   3.408   4.658   5.290 -0.7676  1.5041  1.1505
17445TIP3    H273751   3.535   4.730   5.333  0.1108  0.9609 -0.4576
17446TIP3   OH273752   3.219   2.803  13.696  0.5816  0.0508  0.5924
17446TIP3    H173753   3.215   2.708  13.691  0.1601  0.1076 -0.2605
17446TIP3    H273754   3.195   2.833  13.608  1.5779  0.9179  0.6015
17447TIP3   OH273755   5.459   6.575  16.467 -0.3170 -0.3376  0.2998
17447TIP3    H173756   5.537   6.630  16.460 -1.1770  1.0674  1.1742
17447TIP3    H273757   5.477   6.518  16.542  0.7002 -1.5207 -0.7908
17448TIP3   OH273758   4.302   2.749   6.851 -0.2458  0.4450  0.2133
17448TIP3    H173759   4.304   2.665   6.897  0.5575  0.8094  0.8668
17448TIP3    H273760   4.351   2.809   6.907  0.1453  1.0867 -0.7809
17449TIP3   OH273761   6.021   1.915  12.061 -0.4228 -0.5834  0.3499
17449TIP3    H173762   6.098   1.884  12.109 -1.4368 -0.5077  2.1336
17449TIP3    H273763   5.951   1.857  12.089 -1.1387 -0.2973 -0.8011
17450TIP3   OH273764   4.557   3.641   6.305 -0.0409  0.3067  0.1301
17450TIP3    H173765   4.567   3.736   6.308 -2.1760  0.6390 -0.8819
17450TIP3    H273766   4.467   3.627   6.276  0.2669 -2.0413  0.0471
17451TIP3   OH273767   6.273   1.017  11.736  0.1614  0.1181 -0.2455
17451TIP3    H173768   6.223   0.990  11.659 -1.8675  1.3449  0.5484
17451TIP3    H273769   6.206   1.045  11.799  1.7443 -0.8842  2.0007
17452TIP3   OH273770   3.116   3.379  13.120 -0.0663  0.8059 -0.5741
17452TIP3    H173771   3.210   3.363  13.131 -0.1364 -0.0987 -1.1811
17452TIP3    H273772   3.111   3.442  13.049  0.1490  2.5728  0.8847
17453TIP3   OH273773   4.995   1.110  16.320  0.2977 -0.7038 -0.3626
17453TIP3    H173774   5.028   1.121  16.409  0.2256  0.4382 -0.4544
17453TIP3    H273775   5.008   1.196  16.280  0.5316 -1.2623 -1.5236
17454TIP3   OH273776   0.013   4.765  13.049  0.2514  0.3864  0.2228
17454TIP3    H173777  -0.057   4.762  12.984 -1.0937  0.5667  1.5980
17454TIP3    H273778   0.073   4.832  13.017  1.2670 -1.5905 -2.3431
17455TIP3   OH273779   6.514   4.890  16.727 -0.0577  0.4312 -0.3427
17455TIP3    H173780   6.461   4.865  16.652 -1.4044 -0.8707  0.9666
17455TIP3    H273781   6.503   4.818  16.789  0.6253  1.6696  1.2967
17456TIP3   OH273782   4.160   5.274  13.525 -0.0471 -0.3628  0.2134
17456TIP3    H173783   4.235   5.253  13.581 -0.7009 -0.4457  1.0616
17456TIP3    H273784   4.146   5.368  13.538 -1.3177 -0.7158  1.5937
17457TIP3   OH273785   5.808   1.840  14.304 -0.3335 -0.1107  0.2663
17457TIP3    H173786   5.725   1.824  14.348 -0.2685  0.5959  0.6699
17457TIP3    H273787   5.787   1.836  14.211 -1.0247  0.9367  0.3521
17458TIP3   OH273788   0.481   0.158   2.304  0.0719 -0.3823 -0.1893
17458TIP3    H173789   0.552   0.217   2.278 -1.3785  1.0404 -1.0733
17458TIP3    H273790   0.480   0.090   2.237  0.8590 -0.6522  0.0621
17459TIP3   OH273791   3.186   4.526  13.412  0.7152  0.0294  0.1568
17459TIP3    H173792   3.266   4.479  13.388  1.2655  1.4088 -0.7950
17459TIP3    H273793   3.119   4.491  13.353  0.5169 -1.2650  1.0820
17460TIP3   OH273794   0.191   2.837   2.662 -0.4300  0.0363 -0.0505
17460TIP3    H173795   0.242   2.892   2.603 -1.0902 -1.7391 -2.4557
17460TIP3    H273796   0.240   2.837   2.744  1.5979  1.1083 -1.1877
17461TIP3   OH273797   5.108   0.168  17.080 -0.0975  0.5208  0.2565
17461TIP3    H173798   5.059   0.086  17.090 -0.5318  0.8109  0.5386
17461TIP3    H273799   5.046   0.236  17.107  0.6967  0.8331  1.3503
17462TIP3   OH273800   3.008   0.505  13.793  0.0547 -0.0825  0.2093
17462TIP3    H173801   3.059   0.445  13.848  1.6792  0.7467 -0.3322
17462TIP3    H273802   3.046   0.497  13.706 -0.4026  0.9323 -0.1046
17463TIP3   OH273803   0.578   3.525  11.294 -0.4882  0.4853 -0.0122
17463TIP3    H173804   0.655   3.576  11.270  0.0162 -0.8722 -1.4901
17463TIP3    H273805   0.575   3.530  11.390  1.9579 -0.1225  0.1689
17464TIP3   OH273806   5.017   4.822   0.332  0.3465  0.4259 -0.2177
17464TIP3    H173807   5.004   4.734   0.297 -0.5596  1.4591 -2.6991
17464TIP3    H273808   5.112   4.828   0.348  0.3796 -1.0616  0.2691
17465TIP3   OH273809   5.851   1.170   4.000 -0.2910 -0.0007 -0.2988
17465TIP3    H173810   5.937   1.164   4.042 -0.5869 -0.7455  0.2379
17465TIP3    H273811   5.795   1.112   4.052 -0.3832 -2.0137 -2.4839
17466TIP3   OH273812   2.216   2.470  16.966  0.1972 -0.3212  0.1235
17466TIP3    H173813   2.306   2.500  16.977 -0.4432  1.2631  1.4297
17466TIP3    H273814   2.191   2.438  17.053  0.3727 -3.4595 -0.8837
17467TIP3   OH273815   3.239   3.424   4.921 -0.4045  0.1228  0.0521
17467TIP3    H173816   3.248   3.420   4.826  0.1729  3.1458 -0.1175
17467TIP3    H273817   3.144   3.431   4.936 -0.4904 -0.2758 -0.2902
17468TIP3   OH273818   2.186   1.145   6.014 -0.2812 -0.4977 -0.5097
17468TIP3    H173819   2.182   1.222   6.072  1.8500 -0.6879 -0.0129
17468TIP3    H273820   2.210   1.181   5.929  4.3308 -0.7106  0.4424
17469TIP3   OH273821   6.550   0.875  16.758 -0.6193  0.6127 -0.2259
17469TIP3    H173822   6.526   0.900  16.848 -0.7347  0.8358 -0.3173
17469TIP3    H273823   6.468   0.847  16.718 -0.3168 -0.9203  0.1853
17470TIP3   OH273824   1.124   0.630   2.968  0.2246 -0.3416 -0.6470
17470TIP3    H173825   1.048   0.630   3.026  1.2533  1.4578  0.8092
17470TIP3    H273826   1.091   0.662   2.884 -0.6312  0.4159 -0.0319
17471TIP3   OH273827   0.686   3.623   5.801  0.4930  0.3734 -0.7034
17471TIP3    H173828   0.744   3.607   5.876  0.8593  1.1046 -0.8227
17471TIP3    H273829   0.665   3.536   5.769  0.6836  0.0628 -0.0148
17472TIP3   OH273830   4.454   3.859   0.459 -0.2574  0.4104 -0.0139
17472TIP3    H173831   4.408   3.936   0.425 -0.5432  0.3336  0.2023
17472TIP3    H273832   4.399   3.827   0.529  0.8932  1.2638  1.3413
17473TIP3   OH273833   4.024   6.587   5.149  0.6153 -0.1681 -0.4522
17473TIP3    H173834   3.935   6.557   5.128  1.4768 -1.4529 -2.6674
17473TIP3    H273835   4.013   6.646   5.223 -1.9296 -1.3390  0.2088
17474TIP3   OH273836   0.558   5.671  13.200  0.0358  0.3815 -0.3168
17474TIP3    H173837   0.496   5.599  13.202  0.6481 -0.1718 -0.8751
17474TIP3    H273838   0.573   5.693  13.293  2.0079 -2.1312  0.0803
17475TIP3   OH273839   6.708   3.980  13.339  0.4649  0.0395  0.1370
17475TIP3    H173840   6.666   4.049  13.392  0.5341  1.6985 -1.8416
17475TIP3    H273841   6.774   4.027  13.288 -1.1126 -1.0065 -3.0855
17476TIP3   OH273842   6.626   1.099  14.993 -0.3333  0.7454 -0.5555
17476TIP3    H173843   6.605   1.079  14.901 -0.7265  2.1711 -0.8062
17476TIP3    H273844   6.606   1.019  15.040  1.8496 -0.7267 -1.9639
17477TIP3   OH273845   6.767   0.410  10.608 -0.2028 -0.2925 -0.0141
17477TIP3    H173846   6.731   0.323  10.626 -1.1500 -0.1448 -1.0985
17477TIP3    H273847   6.691   0.468  10.608  0.4567  0.6021  0.9885
17478TIP3   OH273848   2.166   5.781  16.685  0.4450 -0.1301  0.4343
17478TIP3    H173849   2.106   5.788  16.611  0.0894 -1.8457  0.5337
17478TIP3    H273850   2.253   5.771  16.645  0.6534  1.7665  0.2934
17479TIP3   OH273851   6.570   2.771   2.243 -0.4414 -0.0013 -0.3087
17479TIP3    H173852   6.489   2.753   2.196 -1.4723  0.9292  1.0423
17479TIP3    H273853   6.586   2.691   2.294  1.3175 -1.4953 -2.9633
17480TIP3   OH273854   2.521   6.008  12.891  0.0667  0.2179  0.3396
17480TIP3    H173855   2.569   5.972  12.816  0.3481 -1.0736  1.0940
17480TIP3    H273856   2.589   6.031  12.954 -0.2130  0.3803  0.5807
17481TIP3   OH273857   6.491   0.895  11.803 -0.5339  0.0823 -0.2453
17481TIP3    H173858   6.425   0.960  11.781  0.3875  0.9555 -0.4789
17481TIP3    H273859   6.528   0.868  11.719  0.2225  0.4781 -0.0463
17482TIP3   OH273860   2.131   1.248   0.801  0.1776 -0.1143  0.4979
17482TIP3    H173861   2.087   1.176   0.848 -1.0224 -0.0366 -0.4604
17482TIP3    H273862   2.199   1.204   0.749 -0.6700 -0.6089 -0.2265
17483TIP3   OH273863   2.696   1.434  16.398  0.3421 -0.0041 -0.6606
17483TIP3    H173864   2.618   1.485  16.381  0.3865 -0.2271 -1.5880
17483TIP3    H273865   2.692   1.361  16.335 -0.0018 -1.4600  0.9623
17484TIP3   OH273866   2.844   4.674  13.407 -0.1791  0.0150 -0.0879
17484TIP3    H173867   2.838   4.736  13.479 -1.6637  1.0319 -1.0411
17484TIP3    H273868   2.887   4.723  13.337 -0.1684 -0.4609 -0.4222
17485TIP3   OH273869   4.067   5.043  15.180  0.1073  0.6256  0.1886
17485TIP3    H173870   3.976   5.060  15.205 -0.2578  0.8859 -1.1977
17485TIP3    H273871   4.085   4.954  15.210 -0.3119  0.8931  1.2534
17486TIP3   OH273872   2.522   3.918   3.579 -0.0659  0.7545 -0.7223
17486TIP3    H173873   2.503   4.011   3.596 -0.4107  0.5572  0.0018
17486TIP3    H273874   2.448   3.871   3.618 -0.1408  0.1946 -1.5196
17487TIP3   OH273875   3.498   6.280  12.976  0.6061  0.4362 -0.5566
17487TIP3    H173876   3.477   6.373  12.964  1.6958  0.6148 -1.2490
17487TIP3    H273877   3.587   6.280  13.010  0.8248 -0.3774 -1.1012
17488TIP3   OH273878   5.755   5.877   5.160  0.0933 -0.0687 -0.1179
17488TIP3    H173879   5.794   5.945   5.105 -1.2756 -0.4725 -1.6495
17488TIP3    H273880   5.692   5.923   5.215  1.6436  0.3749  1.3918
17489TIP3   OH273881   4.915   3.402  12.027 -0.2853  0.3985 -0.2385
17489TIP3    H173882   4.858   3.414  12.104 -0.2819  0.2871 -0.2172
17489TIP3    H273883   4.864   3.437  11.954  0.4475  2.1951  0.0651
17490TIP3   OH273884   4.341   5.169  15.173  0.6720 -0.0625  0.0944
17490TIP3    H173885   4.379   5.084  15.198 -0.0848 -1.0213 -1.8103
17490TIP3    H273886   4.247   5.157  15.185  0.6105  0.7256  0.3990
17491TIP3   OH273887   4.223   4.785  13.751  0.1126  0.0820 -0.5885
17491TIP3    H173888   4.134   4.760  13.773  0.2990  0.6115  0.8648
17491TIP3    H273889   4.252   4.718  13.688 -1.1834 -0.2605 -0.8529
17492TIP3   OH273890   3.786   3.607  13.986  0.1792  0.5250 -0.4239
17492TIP3    H173891   3.765   3.700  13.979  0.7077  0.7697  0.9914
17492TIP3    H273892   3.879   3.605  14.008 -0.1662 -0.2623  1.1055
17493TIP3   OH273893   6.462   4.365  12.949  0.3285 -0.6731  0.4789
17493TIP3    H173894   6.423   4.321  13.025  0.3675 -0.8644  0.3885
17493TIP3    H273895   6.556   4.364  12.966  0.5892 -3.0118 -0.7597
17494TIP3   OH273896   3.695   2.313  12.828  0.9057  0.4572 -0.2886
17494TIP3    H173897   3.776   2.263  12.843 -0.5553 -1.0842  3.5175
17494TIP3    H273898   3.694   2.378  12.898 -0.9735  0.6341 -0.4344
17495TIP3   OH273899   1.223   4.498   5.450 -0.4172 -0.1544  0.6643
17495TIP3    H173900   1.218   4.475   5.357 -1.5976 -0.1821  0.7138
17495TIP3    H273901   1.266   4.583   5.452  0.1970 -0.4479  0.1411
17496TIP3   OH273902   1.263   5.858   2.658 -0.1888 -0.2364  0.5058
17496TIP3    H173903   1.260   5.797   2.732 -2.2373 -2.2703 -1.0955
17496TIP3    H273904   1.345   5.837   2.614  0.7682  0.5982  1.8057
17497TIP3   OH273905   6.277   6.116  12.071 -0.4773 -0.0605  0.1107
17497TIP3    H173906   6.265   6.023  12.086  3.8170 -0.6492  1.2273
17497TIP3    H273907   6.224   6.159  12.139  0.7043 -1.8969  2.3145
17498TIP3   OH273908   6.095   3.328  14.001 -0.0076  0.1528  0.0276
17498TIP3    H173909   6.097   3.369  14.087 -0.5247 -1.0303  0.6407
17498TIP3    H273910   6.176   3.356  13.959  1.2629 -0.8184  1.6722
17499TIP3   OH273911   0.341   5.651   0.858 -0.5246 -0.4741  0.1988
17499TIP3    H173912   0.353   5.565   0.817  2.9359  0.3432 -0.8732
17499TIP3    H273913   0.390   5.645   0.940 -2.1315 -0.1266  1.2335
17500TIP3   OH273914   2.723   0.498  15.511 -0.3485  0.0827 -0.2156
17500TIP3    H173915   2.688   0.454  15.589 -0.2866  1.0899  0.3938
17500TIP3    H273916   2.707   0.436  15.440 -1.0159 -0.5716  0.4827
17501TIP3   OH273917   5.312   4.555   3.400 -0.4581  0.5048 -0.1707
17501TIP3    H173918   5.382   4.584   3.460 -0.4760  0.1849  0.0033
17501TIP3    H273919   5.339   4.589   3.315  0.3393 -0.3145 -0.2625
17502TIP3   OH273920   1.362   1.203  15.180  0.4474  0.1044 -0.4890
17502TIP3    H173921   1.405   1.140  15.238  1.5192  1.1779 -0.0877
17502TIP3    H273922   1.270   1.200  15.205  0.7427 -0.1539  0.6137
17503TIP3   OH273923   6.038   3.547  11.742  0.1392  0.0715  0.0047
17503TIP3    H173924   6.028   3.627  11.795  1.3288  1.6804 -2.0663
17503TIP3    H273925   6.133   3.532  11.740  0.1111 -0.0054 -1.5479
17504TIP3   OH273926   1.932   4.060  14.811 -0.5151 -0.4532  0.5902
17504TIP3    H173927   2.001   3.995  14.820  0.1109  0.3879  2.5203
17504TIP3    H273928   1.855   4.019  14.850 -0.8233 -0.9791 -0.5520
17505TIP3   OH273929   0.232   0.137  16.437 -0.2941 -0.2869  0.4194
17505TIP3    H173930   0.154   0.111  16.388 -0.3554 -1.3564  1.0479
17505TIP3    H273931   0.208   0.221  16.477 -1.6974 -1.2975  1.8077
17506TIP3   OH273932   0.514   0.443  15.133 -0.6506 -0.2494 -0.1238
17506TIP3    H173933   0.436   0.387  15.139  0.3499 -1.9392 -1.8030
17506TIP3    H273934   0.526   0.458  15.040  1.0299 -0.0204  0.0972
17507TIP3   OH273935   4.163   0.146   4.956 -0.2994  0.1297 -0.3350
17507TIP3    H173936   4.164   0.237   4.925 -0.7881  0.3537  0.2854
17507TIP3    H273937   4.163   0.094   4.876  1.2485  0.6401 -0.7142
17508TIP3   OH273938   1.885   2.999   2.211  0.7241  0.4825 -0.3042
17508TIP3    H173939   1.955   2.941   2.182  1.0752  1.9718 -2.7577
17508TIP3    H273940   1.818   2.992   2.143 -2.4201 -2.0571  2.6736
17509TIP3   OH273941   3.620   0.759  13.879  0.2205  0.1364 -0.1957
17509TIP3    H173942   3.621   0.786  13.971  0.5287 -1.1648  0.1982
17509TIP3    H273943   3.706   0.784  13.845  1.3585 -2.2194  0.7568
17510TIP3   OH273944   5.528   5.346  15.497  0.0091  0.1455 -0.6377
17510TIP3    H173945   5.441   5.327  15.533  0.6537  0.7572  1.3430
17510TIP3    H273946   5.544   5.273  15.437 -1.3494 -0.6505 -0.0977
17511TIP3   OH273947   4.175   5.906  13.563  0.2545  0.5578 -0.4744
17511TIP3    H173948   4.181   5.835  13.627 -1.5800  0.9373  0.1731
17511TIP3    H273949   4.086   5.901  13.529  0.3639  2.0012 -1.0727
17512TIP3   OH273950   4.072   1.682  15.054  0.2708 -0.5960 -0.0784
17512TIP3    H173951   4.149   1.726  15.018 -0.2595 -0.6485 -1.3409
17512TIP3    H273952   4.057   1.724  15.139  2.8304 -1.9215  1.1587
17513TIP3   OH273953   0.547   0.959  10.464 -0.1402  0.0672  0.0139
17513TIP3    H173954   0.640   0.979  10.470 -0.5069  2.1978 -0.5118
17513TIP3    H273955   0.515   0.969  10.554  0.1574 -0.9444  0.2466
17514TIP3   OH273956   5.777   5.822   6.538 -0.3377  0.1211 -0.2833
17514TIP3    H173957   5.810   5.858   6.456 -0.5048 -0.7660 -0.7462
17514TIP3    H273958   5.704   5.880   6.562 -1.1267 -0.3565 -1.4425
17515TIP3   OH273959   0.389   4.315   5.171  0.0062  0.7145 -0.3979
17515TIP3    H173960   0.381   4.403   5.133 -2.5099  0.5063 -0.4620
17515TIP3    H273961   0.356   4.324   5.260 -3.4855 -0.7453 -1.3988
17516TIP3   OH273962   3.505   4.324   2.417 -0.3786 -0.3398  0.8791
17516TIP3    H173963   3.418   4.363   2.404 -0.0185  0.2336  0.0604
17516TIP3    H273964   3.548   4.383   2.479 -0.6214 -0.7101  1.4051
17517TIP3   OH273965   1.605   6.350  17.223  0.2288 -0.3069  0.2345
17517TIP3    H173966   1.643   6.307  17.300  0.8346 -1.1353 -0.5092
17517TIP3    H273967   1.511   6.336  17.232  0.3845 -1.4763  0.2126
17518TIP3   OH273968   0.098   3.880  15.316 -0.4305  0.0580  0.2144
17518TIP3    H173969   0.139   3.926  15.390 -1.9017  1.6454  0.0803
17518TIP3    H273970   0.049   3.809  15.357 -0.4108  0.3042  0.6725
17519TIP3   OH273971   6.429   4.087   0.097  0.2534 -0.0505 -0.2923
17519TIP3    H173972   6.427   3.995   0.123 -2.6527 -0.2342 -0.8238
17519TIP3    H273973   6.476   4.131   0.168 -0.2284 -1.6485  1.0792
17520TIP3   OH273974   4.423   4.099   4.752 -0.1657 -0.0602  0.0007
17520TIP3    H173975   4.364   4.056   4.689 -2.8232  0.9041  1.6802
17520TIP3    H273976   4.429   4.038   4.825  0.1705  0.2778  0.2584
17521TIP3   OH273977   4.636   0.217  16.515  0.0588 -0.2074  0.3519
17521TIP3    H173978   4.682   0.301  16.518 -2.2240  1.0865  0.6782
17521TIP3    H273979   4.644   0.183  16.604 -0.5856  0.5680  0.7158
17522TIP3   OH273980   1.633   4.530   2.045  0.1398 -0.5480 -0.6172
17522TIP3    H173981   1.664   4.610   2.002  1.4923 -0.2958  0.7485
17522TIP3    H273982   1.538   4.537   2.042  0.1822 -0.1438 -2.7724
17523TIP3   OH273983   0.935   0.893   3.349 -0.1650 -0.0508 -0.2819
17523TIP3    H173984   0.880   0.941   3.288  0.2993  1.6675  0.5886
17523TIP3    H273985   0.892   0.904   3.434  0.7657  0.1394  0.1817
17524TIP3   OH273986   2.694   6.760   4.273 -0.5413 -0.1705 -0.0275
17524TIP3    H173987   2.723   6.734   4.185 -1.3064  2.0179 -0.9984
17524TIP3    H273988   2.759   6.723   4.331  0.3883 -1.0967 -1.5785
17525TIP3   OH273989   3.424   3.780   2.482  0.2147  0.5441  0.2435
17525TIP3    H173990   3.405   3.715   2.415 -1.1636  0.3081  0.8366
17525TIP3    H273991   3.520   3.787   2.482  0.3090 -0.4712 -0.7654
17526TIP3   OH273992   5.169   1.260   0.639 -0.6390  0.6274 -0.0258
17526TIP3    H173993   5.184   1.287   0.729 -0.7170  0.4420  0.0417
17526TIP3    H273994   5.247   1.289   0.592  0.2036 -0.8097  0.4290
17527TIP3   OH273995   2.914   0.002  13.614  0.3275  0.2010  0.5038
17527TIP3    H173996   2.894   0.041  13.529 -0.6565 -1.6074 -0.1368
17527TIP3    H273997   2.853  -0.072  13.622  2.3315 -1.4645  1.4522
17528TIP3   OH273998   5.403   0.425   0.084 -0.0242 -0.3317 -0.7142
17528TIP3    H173999   5.357   0.478   0.150  0.4830 -1.3802  0.5233
17528TIP3    H274000   5.383   0.468   0.001  0.0039  1.5253  0.1950
17529TIP3   OH274001   0.408   4.072  14.093  0.1536 -0.5329  0.3304
17529TIP3    H174002   0.454   4.139  14.043 -0.4566 -0.0693  0.3796
17529TIP3    H274003   0.362   4.020  14.027 -1.0806  0.4039  0.4262
17530TIP3   OH274004   5.561   0.599  14.231  0.0310 -0.3636 -0.4955
17530TIP3    H174005   5.466   0.598  14.226 -0.0052 -1.1267  0.1336
17530TIP3    H274006   5.589   0.517  14.190  0.3234 -0.8371  0.5873
17531TIP3   OH274007   3.317   5.108   1.233 -0.0513  0.4170  0.4444
17531TIP3    H174008   3.326   5.025   1.279 -1.9351 -0.0486  0.0469
17531TIP3    H274009   3.341   5.087   1.142 -1.4309  0.0614  0.1486
17532TIP3   OH274010   2.966   6.711  14.593 -0.3276  0.5889 -0.1448
17532TIP3    H174011   2.933   6.659  14.521 -0.9326  0.2159  0.3965
17532TIP3    H274012   2.933   6.668  14.672  1.3864  0.2326  0.4195
17533TIP3   OH274013   4.163   5.014   3.073  0.0634  0.1453  0.1109
17533TIP3    H174014   4.167   4.965   3.155 -1.7812 -0.0118  0.1338
17533TIP3    H274015   4.083   4.983   3.030  0.9337  0.2908 -1.7244
17534TIP3   OH274016   3.040   6.491   1.109 -0.0022  0.2092  0.1562
17534TIP3    H174017   3.048   6.421   1.044  0.0674  0.0863  0.2956
17534TIP3    H274018   3.130   6.515   1.130 -0.0240  0.2274  0.2301
17535TIP3   OH274019   2.469   4.726  14.022 -0.1231 -0.0628  0.1769
17535TIP3    H174020   2.499   4.664  14.088  0.9775 -1.4127 -1.4857
17535TIP3    H274021   2.508   4.694  13.940  0.2504  2.6695 -0.8189
17536TIP3   OH274022   2.896   5.843  12.102  0.3052  0.7847  0.4903
17536TIP3    H174023   2.924   5.928  12.133 -0.8087  2.2551 -2.1490
17536TIP3    H274024   2.821   5.862  12.045  1.7465 -1.5319 -2.5110
17537TIP3   OH274025   0.666   5.061  12.553  0.0037 -0.1059  0.9349
17537TIP3    H174026   0.727   4.996  12.589 -0.4271 -0.7190  0.5706
17537TIP3    H274027   0.722   5.137  12.533  0.5006 -0.3319  1.4297
17538TIP3   OH274028   2.771   0.107  15.504  0.4764 -0.4599  0.1256
17538TIP3    H174029   2.749   0.147  15.588  0.1255  0.8959 -0.5840
17538TIP3    H274030   2.866   0.115  15.498  0.4115  0.3517 -0.0201
17539TIP3   OH274031   4.410   1.061  11.699 -0.0459 -0.1270 -0.0111
17539TIP3    H174032   4.367   1.137  11.737 -0.2233 -0.7745  1.1215
17539TIP3    H274033   4.449   1.094  11.617 -0.0177  1.1916  0.5093
17540TIP3   OH274034   5.026   3.638  15.689 -0.3098  0.2952 -0.4634
17540TIP3    H174035   5.065   3.603  15.608 -0.2170 -0.0038 -0.2911
17540TIP3    H274036   4.989   3.722  15.663 -1.1856 -0.2534 -1.0632
17541TIP3   OH274037   5.970   2.652   3.235 -0.3321  0.1012 -0.7170
17541TIP3    H174038   5.999   2.649   3.143 -0.3217 -1.3536 -0.6760
17541TIP3    H274039   5.907   2.581   3.243  0.8278 -0.8314  0.7903
17542TIP3   OH274040   2.786   2.214  12.969  0.4333  0.3220  0.0218
17542TIP3    H174041   2.702   2.182  12.936  0.3344 -0.6542  1.1387
17542TIP3    H274042   2.851   2.175  12.910  0.2578 -1.3367  0.8637
17543TIP3   OH274043   0.404   2.041  17.259  0.1262 -0.5493 -0.0965
17543TIP3    H174044   0.382   2.117  17.313 -0.1035  0.9070 -2.1367
17543TIP3    H274045   0.350   1.971  17.294 -1.1570  0.7264  0.6049
17544TIP3   OH274046   0.270   2.720   0.325  0.0813 -0.5337  0.0322
17544TIP3    H174047   0.279   2.698   0.232 -0.8920  0.6371 -0.3662
17544TIP3    H274048   0.178   2.744   0.335  0.5134  0.8970  0.9440
17545TIP3   OH274049   2.857   6.595  14.368  0.3103  0.9269  0.2068
17545TIP3    H174050   2.862   6.609  14.273 -1.1387 -2.2737 -0.4679
17545TIP3    H274051   2.798   6.521  14.378  2.3940 -0.5278  3.4679
17546TIP3   OH274052   0.329   0.336  11.554  0.2275  0.1652 -0.0040
17546TIP3    H174053   0.420   0.308  11.552  0.1715 -0.0379  0.3055
17546TIP3    H274054   0.283   0.267  11.602 -0.0382  0.4155  0.1064
17547TIP3   OH274055   3.441   2.931   3.001  0.2456  0.2994  0.4848
17547TIP3    H174056   3.447   3.007   3.059 -0.5520 -0.4426  1.5769
17547TIP3    H274057   3.353   2.937   2.964  1.3566  1.8222 -2.2348
17548TIP3   OH274058   0.045   2.479   5.305 -0.9133 -0.3006 -0.1678
17548TIP3    H174059   0.030   2.524   5.388  0.1421  0.5706 -0.4398
17548TIP3    H274060   0.112   2.413   5.325  0.0179  0.5283 -0.5268
17549TIP3   OH274061   3.941   0.033   1.300  0.4198  0.1354 -0.1774
17549TIP3    H174062   3.874  -0.031   1.322 -0.1283  1.0328  0.9035
17549TIP3    H274063   4.015   0.010   1.356  0.2857  0.3264  0.0826
17550TIP3   OH274064   2.876   4.351  11.705 -0.0866 -0.3959  0.4301
17550TIP3    H174065   2.854   4.395  11.623  1.0681  0.0589  0.3549
17550TIP3    H274066   2.926   4.274  11.678  0.2476 -0.2735  0.6998
17551TIP3   OH274067   5.514   2.672  10.811 -0.3690 -0.1964 -0.3955
17551TIP3    H174068   5.488   2.735  10.878 -1.8929  0.3960 -1.4733
17551TIP3    H274069   5.437   2.618  10.797  0.5925 -1.6763 -0.2253
17552TIP3   OH274070   5.274   0.854  16.733 -0.3765 -0.0347 -0.1677
17552TIP3    H174071   5.182   0.833  16.722 -0.4274 -0.1751  0.5113
17552TIP3    H274072   5.306   0.794  16.800  0.5810 -1.0066 -1.4418
17553TIP3   OH274073   0.236   3.794  15.649  0.4052  0.2747  0.3073
17553TIP3    H174074   0.195   3.826  15.729 -1.2464  1.1961 -0.8382
17553TIP3    H274075   0.208   3.702  15.643 -2.9933  1.2780 -1.2382
17554TIP3   OH274076   1.794   2.570   1.445 -0.1027 -0.0531  0.1275
17554TIP3    H174077   1.870   2.523   1.412 -0.1379  0.1697 -0.2747
17554TIP3    H274078   1.790   2.546   1.538  0.7036  0.2556  0.2540
17555TIP3   OH274079   2.249   2.995   1.157 -0.3952  0.2495 -0.8177
17555TIP3    H174080   2.300   3.065   1.116 -0.5641 -0.2366 -1.9030
17555TIP3    H274081   2.312   2.923   1.167 -0.3366  0.3898 -0.1284
17556TIP3   OH274082   4.425   6.056  11.234  0.1213 -0.0155 -0.4689
17556TIP3    H174083   4.463   5.993  11.174  1.1844  0.9225 -0.8177
17556TIP3    H274084   4.332   6.058  11.211  0.3775 -0.2028 -1.5840
17557TIP3   OH274085   3.010   5.520  15.980 -0.3843 -0.1360  0.0135
17557TIP3    H174086   2.926   5.501  15.938 -0.5273  1.3852 -0.4601
17557TIP3    H274087   2.986   5.561  16.063 -0.0988 -0.9363  0.4964
17558TIP3   OH274088   2.838   2.710   5.859  0.5771 -0.2037 -0.0354
17558TIP3    H174089   2.900   2.712   5.786  1.6628  2.3833  0.8527
17558TIP3    H274090   2.844   2.620   5.892  2.6747 -0.4827 -0.9738
17559TIP3   OH274091   0.794   4.240   0.368 -0.0364 -0.3836 -0.3933
17559TIP3    H174092   0.715   4.292   0.384  0.7369  0.9102 -0.6431
17559TIP3    H274093   0.796   4.176   0.439 -0.8245  0.1617  0.1338
17560TIP3   OH274094   4.112   2.287   5.522 -0.2812  0.2595  0.1417
17560TIP3    H174095   4.168   2.339   5.578 -1.0298  1.2686 -0.0226
17560TIP3    H274096   4.165   2.270   5.444  0.8463 -1.3401  1.1798
17561TIP3   OH274097   3.842   6.555  16.167  0.1356 -0.4784 -0.7384
17561TIP3    H174098   3.834   6.650  16.158 -2.1797 -0.7094 -2.0408
17561TIP3    H274099   3.931   6.536  16.138  0.0311  1.1450 -2.3400
17562TIP3   OH274100   4.043   5.572   3.306  0.2144  0.1340  0.4437
17562TIP3    H174101   4.122   5.524   3.332  0.0139  0.2495  1.3192
17562TIP3    H274102   4.061   5.663   3.332  0.7242  0.6297 -1.4919
17563TIP3   OH274103   1.561   0.415   0.168  0.1751 -0.4449  0.6689
17563TIP3    H174104   1.528   0.488   0.221  1.1490 -0.3934  1.2376
17563TIP3    H274105   1.617   0.366   0.227 -0.2626 -1.5216  0.2099
17564TIP3   OH274106   2.353   1.760  12.173 -0.4551 -0.8316  0.6056
17564TIP3    H174107   2.277   1.705  12.190 -1.6618  1.4179  3.4589
17564TIP3    H274108   2.365   1.810  12.254  3.0465  0.1634 -0.3458
17565TIP3   OH274109   0.774   2.722  16.989 -0.1662  0.2617 -0.3384
17565TIP3    H174110   0.717   2.650  16.962 -0.2662  0.4294 -0.5756
17565TIP3    H274111   0.862   2.695  16.962  0.1097 -0.6862  1.3745
17566TIP3   OH274112   3.724   4.726   1.156  0.1253 -0.2344 -0.3700
17566TIP3    H174113   3.725   4.815   1.192  1.0462 -0.1524 -0.5891
17566TIP3    H274114   3.639   4.690   1.184 -1.0967  1.3465 -1.8140
17567TIP3   OH274115   0.738   2.125   6.264 -0.4244 -0.2909 -0.1706
17567TIP3    H174116   0.681   2.163   6.331  0.2682  0.0418  0.2433
17567TIP3    H274117   0.823   2.166   6.279 -0.5956  0.9623 -2.2293
17568TIP3   OH274118   3.672   6.189   5.410  0.2630  0.5297  0.1963
17568TIP3    H174119   3.579   6.211   5.414  0.2539  0.7528 -0.9015
17568TIP3    H274120   3.714   6.271   5.384  0.5779  0.0078 -0.9525
17569TIP3   OH274121   5.476   1.001   6.058  0.5038  0.7339 -0.0200
17569TIP3    H174122   5.475   1.027   5.966 -0.6428 -1.8681 -0.8409
17569TIP3    H274123   5.524   0.918   6.059 -1.6925 -0.6344  1.2532
17570TIP3   OH274124   2.939   4.311  14.653 -0.3696 -0.2466  0.3497
17570TIP3    H174125   2.902   4.277  14.572 -1.6821  2.6817 -0.3855
17570TIP3    H274126   2.937   4.236  14.713 -0.7098 -2.1064 -1.8419
17571TIP3   OH274127   0.789   3.955   4.264 -0.3813  0.3571  0.2534
17571TIP3    H174128   0.754   3.871   4.295 -1.3390  0.6051 -0.1100
17571TIP3    H274129   0.764   3.958   4.171 -1.3359  1.5146  0.5194
17572TIP3   OH274130   6.553   2.219  12.797 -0.5624  0.0437 -0.6557
17572TIP3    H174131   6.604   2.173  12.863  0.8786  0.1783 -1.6411
17572TIP3    H274132   6.493   2.153  12.763 -2.4640  0.3328  1.8036
17573TIP3   OH274133   1.599   6.291   1.379  0.8997  0.0832 -0.5084
17573TIP3    H174134   1.522   6.278   1.323 -0.6452  1.9800  1.0133
17573TIP3    H274135   1.656   6.349   1.329  1.2028 -1.0212 -1.4886
17574TIP3   OH274136   2.670   4.752  12.532 -0.4529 -0.1221 -0.1179
17574TIP3    H174137   2.604   4.723  12.595  0.1406  0.2311  0.6872
17574TIP3    H274138   2.695   4.839  12.563  0.0248 -0.0479 -0.7066
17575TIP3   OH274139   0.525   5.540   3.285  0.0565  0.3413 -0.2741
17575TIP3    H174140   0.611   5.521   3.247  0.1028 -1.4944  0.6835
17575TIP3    H274141   0.491   5.455   3.311 -1.5226  1.1882  0.5222
17576TIP3   OH274142   2.925   4.900   2.221  0.6515  0.5825 -0.2685
17576TIP3    H174143   2.950   4.808   2.210  2.0534  0.9458 -0.2577
17576TIP3    H274144   2.830   4.899   2.218  0.4984 -1.1918  2.0846
17577TIP3   OH274145   6.496   3.424  14.859  0.3903 -0.0508  0.5393
17577TIP3    H174146   6.405   3.407  14.833  0.4659  0.3823 -0.0074
17577TIP3    H274147   6.537   3.463  14.782  1.3292 -1.2047  0.4209
17578TIP3   OH274148   4.980   2.557  13.053 -1.0442 -0.8120  0.3069
17578TIP3    H174149   5.004   2.465  13.055  0.9517 -0.3738 -0.8328
17578TIP3    H274150   5.045   2.601  13.107  0.9673  0.4098 -2.8379
17579TIP3   OH274151   3.719   6.039   5.053 -0.1675  0.3477  0.4758
17579TIP3    H174152   3.664   5.962   5.043 -0.7717  0.5033  2.2536
17579TIP3    H274153   3.664   6.112   5.025 -0.2311  0.3275  0.5503
17580TIP3   OH274154   4.651   2.098  15.998  0.0906  0.3469  0.2030
17580TIP3    H174155   4.609   2.105  15.913  0.8900  2.3218 -0.0862
17580TIP3    H274156   4.742   2.073  15.978 -0.0630 -0.5507  0.5854
17581TIP3   OH274157   4.626   2.103  12.215 -0.3653 -0.3557  0.0955
17581TIP3    H174158   4.655   2.112  12.124 -2.6049 -0.7059 -0.7152
17581TIP3    H274159   4.693   2.049  12.256  1.2392  0.6445 -1.0336
17582TIP3   OH274160   4.640   6.415  12.639  0.0045  0.1187  0.2509
17582TIP3    H174161   4.570   6.442  12.698  0.2933 -0.9515  1.1348
17582TIP3    H274162   4.699   6.363  12.694  1.4434  0.8956 -0.4860
17583TIP3   OH274163   5.351   3.497   5.898  0.1836  0.1378 -0.0419
17583TIP3    H174164   5.264   3.499   5.937  1.1244 -0.7084  2.3151
17583TIP3    H274165   5.359   3.408   5.862  0.2463  0.0333  0.2248
17584TIP3   OH274166   6.191   0.184  16.229 -0.3026 -0.2319 -0.2512
17584TIP3    H174167   6.106   0.140  16.235 -0.1365 -0.6091 -0.5915
17584TIP3    H274168   6.222   0.189  16.320  0.9699 -3.4070 -0.3618
17585TIP3   OH274169   1.385   5.128  14.857 -0.1666 -0.3050  0.3338
17585TIP3    H174170   1.307   5.073  14.851  0.7195 -1.5655 -0.0607
17585TIP3    H274171   1.455   5.074  14.821  0.3563  1.9401 -2.3669
17586TIP3   OH274172   4.763   0.863  14.681  0.8207 -0.1917 -0.3272
17586TIP3    H174173   4.700   0.801  14.643 -0.4028  1.7792 -1.7584
17586TIP3    H274174   4.726   0.884  14.767 -1.9030  2.5693 -1.9561
17587TIP3   OH274175   0.038   3.218   5.161 -0.0671 -0.1731 -0.0329
17587TIP3    H174176  -0.019   3.278   5.112 -3.2220 -1.0795  2.1916
17587TIP3    H274177   0.019   3.132   5.125 -0.6750 -0.5654  1.1695
17588TIP3   OH274178   1.248   1.012   5.050  0.1481 -0.3925 -0.1426
17588TIP3    H174179   1.316   1.051   4.996  1.1707 -1.5209  0.2835
17588TIP3    H274180   1.224   0.932   5.004 -0.8743 -0.0397 -0.2587
17589TIP3   OH274181   0.114   0.737  14.375 -0.1670  0.2622 -0.5835
17589TIP3    H174182   0.170   0.767  14.303 -0.0591  0.5680 -0.3708
17589TIP3    H274183   0.169   0.675  14.423  0.5010  1.6231  0.4621
17590TIP3   OH274184   5.909   0.118  15.973  0.2692 -0.0212 -0.0706
17590TIP3    H174185   5.964   0.173  15.918 -0.9848  2.7209  1.1809
17590TIP3    H274186   5.971   0.067  16.025  1.5558  0.7184 -0.8205
17591TIP3   OH274187   5.155   4.252   1.322 -0.3539 -0.4259  0.0218
17591TIP3    H174188   5.230   4.198   1.295 -0.2413  0.0608 -0.6693
17591TIP3    H274189   5.191   4.341   1.327 -0.6011 -0.3650  0.8902
17592TIP3   OH274190   5.273   5.784   1.947  0.5253 -0.0990  0.4338
17592TIP3    H174191   5.224   5.853   1.992 -1.2462 -1.4375  0.6324
17592TIP3    H274192   5.333   5.750   2.013  1.6673  1.4364  0.2400
17593TIP3   OH274193   1.699   0.137  11.757  0.3143 -0.1488 -0.3161
17593TIP3    H174194   1.742   0.219  11.737 -2.4155  1.2679 -0.8232
17593TIP3    H274195   1.656   0.111  11.676 -1.7169 -0.1981  0.7146
17594TIP3   OH274196   6.457   4.482  15.156 -0.4379  0.4301 -0.5126
17594TIP3    H174197   6.486   4.489  15.246  0.0778  1.7268 -0.7551
17594TIP3    H274198   6.368   4.449  15.162 -0.8586  1.6700  0.5520
17595TIP3   OH274199   3.711   3.999   0.194 -0.7855  0.0521 -0.5300
17595TIP3    H174200   3.750   4.085   0.212  1.2299 -1.0284  0.6682
17595TIP3    H274201   3.620   4.007   0.222 -0.4033  1.5602  0.3626
17596TIP3   OH274202   2.478   4.116  16.606  0.1584  0.0926  0.3628
17596TIP3    H174203   2.521   4.186  16.654 -1.1016  0.8645  0.4246
17596TIP3    H274204   2.443   4.058  16.673  1.0894 -0.5395  0.3139
17597TIP3   OH274205   4.935   0.530  11.829  0.1308  0.0922  0.2483
17597TIP3    H174206   4.861   0.528  11.890 -0.2951 -0.5458 -0.2673
17597TIP3    H274207   4.937   0.442  11.791  0.7797  0.2882 -0.1910
17598TIP3   OH274208   2.009   1.972  16.280  0.0142  0.2227 -0.1745
17598TIP3    H174209   2.074   1.903  16.295 -1.8763 -1.6510 -0.1017
17598TIP3    H274210   1.939   1.929  16.232 -0.9831  2.2859 -0.6939
17599TIP3   OH274211   6.416   2.437  12.608 -0.5626  0.0705  0.1950
17599TIP3    H174212   6.385   2.398  12.527 -1.1112  0.1796  0.3454
17599TIP3    H274213   6.413   2.366  12.672  0.4314 -0.1719 -0.0008
17600TIP3   OH274214   2.951   4.155  13.532 -0.4024 -0.1057  0.5952
17600TIP3    H174215   2.915   4.234  13.492  1.0011  0.8536  1.1353
17600TIP3    H274216   2.881   4.091  13.527 -0.9606  0.6088 -1.5114
17601TIP3   OH274217   3.064   2.293  12.305  0.0377  0.1895 -0.0945
17601TIP3    H174218   3.003   2.305  12.378 -1.0108  0.8747 -1.0390
17601TIP3    H274219   3.131   2.234  12.339 -1.3575 -0.9240  0.8847
17602TIP3   OH274220   1.670   3.837  12.316 -0.2423  0.3930  0.5406
17602TIP3    H174221   1.620   3.913  12.286  1.2893  0.4970 -2.0243
17602TIP3    H274222   1.761   3.867  12.318  0.4869 -1.4643 -1.1854
17603TIP3   OH274223   4.381   2.030  12.272  0.4653  0.6122  0.5490
17603TIP3    H174224   4.446   2.097  12.251  0.0740  0.9011  0.2335
17603TIP3    H274225   4.298   2.076  12.272  0.1716  0.1023  0.1862
17604TIP3   OH274226   5.576   4.499  16.797 -0.3277 -0.4890 -0.5025
17604TIP3    H174227   5.610   4.474  16.712  0.1161  0.8394 -0.7474
17604TIP3    H274228   5.568   4.417  16.846  0.6969 -1.1124 -1.3616
17605TIP3   OH274229   3.474   5.244  13.517  0.1340  0.2493 -0.5787
17605TIP3    H174230   3.380   5.237  13.500  0.2571  1.1341 -1.7439
17605TIP3    H274231   3.482   5.319  13.577 -0.0422 -1.0813  1.2086
17606TIP3   OH274232   0.285   4.066   2.758 -0.0239  0.4797 -0.2641
17606TIP3    H174233   0.323   4.002   2.698  2.1647  2.1679 -0.8221
17606TIP3    H274234   0.199   4.030   2.780  2.0890 -4.1109  1.7841
17607TIP3   OH274235   1.121   2.689   2.099 -0.2753  0.2253  0.1755
17607TIP3    H174236   1.100   2.596   2.106 -0.0809  0.2117  0.6337
17607TIP3    H274237   1.083   2.728   2.177 -0.8800  0.6378 -0.3107
17608TIP3   OH274238   4.768   5.800   5.229  1.1370  0.6692  0.4842
17608TIP3    H174239   4.802   5.800   5.318 -0.0608  1.0017  0.9561
17608TIP3    H274240   4.673   5.798   5.239  0.9713 -1.5058 -0.7924
17609TIP3   OH274241   1.211   5.204   3.844  0.7035  0.2525  0.1049
17609TIP3    H174242   1.151   5.215   3.771  0.0593  0.3574  0.6475
17609TIP3    H274243   1.246   5.292   3.861 -0.2631  0.5091  0.8636
17610TIP3   OH274244   5.959   4.276  16.123 -0.3953 -0.6248 -0.1822
17610TIP3    H174245   6.003   4.191  16.122 -0.5802 -0.7718  1.3770
17610TIP3    H274246   5.874   4.259  16.164 -0.0636  0.4637  1.0356
17611TIP3   OH274247   2.758   0.090   4.833 -0.0675 -0.1458  0.8625
17611TIP3    H174248   2.683   0.041   4.798  0.9070  0.1197 -1.7695
17611TIP3    H274249   2.722   0.175   4.856 -0.3788  0.6030 -1.9992
17612TIP3   OH274250   3.770   3.387   3.071 -0.1709 -0.1670  0.3879
17612TIP3    H174251   3.744   3.347   3.154  1.7463  0.2226  1.2333
17612TIP3    H274252   3.831   3.325   3.032  0.0375  0.2956 -0.0328
17613TIP3   OH274253   4.742   3.077  14.349  0.2935 -0.1379 -0.5148
17613TIP3    H174254   4.830   3.085  14.312  0.0321 -0.3248 -1.2097
17613TIP3    H274255   4.755   3.044  14.438  1.2374  4.3284  1.2424
17614TIP3   OH274256   6.395   3.919  12.711  0.1263 -0.0210  0.2761
17614TIP3    H174257   6.358   3.892  12.795  0.1155 -0.5347  0.1131
17614TIP3    H274258   6.399   3.838  12.660 -1.9106  0.6421 -1.0300
17615TIP3   OH274259   6.675   6.022  17.113  0.0076 -0.4147  0.1994
17615TIP3    H174260   6.616   5.977  17.052  0.4620  0.4068 -0.8677
17615TIP3    H274261   6.619   6.046  17.187 -0.2445 -2.7466  0.8354
17616TIP3   OH274262   3.053   4.529   0.937  0.4689 -0.2680 -0.4711
17616TIP3    H174263   3.013   4.485   0.862 -2.1568  0.4383  0.4170
17616TIP3    H274264   3.053   4.463   1.006  0.2830 -0.0780 -0.2896
17617TIP3   OH274265   4.617   0.080  11.343  0.4219 -0.1974 -0.3591
17617TIP3    H174266   4.645   0.002  11.295 -0.0797 -0.8234  0.3442
17617TIP3    H274267   4.619   0.150  11.278  1.5694 -0.6418 -0.8322
17618TIP3   OH274268   6.563   1.951  16.332  0.2994  0.2031 -0.7953
17618TIP3    H174269   6.569   1.856  16.337 -1.5167  0.0393 -1.2415
17618TIP3    H274270   6.515   1.968  16.251  0.2672  1.4894 -0.5243
17619TIP3   OH274271   6.089   1.476   4.036 -0.1488 -0.1128  0.0703
17619TIP3    H174272   5.998   1.467   4.006 -0.2952 -0.5772  0.6193
17619TIP3    H274273   6.099   1.405   4.100  1.1836 -1.2614 -1.3522
17620TIP3   OH274274   1.998   3.675  15.466 -0.2845  0.2392 -0.2137
17620TIP3    H174275   2.001   3.767  15.490  0.2336  0.5932 -1.5898
17620TIP3    H274276   2.084   3.656  15.429 -1.3602  0.0346 -2.8230
17621TIP3   OH274277   1.191   1.660  11.903  0.1479  0.6104  0.0508
17621TIP3    H174278   1.104   1.695  11.924 -0.7597 -1.4542  0.0124
17621TIP3    H274279   1.250   1.702  11.965 -1.7663 -2.0441  4.0455
17622TIP3   OH274280   5.580   3.371  13.186  0.5604  0.1266  0.3463
17622TIP3    H174281   5.630   3.359  13.105  0.7345  0.1295  0.4530
17622TIP3    H274282   5.552   3.462  13.183  0.6162  0.1431  0.3178
17623TIP3   OH274283   3.287   6.410   4.014  0.0592  0.1770  0.1321
17623TIP3    H174284   3.195   6.398   4.037 -0.6575  2.0508 -1.4358
17623TIP3    H274285   3.318   6.476   4.077 -0.1525  0.7388 -0.3415
17624TIP3   OH274286   2.641   3.290   5.940 -0.3087  0.1236 -0.0840
17624TIP3    H174287   2.684   3.210   5.969  0.0329 -0.6834 -2.5159
17624TIP3    H274288   2.559   3.292   5.989 -0.0490 -1.4065  0.4701
17625TIP3   OH274289   5.522   4.236   1.407 -0.2353  0.0492 -0.0847
17625TIP3    H174290   5.492   4.235   1.498  0.9215  0.1612  0.3051
17625TIP3    H274291   5.578   4.158   1.400 -0.1871  0.1342 -0.6542
17626TIP3   OH274292   2.183   5.550  13.005  0.0144 -0.1188  0.1148
17626TIP3    H174293   2.123   5.599  12.949 -0.6252 -0.5099  0.4500
17626TIP3    H274294   2.129   5.519  13.077  1.1151  1.8402  1.9067
17627TIP3   OH274295   0.430   1.154   5.126  0.5076  0.4342  0.2326
17627TIP3    H174296   0.438   1.196   5.041  0.3251 -0.5858 -0.3131
17627TIP3    H274297   0.425   1.060   5.105  0.6608  0.1597  1.3773
17628TIP3   OH274298   3.127   3.554  14.695 -0.0188  0.6914  0.2559
17628TIP3    H174299   3.114   3.485  14.631  1.2763  1.1208 -0.5067
17628TIP3    H274300   3.090   3.519  14.776  0.0480 -0.6312 -0.2638
17629TIP3   OH274301   6.600   6.531   5.189 -0.3178 -0.5536  0.4110
17629TIP3    H174302   6.590   6.626   5.176 -1.3078 -0.7305 -0.1998
17629TIP3    H274303   6.534   6.509   5.255  0.5306 -0.6785  1.2358
17630TIP3   OH274304   5.174   2.265  13.666 -0.4817 -0.6926 -0.5055
17630TIP3    H174305   5.247   2.210  13.639 -0.5439 -0.5254 -1.0166
17630TIP3    H274306   5.206   2.311  13.744  0.0960 -0.3187 -0.9586
17631TIP3   OH274307   6.644   2.294  16.321  0.0640 -0.6089  0.1985
17631TIP3    H174308   6.662   2.201  16.311  0.9793 -0.4867  0.5830
17631TIP3    H274309   6.729   2.336  16.310 -0.3615  0.1940 -0.0855
17632TIP3   OH274310   0.445   3.155   4.357  0.1544 -0.4833  0.1827
17632TIP3    H174311   0.495   3.193   4.285 -0.8833 -0.4387 -0.5392
17632TIP3    H274312   0.509   3.104   4.406  0.9770 -0.1321 -0.4989
17633TIP3   OH274313   0.433   3.222   3.054 -0.1309 -0.1050 -0.4174
17633TIP3    H174314   0.514   3.273   3.048 -0.4148  0.2960 -1.0367
17633TIP3    H274315   0.368   3.277   3.010 -1.1730  0.4409  1.7080
17634TIP3   OH274316   1.660   5.697  16.030  0.2080 -0.0738 -0.2746
17634TIP3    H174317   1.674   5.667  15.940  1.4330 -2.0057  0.4936
17634TIP3    H274318   1.737   5.668  16.078  0.3359  2.3042  1.1331
17635TIP3   OH274319   6.607   3.564   3.429 -0.4135  0.6222 -0.6103
17635TIP3    H174320   6.633   3.494   3.369  1.9514  0.2587  0.7063
17635TIP3    H274321   6.635   3.532   3.515 -4.4037  0.7386  0.9439
17636TIP3   OH274322   0.040   6.766   3.871 -0.2468 -0.1430  0.4983
17636TIP3    H174323   0.098   6.703   3.828  1.5607  0.4055  2.0056
17636TIP3    H274324  -0.041   6.762   3.820 -0.2049 -3.5847  0.4550
17637TIP3   OH274325   3.502   6.660  12.347  0.0391  0.3689 -0.1787
17637TIP3    H174326   3.519   6.701  12.262  0.8448  0.9882  0.2621
17637TIP3    H274327   3.472   6.572  12.325 -2.3187  1.3477 -1.1609
17638TIP3   OH274328   3.689   0.054   4.669  0.2958  0.7340 -0.0765
17638TIP3    H174329   3.685  -0.035   4.635  0.8102  0.7040 -0.0643
17638TIP3    H274330   3.638   0.051   4.750  0.6236  0.3563  0.1221
17639TIP3   OH274331   4.882   0.175   0.716 -0.1755 -0.2139 -0.1924
17639TIP3    H174332   4.969   0.178   0.756 -0.6866 -0.3802  0.9671
17639TIP3    H274333   4.857   0.267   0.707 -0.5243 -0.1787  0.9601
17640TIP3   OH274334   4.512   4.657   2.097 -0.1903 -0.3127  0.3360
17640TIP3    H174335   4.513   4.675   2.003  0.9671 -0.7785  0.2408
17640TIP3    H274336   4.463   4.730   2.135 -0.3859  0.0522 -0.5972
17641TIP3   OH274337   4.270   2.869  10.490  0.2255  0.2720  0.0097
17641TIP3    H174338   4.238   2.924  10.418 -2.1860 -0.0618  0.7400
17641TIP3    H274339   4.275   2.929  10.565 -0.6049 -0.0878  0.3623
17642TIP3   OH274340   2.159   0.232   4.165 -0.6298 -0.1072 -0.3860
17642TIP3    H174341   2.073   0.191   4.156 -0.3025 -0.6699 -1.0247
17642TIP3    H274342   2.152   0.316   4.119 -1.2656  0.5224  0.8179
17643TIP3   OH274343   3.773   2.474   3.391 -0.6138  0.1776 -0.4163
17643TIP3    H174344   3.836   2.493   3.460  0.3656 -0.1290 -1.2044
17643TIP3    H274345   3.766   2.555   3.341  0.1883 -0.1764 -1.1260
17644TIP3   OH274346   0.245   5.162  13.475  0.1749 -0.1911  0.4552
17644TIP3    H174347   0.170   5.104  13.470  1.0816 -1.4222  0.7165
17644TIP3    H274348   0.209   5.245  13.507 -1.5677  0.2087 -2.1781
17645TIP3   OH274349   1.513   4.352   2.949  0.2032 -0.3991 -0.0312
17645TIP3    H174350   1.528   4.275   2.894  1.0583 -0.5971  0.4615
17645TIP3    H274351   1.521   4.319   3.039  3.1276  0.6639  0.2310
17646TIP3   OH274352   2.632   3.606  16.327 -0.1546  0.1230 -0.1723
17646TIP3    H174353   2.606   3.698  16.336  0.3438  0.2124  0.4510
17646TIP3    H274354   2.584   3.575  16.251  0.8505  1.3309 -1.3680
17647TIP3   OH274355   5.064   6.348  15.132 -1.1059  0.5404  0.1847
17647TIP3    H174356   5.049   6.321  15.223 -0.7515 -0.0372  0.0726
17647TIP3    H274357   5.071   6.266  15.083  0.3755  0.8015 -0.0910
17648TIP3   OH274358   5.107   5.808  15.626 -0.0777 -0.2850  0.0195
17648TIP3    H174359   5.175   5.816  15.693  0.4807 -1.8621 -0.3198
17648TIP3    H274360   5.044   5.746  15.663  1.6042 -3.3642 -1.8911
17649TIP3   OH274361   5.382   2.124   5.667 -0.1905 -0.6235 -0.3041
17649TIP3    H174362   5.400   2.216   5.647 -1.0836 -0.4411 -0.3067
17649TIP3    H274363   5.292   2.110   5.636 -0.8702 -0.8966  1.6617
17650TIP3   OH274364   6.047   4.616  16.644  0.1008  0.3283  0.0206
17650TIP3    H174365   5.956   4.647  16.654 -0.3054 -0.9161  0.3259
17650TIP3    H274366   6.100   4.691  16.671 -0.8683  0.1727  2.6347
17651TIP3   OH274367   3.400   2.712   5.242 -0.2517 -0.3365 -0.2284
17651TIP3    H174368   3.345   2.769   5.295  1.6128  1.1810  0.1748
17651TIP3    H274369   3.403   2.754   5.156  1.8293  0.7425  0.3105
17652TIP3   OH274370   0.339   5.961   2.077  0.0572 -0.1124 -0.0279
17652TIP3    H174371   0.296   5.915   2.149 -2.1138 -1.8350 -2.2411
17652TIP3    H274372   0.293   6.044   2.072 -0.3258 -0.3127  0.0902
17653TIP3   OH274373   5.424   0.278  16.511 -0.1405 -0.4588 -0.1868
17653TIP3    H174374   5.370   0.207  16.475 -0.2450  0.9125 -3.0432
17653TIP3    H274375   5.495   0.288  16.447  0.2541  1.5080  0.5169
17654TIP3   OH274376   4.296   0.730   0.205  0.1336  0.1558 -0.3521
17654TIP3    H174377   4.270   0.791   0.136  1.0869 -0.7595 -1.5768
17654TIP3    H274378   4.228   0.663   0.203 -0.3251  0.5936  0.2403
17655TIP3   OH274379   2.958   2.995   2.241 -0.2482 -0.1875 -0.2033
17655TIP3    H174380   3.052   2.977   2.241 -0.3653 -0.8389 -0.0940
17655TIP3    H274381   2.936   3.008   2.149 -0.1855 -0.8089 -0.3110
17656TIP3   OH274382   2.296   3.017   2.920  0.2668 -0.4122 -0.3353
17656TIP3    H174383   2.282   3.108   2.946 -1.5270 -0.8577  0.4812
17656TIP3    H274384   2.207   2.980   2.917  0.9560 -2.1222 -0.6820
17657TIP3   OH274385   6.046   5.766  16.471  0.2823 -0.3860 -0.7887
17657TIP3    H174386   6.041   5.708  16.547 -0.7386 -0.5787 -0.9902
17657TIP3    H274387   6.075   5.709  16.399 -0.9189 -0.7185 -1.0335
17658TIP3   OH274388   3.260   0.326  14.335  0.0790 -0.1511 -0.3068
17658TIP3    H174389   3.179   0.300  14.290 -0.6752  1.5621 -0.0070
17658TIP3    H274390   3.329   0.280  14.288 -0.8707  0.0786 -2.0083
17659TIP3   OH274391   5.912   3.612   4.185 -0.4341  0.1218  0.1555
17659TIP3    H174392   5.831   3.600   4.137  0.1897 -2.8163 -0.3366
17659TIP3    H274393   5.911   3.543   4.252  1.2365  0.5854  0.7214
17660TIP3   OH274394   0.694   0.351   0.986 -0.0562  0.4804  0.2418
17660TIP3    H174395   0.609   0.346   1.029 -0.5281  0.3975 -0.6650
17660TIP3    H274396   0.711   0.262   0.955 -0.1156  0.7119 -0.4647
17661TIP3   OH274397   6.288   2.831   1.144 -0.2986 -0.0166  0.1526
17661TIP3    H174398   6.212   2.790   1.102 -0.3012 -0.1404  0.2785
17661TIP3    H274399   6.317   2.767   1.209  0.6066 -0.4542 -0.6588
17662TIP3   OH274400   3.123   3.739   2.555  0.0629  0.3036  0.0917
17662TIP3    H174401   3.033   3.755   2.527  0.5887 -0.0605 -2.0098
17662TIP3    H274402   3.176   3.791   2.494  1.2688  2.5226  2.8078
17663TIP3   OH274403   1.637   6.624   0.771 -0.4770 -0.6645  0.2493
17663TIP3    H174404   1.610   6.644   0.681 -0.4508  0.3007  0.4410
17663TIP3    H274405   1.577   6.675   0.826  1.3055  1.1002  0.7014
17664TIP3   OH274406   2.433   1.022  15.211  0.3216  0.1914 -0.2105
17664TIP3    H174407   2.503   1.050  15.152  0.6458  1.2375  0.6404
17664TIP3    H274408   2.477   0.965  15.275  0.8382  2.3939  1.4891
17665TIP3   OH274409   3.129   0.432   2.242  0.6706 -0.2240 -0.2551
17665TIP3    H174410   3.174   0.497   2.189  0.6188 -0.0510 -0.0868
17665TIP3    H274411   3.199   0.382   2.284  0.7139 -0.4465 -0.5864
17666TIP3   OH274412   4.439   4.796   2.921 -0.3306 -0.2156  0.1830
17666TIP3    H174413   4.524   4.786   2.877 -0.4062 -0.9644  0.1954
17666TIP3    H274414   4.385   4.845   2.859 -0.1340 -0.4191 -0.1496
17667TIP3   OH274415   5.314   5.282   1.617 -0.6809  0.2321  0.3788
17667TIP3    H174416   5.301   5.191   1.591  1.4251  0.2919 -1.1811
17667TIP3    H274417   5.335   5.278   1.710  1.9492 -1.2510 -0.1658
17668TIP3   OH274418   5.595   5.681  15.711 -0.4642  0.0715  0.0148
17668TIP3    H174419   5.591   5.589  15.737  0.6079  0.9596  3.9668
17668TIP3    H274420   5.686   5.695  15.686 -0.4882  0.1974 -0.0011
17669TIP3   OH274421   1.913   6.724   1.441 -0.3184 -0.4303 -0.0155
17669TIP3    H174422   1.949   6.722   1.352  0.0516 -0.0215  0.1185
17669TIP3    H274423   1.859   6.645   1.447  0.4239 -0.9722 -0.2790
17670TIP3   OH274424   4.515   5.009   1.038 -0.4416 -0.0090 -0.1567
17670TIP3    H174425   4.433   4.995   0.991 -0.5530 -0.8811  0.2888
17670TIP3    H274426   4.565   4.929   1.024 -0.0493  0.1415  0.3538
17671TIP3   OH274427   5.033   5.952   3.707  0.0454  0.0488 -0.1590
17671TIP3    H174428   4.949   5.930   3.747  0.2996 -2.2299 -0.7239
17671TIP3    H274429   5.042   5.890   3.635  2.2621  0.1343 -0.0237
17672TIP3   OH274430   1.986   4.260  15.007  0.2924  0.0015  0.0513
17672TIP3    H174431   1.906   4.312  15.004 -0.0239 -0.5045 -0.9409
17672TIP3    H274432   1.972   4.192  14.941  2.3835  1.1732 -1.7596
17673TIP3   OH274433   4.390   4.306  12.630  0.2530 -0.1392  0.0444
17673TIP3    H174434   4.383   4.332  12.538  1.2466 -0.7228 -0.2111
17673TIP3    H274435   4.394   4.210  12.627  2.4096 -0.1224  0.4977
17674TIP3   OH274436   2.958   4.830  13.212 -0.4155 -0.8206  0.0089
17674TIP3    H174437   2.944   4.893  13.141  0.5066  1.1158  1.4405
17674TIP3    H274438   3.052   4.813  13.210 -0.3583 -0.6109  0.8830
17675TIP3   OH274439   0.341   6.373   3.523 -0.4302  0.1966  0.8299
17675TIP3    H174440   0.247   6.384   3.536 -0.3736  1.4563  0.2332
17675TIP3    H274441   0.354   6.383   3.429  0.5162  1.9040  1.0999
17676TIP3   OH274442   1.740   6.707  15.934  0.1416  0.4063  0.0778
17676TIP3    H174443   1.775   6.792  15.908 -1.6112  1.2541  0.3217
17676TIP3    H274444   1.671   6.728  15.997 -0.1671 -1.2094  0.3192
17677TIP3   OH274445   5.681   3.454  15.656 -0.7439 -0.9854  0.1694
17677TIP3    H174446   5.657   3.404  15.578  0.4928 -1.4592  0.0804
17677TIP3    H274447   5.767   3.421  15.680 -0.3334  0.4271  0.6892
17678TIP3   OH274448   5.169   4.432  12.214  0.5562 -0.0017 -0.4978
17678TIP3    H174449   5.234   4.385  12.266  0.5757  0.9581  0.3867
17678TIP3    H274450   5.092   4.375  12.215  0.3817  0.2179  1.0562
17679TIP3   OH274451   1.971   1.287   5.876 -0.1251  0.0937 -0.2879
17679TIP3    H174452   1.964   1.382   5.886  3.0627  0.3226  0.6168
17679TIP3    H274453   1.894   1.264   5.825 -1.2952  3.0754 -0.0994
17680TIP3   OH274454   4.712   0.650   0.221 -0.2418 -0.6807 -0.0642
17680TIP3    H174455   4.660   0.714   0.270 -0.6919 -0.1391 -1.2040
17680TIP3    H274456   4.722   0.690   0.134  0.5121 -1.6221 -0.4194
17681TIP3   OH274457   1.505   6.219  16.687 -0.0926  0.1237 -0.1082
17681TIP3    H174458   1.503   6.271  16.767 -3.7339  1.1397 -0.6621
17681TIP3    H274459   1.558   6.270  16.626 -0.1090  1.0673  0.6470
17682TIP3   OH274460   5.425   2.660  15.772 -0.0544 -0.2599 -0.2487
17682TIP3    H174461   5.407   2.660  15.866 -1.3602  1.4058 -0.4449
17682TIP3    H274462   5.484   2.586  15.759  0.5177 -0.2645  1.9370
17683TIP3   OH274463   0.959   2.250   0.221  0.1917 -0.0116 -0.1606
17683TIP3    H174464   1.029   2.257   0.286 -0.2103 -2.2450  0.6188
17683TIP3    H274465   0.889   2.203   0.267 -0.5536 -0.6180 -1.8577
17684TIP3   OH274466   6.124   0.538  12.139  0.2450 -0.2839  0.1967
17684TIP3    H174467   6.187   0.466  12.140 -0.4348 -0.9196 -0.7757
17684TIP3    H274468   6.047   0.501  12.096 -0.1735  0.9808 -0.1666
17685TIP3   OH274469   3.071   1.119   4.455  0.2976 -0.1356  0.4628
17685TIP3    H174470   3.149   1.067   4.473  0.4031  0.0735  0.6129
17685TIP3    H274471   3.100   1.189   4.397  0.0982 -0.4005  0.0343
17686TIP3   OH274472   4.683   5.364  12.143 -0.0532  0.0834  0.2372
17686TIP3    H174473   4.644   5.349  12.229 -0.5360 -0.4526 -0.0687
17686TIP3    H274474   4.776   5.349  12.155  0.1828  1.9929  1.1356
17687TIP3   OH274475   5.799   2.942   4.134  0.2740 -0.8977 -0.1384
17687TIP3    H174476   5.719   2.957   4.185  0.1718 -0.5846 -0.3905
17687TIP3    H274477   5.863   3.003   4.171  0.6698 -1.7526  0.6553
17688TIP3   OH274478   1.469   4.551  12.236  0.1844  0.3850  0.3775
17688TIP3    H174479   1.419   4.626  12.205 -0.8974 -0.9774 -1.3777
17688TIP3    H274480   1.560   4.580  12.231 -0.0937  1.0811 -1.9247
17689TIP3   OH274481   1.534   2.946  11.274 -0.4031 -0.4319 -0.2699
17689TIP3    H174482   1.444   2.942  11.243 -0.3708 -0.5572 -0.3494
17689TIP3    H274483   1.549   3.039  11.293 -0.1287 -0.2056 -1.5085
17690TIP3   OH274484   3.627   0.310  13.532  0.4537 -0.2678  0.2868
17690TIP3    H174485   3.687   0.245  13.494  0.9143 -0.7322  1.7310
17690TIP3    H274486   3.549   0.260  13.556 -0.3466  0.2451 -1.1089
17691TIP3   OH274487   4.400   6.198  12.530 -0.1555  0.1020  0.3061
17691TIP3    H174488   4.314   6.216  12.493 -0.2270  0.1224  0.4847
17691TIP3    H274489   4.455   6.270  12.497 -0.1782  0.0241  0.0976
17692TIP3   OH274490   2.035   2.366   1.981 -0.0550 -0.1077  0.2457
17692TIP3    H174491   2.044   2.439   1.920 -1.3572  0.0853  0.2698
17692TIP3    H274492   1.950   2.379   2.023 -1.1822 -2.5975 -1.0367
17693TIP3   OH274493   5.464   5.540   1.457 -0.0105  0.0729  0.2704
17693TIP3    H174494   5.394   5.517   1.517 -1.9443  1.0098 -1.5071
17693TIP3    H274495   5.490   5.628   1.484 -0.7788  0.4371 -0.1532
17694TIP3   OH274496   0.036   2.178  14.317 -0.1311 -0.7488 -0.5027
17694TIP3    H174497   0.110   2.198  14.261 -1.2634  2.9289 -1.0174
17694TIP3    H274498   0.039   2.245  14.386 -2.9103 -0.3929 -0.5779
17695TIP3   OH274499   2.209   6.608   6.758 -0.3070 -0.2310  0.2624
17695TIP3    H174500   2.287   6.622   6.812 -0.4986 -2.4621  1.2498
17695TIP3    H274501   2.243   6.598   6.669  0.2660  1.0581  0.3131
17696TIP3   OH274502   3.518   6.544  12.926 -0.0102  0.1062  0.2946
17696TIP3    H174503   3.537   6.578  12.839  0.6256 -1.3345 -0.1628
17696TIP3    H274504   3.528   6.619  12.984  0.7770  0.8128 -0.7258
17697TIP3   OH274505   6.192   0.774   1.019  0.1170  0.3900  0.2669
17697TIP3    H174506   6.163   0.683   1.006  1.4936  0.1237 -1.0996
17697TIP3    H274507   6.286   0.767   1.035  1.0276  1.7633 -3.5245
17698TIP3   OH274508   5.251   1.365   6.142 -0.1307  0.7684  0.5883
17698TIP3    H174509   5.326   1.412   6.106 -0.3355  0.9867  0.4426
17698TIP3    H274510   5.196   1.432   6.182 -0.3055  0.6262  0.5932
17699TIP3   OH274511   2.406   3.783  15.620  0.0733 -0.2658  0.1443
17699TIP3    H174512   2.373   3.717  15.560  1.2922 -0.2805 -0.5504
17699TIP3    H274513   2.452   3.733  15.688  1.1159 -0.1530 -0.4576
17700TIP3   OH274514   4.663   6.157   0.406 -0.2650  0.1077 -0.2320
17700TIP3    H174515   4.627   6.124   0.323  1.1500 -0.5822 -0.5952
17700TIP3    H274516   4.634   6.093   0.471  1.4136 -1.2562 -0.7408
17701TIP3   OH274517   1.231   0.697   4.253 -0.0042  0.3658  0.1155
17701TIP3    H174518   1.142   0.662   4.252 -0.5725  1.7282  0.8225
17701TIP3    H274519   1.287   0.621   4.237 -1.3515 -0.2362 -2.2380
17702TIP3   OH274520   4.821   6.137  17.007 -0.0086  0.2347 -0.2428
17702TIP3    H174521   4.879   6.092  17.069  0.8449  0.3313 -0.9509
17702TIP3    H274522   4.850   6.228  17.009 -0.6050  0.4226 -0.0795
17703TIP3   OH274523   4.269   0.141  12.089  0.0171 -0.7025 -0.0332
17703TIP3    H174524   4.249   0.047  12.088 -0.2870 -0.6446 -0.9198
17703TIP3    H274525   4.228   0.174  12.009 -0.6085  0.3457  0.7046
17704TIP3   OH274526   5.260   3.343  16.579 -0.2194  1.0201  0.5727
17704TIP3    H174527   5.347   3.305  16.569 -0.3019  0.6732  1.1336
17704TIP3    H274528   5.255   3.411  16.512 -0.8727 -1.4012 -2.0421
17705TIP3   OH274529   4.538   3.420  13.803  0.5797 -0.1985  0.1128
17705TIP3    H174530   4.613   3.426  13.744  1.7359 -0.8749  1.4345
17705TIP3    H274531   4.538   3.503  13.850  0.7019 -0.3138  0.3206
17706TIP3   OH274532   2.098   0.757  11.664  0.0516 -0.0104 -0.3937
17706TIP3    H174533   2.151   0.811  11.722 -0.1547  0.8742 -1.0113
17706TIP3    H274534   2.027   0.814  11.635 -0.6903 -0.8846 -0.3558
17707TIP3   OH274535   6.548   5.543  14.865  0.0963 -0.0823  0.1789
17707TIP3    H174536   6.636   5.515  14.890  0.2518 -0.9008 -1.2334
17707TIP3    H274537   6.562   5.601  14.790 -0.6758 -2.1160 -1.6194
17708TIP3   OH274538   6.295   6.571  15.458  0.1486  0.1466 -0.2219
17708TIP3    H174539   6.299   6.564  15.363 -0.4547  3.0728 -0.5520
17708TIP3    H274540   6.362   6.635  15.481 -0.0020 -0.1912  1.2746
17709TIP3   OH274541   1.901   5.636  11.168  0.2225  0.0313 -0.0630
17709TIP3    H174542   1.895   5.732  11.166  0.1786  0.0729  1.2373
17709TIP3    H274543   1.981   5.618  11.217  0.3652 -0.6041 -0.5196
17710TIP3   OH274544   6.563   2.077   4.098 -0.0709  0.1499 -0.0402
17710TIP3    H174545   6.549   2.101   4.190  1.3512 -0.5179  0.3683
17710TIP3    H274546   6.637   2.131   4.070 -0.2166  0.0297 -0.6768
17711TIP3   OH274547   6.166   1.861  16.807  0.5817  0.0456 -0.3281
17711TIP3    H174548   6.126   1.925  16.749  0.5714 -1.7438 -2.4244
17711TIP3    H274549   6.117   1.869  16.889 -0.6291  1.4120 -1.1313
17712TIP3   OH274550   4.182   4.861   6.421  0.0277 -0.5751  0.2208
17712TIP3    H174551   4.277   4.852   6.409  0.2020  1.2834 -0.0574
17712TIP3    H274552   4.166   4.829   6.510  1.1071  0.2454  0.7275
17713TIP3   OH274553   2.933   4.629   0.448  0.2739  0.2013  0.3476
17713TIP3    H174554   2.873   4.703   0.460  0.7945  0.3825  2.2993
17713TIP3    H274555   2.950   4.626   0.354 -1.2868  1.3293 -0.0089
17714TIP3   OH274556   2.989   3.404  13.790  0.1987 -0.7349 -0.2896
17714TIP3    H174557   2.902   3.379  13.758  0.0898 -1.7328  0.7347
17714TIP3    H274558   3.031   3.321  13.813  0.8143 -0.1566  0.7557
17715TIP3   OH274559   0.964   3.779  14.296 -0.4564 -0.0536 -0.3272
17715TIP3    H174560   0.892   3.729  14.335 -1.8311  0.0809 -2.5257
17715TIP3    H274561   0.936   3.795  14.206  2.5400 -0.3396 -1.4165
17716TIP3   OH274562   2.083   1.871   2.317  0.1737 -0.0623  0.0179
17716TIP3    H174563   1.999   1.837   2.349  1.4502 -1.5577  2.0505
17716TIP3    H274564   2.105   1.940   2.379  0.2605  0.6433 -0.7819
17717TIP3   OH274565   4.525   1.793  12.199 -0.2264 -0.1752  0.2029
17717TIP3    H174566   4.515   1.887  12.213  2.6868  0.2129  0.2809
17717TIP3    H274567   4.496   1.752  12.281 -0.7895  0.6772  0.4408
17718TIP3   OH274568   5.383   2.652   4.378  0.1169  0.0728  0.3162
17718TIP3    H174569   5.352   2.739   4.353 -0.8418 -0.6056 -0.9765
17718TIP3    H274570   5.415   2.662   4.468 -0.8932  1.5322  0.5353
17719TIP3   OH274571   2.384   1.241  16.122  0.2333  0.1373  0.0704
17719TIP3    H174572   2.425   1.212  16.203  0.7237 -0.0033 -0.2227
17719TIP3    H274573   2.304   1.286  16.150  0.5724  0.3946  0.6466
17720TIP3   OH274574   0.242   5.531  11.346  0.6588 -0.1206 -0.3843
17720TIP3    H174575   0.286   5.516  11.263  0.4893  1.9278 -0.9121
17720TIP3    H274576   0.309   5.570  11.402  0.2112  0.5743 -0.3201
17721TIP3   OH274577   2.842   2.652  17.134 -0.3541  0.3415  0.5948
17721TIP3    H174578   2.934   2.678  17.142 -0.0398 -0.6993  0.5524
17721TIP3    H274579   2.809   2.703  17.060 -0.1371  1.5645  1.3148
17722TIP3   OH274580   1.547   1.297   5.820  0.3840 -0.7022  0.1946
17722TIP3    H174581   1.490   1.343   5.759 -0.7412  0.3081  1.9243
17722TIP3    H274582   1.491   1.228   5.857  1.0059 -1.2014  0.2297
17723TIP3   OH274583   4.012   2.851  11.244 -0.1304  0.4050 -0.0245
17723TIP3    H174584   4.092   2.798  11.249 -1.0193 -1.1794 -1.3383
17723TIP3    H274585   4.010   2.883  11.154 -0.8860  0.5740  0.0452
17724TIP3   OH274586   3.979   3.519  14.994  0.1550 -0.5566  0.2787
17724TIP3    H174587   3.993   3.613  14.982  0.9609 -0.2107  3.1596
17724TIP3    H274588   3.884   3.511  15.010  0.2885  0.0321  1.5341
17725TIP3   OH274589   5.736   5.609  11.859  0.2797 -0.2044 -0.2978
17725TIP3    H174590   5.773   5.678  11.804  2.6630 -2.4880 -1.8066
17725TIP3    H274591   5.670   5.568  11.803  0.4068 -0.4859 -0.2431
17726TIP3   OH274592   2.323   3.025   3.796  0.0860  0.0905  0.4931
17726TIP3    H174593   2.397   2.968   3.777  0.8773  0.9256  1.0034
17726TIP3    H274594   2.346   3.109   3.754  1.4722  1.7303  4.1220
17727TIP3   OH274595   4.790   3.597   5.937 -0.0904 -0.7683  0.0428
17727TIP3    H174596   4.754   3.680   5.968  3.0697  1.2914 -1.1674
17727TIP3    H274597   4.882   3.617   5.918  0.1773 -3.8439 -2.9332
17728TIP3   OH274598   5.871   1.111  15.223 -0.2646  0.2983 -0.0059
17728TIP3    H174599   5.793   1.055  15.230 -0.1962  0.2660  0.5435
17728TIP3    H274600   5.935   1.069  15.280 -0.4605  1.3437  1.0350
17729TIP3   OH274601   6.643   5.537   5.338  0.0577 -0.5161  0.1674
17729TIP3    H174602   6.559   5.531   5.384 -0.1801 -0.5151 -0.2607
17729TIP3    H274603   6.659   5.449   5.303  0.8203 -0.8216  1.2472
17730TIP3   OH274604   3.578   4.018  13.515  0.3988 -0.0718  0.5843
17730TIP3    H174605   3.544   4.102  13.546 -0.3035 -0.2144  0.2061
17730TIP3    H274606   3.502   3.961  13.510  0.8718 -0.7409  0.8348
17731TIP3   OH274607   0.246   5.192   0.515 -0.4530  0.1489 -0.3435
17731TIP3    H174608   0.267   5.161   0.603 -0.3781  0.7720 -0.1400
17731TIP3    H274609   0.261   5.115   0.459  0.6148  0.0606  0.0300
17732TIP3   OH274610   6.497   6.091   5.281  0.0185 -0.3926 -0.3085
17732TIP3    H174611   6.507   6.123   5.371  1.2136 -0.5275 -0.3884
17732TIP3    H274612   6.528   6.001   5.284 -1.5233 -0.9641 -0.5122
17733TIP3   OH274613   2.369   1.642  16.107 -0.3999 -0.1203 -0.0814
17733TIP3    H174614   2.361   1.560  16.060 -1.8831  0.5287 -1.0119
17733TIP3    H274615   2.400   1.705  16.042 -0.7011  0.3809  0.2479
17734TIP3   OH274616   5.710   5.294  14.316  0.4182 -0.1357 -0.5416
17734TIP3    H174617   5.686   5.201  14.323  0.4861 -0.0261  1.9482
17734TIP3    H274618   5.666   5.324  14.237 -1.4969 -1.7493 -0.1827
17735TIP3   OH274619   4.429   1.458  11.565 -0.0124 -0.4096  0.5778
17735TIP3    H174620   4.381   1.484  11.487  1.3023 -2.2438 -0.9487
17735TIP3    H274621   4.498   1.524  11.574  0.1513 -0.4705 -0.1536
17736TIP3   OH274622   4.205   2.728   2.844 -0.4600 -0.4314 -0.7849
17736TIP3    H174623   4.120   2.704   2.879  0.3538  0.6180  2.2779
17736TIP3    H274624   4.225   2.661   2.779 -3.0669 -1.3500 -0.7410
17737TIP3   OH274625   4.879   4.510  13.687  0.4430  0.3377  0.2309
17737TIP3    H174626   4.806   4.465  13.730  1.1752 -1.3417 -0.2109
17737TIP3    H274627   4.841   4.544  13.605 -0.6815  2.6194  1.5867
17738TIP3   OH274628   5.154   3.099  16.718 -0.4371 -0.1677  0.1347
17738TIP3    H174629   5.194   3.179  16.684  1.3569 -1.2224 -0.3661
17738TIP3    H274630   5.154   3.040  16.643 -1.2094 -0.8397  0.6524
17739TIP3   OH274631   0.104   3.200  12.786 -0.0511 -0.0097  0.6450
17739TIP3    H174632   0.051   3.121  12.793  0.9662 -0.7406  0.3084
17739TIP3    H274633   0.122   3.224  12.877 -1.9083  0.9495  0.8203
17740TIP3   OH274634   5.254   0.531   2.989  0.1909 -0.0045 -0.3927
17740TIP3    H174635   5.263   0.579   2.907 -1.2582  1.4271  0.2307
17740TIP3    H274636   5.161   0.507   2.993 -0.0772  1.1434  1.4157
17741TIP3   OH274637   2.526   1.442  14.661 -0.4606 -0.1679  0.2540
17741TIP3    H174638   2.460   1.451  14.730  0.4979  0.3701  1.1280
17741TIP3    H274639   2.596   1.502  14.687  0.5500 -1.0131 -0.4384
17742TIP3   OH274640   6.135   2.173  15.120 -0.8578  0.2313 -0.2209
17742TIP3    H174641   6.109   2.229  15.194 -0.7522 -0.0344  0.0163
17742TIP3    H274642   6.202   2.224  15.075 -1.6346  0.8387 -0.7256
17743TIP3   OH274643   5.598   5.178   5.231  0.8684 -0.1486  0.1829
17743TIP3    H174644   5.547   5.237   5.175  1.9291  0.0619 -0.6013
17743TIP3    H274645   5.668   5.234   5.266  1.4396 -0.7650  0.0414
17744TIP3   OH274646   0.267   0.557   2.862  0.1765 -0.1433 -0.5031
17744TIP3    H174647   0.340   0.537   2.804 -1.8417 -1.2501 -2.8504
17744TIP3    H274648   0.245   0.473   2.903 -0.1204  0.0607 -0.2346
17745TIP3   OH274649   1.382   6.683   5.366  0.0186  0.7277 -0.6058
17745TIP3    H174650   1.428   6.738   5.304 -0.3104  2.0974  0.3209
17745TIP3    H274651   1.441   6.609   5.381 -0.5984 -0.5496 -3.7514
17746TIP3   OH274652   1.089   4.928   1.437 -0.3201  1.0116 -0.4608
17746TIP3    H174653   1.095   4.835   1.417 -3.1863  0.3258  1.3481
17746TIP3    H274654   1.155   4.943   1.505 -1.9002 -0.4787  1.4927
17747TIP3   OH274655   4.521   1.621   3.603 -0.1356 -0.3501  0.0200
17747TIP3    H174656   4.548   1.691   3.663  1.8026 -2.7081  2.0851
17747TIP3    H274657   4.438   1.590   3.639  0.7914 -1.4468  1.3030
17748TIP3   OH274658   2.178   3.238   5.135  0.4770  0.0017 -0.2358
17748TIP3    H174659   2.091   3.272   5.158 -0.1282 -0.7681 -1.2444
17748TIP3    H274660   2.171   3.219   5.041  2.6628  2.5861 -1.0231
17749TIP3   OH274661   6.396   0.456  14.341 -0.1788  0.3654 -0.0614
17749TIP3    H174662   6.420   0.392  14.273 -1.1075  1.2895 -1.3136
17749TIP3    H274663   6.344   0.406  14.404 -1.4396 -0.0133 -1.3499
17750TIP3   OH274664   4.183   1.127   5.125  0.5863 -0.7961 -0.2068
17750TIP3    H174665   4.209   1.096   5.039  1.0245  0.2246 -0.4466
17750TIP3    H274666   4.087   1.131   5.121  0.4314 -2.9663  0.1386
17751TIP3   OH274667   6.275   3.214  15.995  0.5014  0.0904 -0.0863
17751TIP3    H174668   6.190   3.184  16.025  1.1417  0.6956  2.6191
17751TIP3    H274669   6.337   3.178  16.059  1.7840  3.0330  0.5290
17752TIP3   OH274670   1.070   4.335   2.362 -0.1402 -0.0275 -0.2661
17752TIP3    H174671   1.079   4.249   2.403  1.2347 -0.0485 -0.5539
17752TIP3    H274672   1.021   4.319   2.282  0.0856 -0.5495 -0.3045
17753TIP3   OH274673   1.464   1.866  16.888 -0.2080  0.3180 -0.5765
17753TIP3    H174674   1.398   1.798  16.892 -0.5529  0.7090  1.2550
17753TIP3    H274675   1.490   1.880  16.979  2.4173  0.1787 -1.2280
17754TIP3   OH274676   4.747   6.434   2.091 -0.5486  0.1336  0.2354
17754TIP3    H174677   4.760   6.510   2.034 -1.7313  0.2067  0.0369
17754TIP3    H274678   4.820   6.437   2.153  0.4320  0.3875 -0.9075
17755TIP3   OH274679   6.348   2.848   4.519  0.6253 -0.7140 -0.3018
17755TIP3    H174680   6.331   2.815   4.607 -0.8191  0.5997 -0.0461
17755TIP3    H274681   6.292   2.794   4.463  0.3648 -0.5268 -0.2231
17756TIP3   OH274682   4.123   3.035   2.841  0.0992 -0.2712  0.3502
17756TIP3    H174683   4.189   2.970   2.819 -0.6452 -1.0788  0.4458
17756TIP3    H274684   4.172   3.117   2.851  1.0494 -0.8139  0.2498
17757TIP3   OH274685   2.633   2.525  15.464  0.3702  0.2313 -0.4259
17757TIP3    H174686   2.684   2.552  15.540  1.0575 -0.1835 -0.7341
17757TIP3    H274687   2.592   2.606  15.434  0.4169  0.4723  0.1397
17758TIP3   OH274688   3.277   5.810   4.070 -0.3627  0.5279  0.2659
17758TIP3    H174689   3.287   5.814   3.974 -2.2149  1.1377  0.0624
17758TIP3    H274690   3.223   5.886   4.091 -0.4318  0.0853  1.7442
17759TIP3   OH274691   0.331   1.522   0.896  0.5276  0.5330 -0.4058
17759TIP3    H174692   0.361   1.432   0.888  0.3508  0.3966  0.3975
17759TIP3    H274693   0.273   1.535   0.821 -1.2108 -0.7208  0.6661
17760TIP3   OH274694   1.446   2.114  12.844 -0.0084 -0.5466 -0.2047
17760TIP3    H174695   1.494   2.041  12.804 -2.4359 -2.0242 -0.5777
17760TIP3    H274696   1.383   2.140  12.777 -1.6202 -0.5457  1.2751
17761TIP3   OH274697   3.385   2.190   0.087  0.1703 -0.5284  0.2591
17761TIP3    H174698   3.303   2.201   0.136  1.1388  1.6405  1.5302
17761TIP3    H274699   3.418   2.104   0.113 -1.8901 -1.6711 -0.6633
17762TIP3   OH274700   6.008   6.562   3.140  0.1464  0.4199  0.0920
17762TIP3    H174701   6.055   6.479   3.149 -1.1120 -0.3861 -0.5768
17762TIP3    H274702   5.939   6.559   3.206  0.4294  1.1904  0.4387
17763TIP3   OH274703   5.733   2.916  16.658 -0.2291 -0.3365 -0.1281
17763TIP3    H174704   5.792   2.954  16.723  0.5591  0.5171 -1.2974
17763TIP3    H274705   5.723   2.824  16.685  2.5596 -0.8283 -0.4897
17764TIP3   OH274706   6.226   2.484  14.765  0.5735  0.0519 -0.1685
17764TIP3    H174707   6.212   2.575  14.792 -0.9994  0.3250 -1.7698
17764TIP3    H274708   6.139   2.451  14.745  1.3916 -0.8343 -2.6015
17765TIP3   OH274709   1.023   3.015   0.311 -1.0571  0.3520  0.4626
17765TIP3    H174710   1.034   2.940   0.252 -3.1598  0.4555 -0.1325
17765TIP3    H274711   1.061   2.985   0.394 -0.9163 -0.9828 -0.0512
17766TIP3   OH274712   4.916   3.032   4.785 -0.2243 -0.0631  0.8098
17766TIP3    H174713   5.011   3.047   4.788  0.3509 -2.4652 -1.5170
17766TIP3    H274714   4.881   3.108   4.739  0.3303  1.4652  2.7917
17767TIP3   OH274715   6.183   2.937   0.548  0.0911  0.4753 -0.5509
17767TIP3    H174716   6.200   2.928   0.642  1.4900  1.6853 -0.6667
17767TIP3    H274717   6.113   3.003   0.543 -2.5824 -2.1025 -0.2547
17768TIP3   OH274718   6.747   2.082  16.870 -0.2190  0.1871 -0.4697
17768TIP3    H174719   6.754   2.142  16.795  0.1400  1.5510  0.6274
17768TIP3    H274720   6.654   2.082  16.892  0.1845  3.4035  1.8694
17769TIP3   OH274721   4.725   4.559  10.879 -0.5250 -0.0979 -0.4930
17769TIP3    H174722   4.760   4.477  10.912 -0.1895  0.3619  0.3137
17769TIP3    H274723   4.630   4.551  10.890 -0.3527  1.0714  3.2099
17770TIP3   OH274724   3.470   3.177   3.142  0.1716 -0.1296  0.4527
17770TIP3    H174725   3.512   3.258   3.167  1.1788 -0.6124  0.3623
17770TIP3    H274726   3.384   3.204   3.108 -0.2766  0.7234  2.1609
17771TIP3   OH274727   6.660   3.291  15.038 -0.5561 -0.0219 -0.3374
17771TIP3    H174728   6.599   3.316  14.969 -1.4071  1.3507  0.8512
17771TIP3    H274729   6.734   3.351  15.026 -1.7043  1.8358  1.2636
17772TIP3   OH274730   0.845   4.228  14.344 -0.1241  0.2529  1.0282
17772TIP3    H174731   0.923   4.199  14.391  0.2328  0.3872  0.5296
17772TIP3    H274732   0.847   4.323  14.351  0.3275  0.3184  0.1402
17773TIP3   OH274733   3.919   0.896   4.984 -0.8571  0.1352 -0.2209
17773TIP3    H174734   3.911   0.987   5.012 -0.8969 -0.1807  0.8601
17773TIP3    H274735   4.007   0.889   4.946 -0.6738  0.5092  0.1352
17774TIP3   OH274736   1.161   5.511   2.283  0.0712  0.9202 -0.0114
17774TIP3    H174737   1.077   5.482   2.248  0.0108 -1.2707  1.7421
17774TIP3    H274738   1.224   5.488   2.215 -0.2074 -1.9682  0.6010
17775TIP3   OH274739   3.143   5.524  16.386  1.0703 -0.5354  0.0009
17775TIP3    H174740   3.074   5.484  16.438  1.7380  0.2612  1.5625
17775TIP3    H274741   3.153   5.465  16.311 -0.6878 -1.1214  0.1770
17776TIP3   OH274742   3.281   3.654  16.993  0.3974  0.1576 -0.6021
17776TIP3    H174743   3.193   3.616  16.994 -0.0389  1.1284 -0.7840
17776TIP3    H274744   3.339   3.579  16.981 -0.3007 -0.6720  0.8796
17777TIP3   OH274745   3.122   2.189   5.786  0.4017  0.0206 -0.1922
17777TIP3    H174746   3.185   2.132   5.830 -0.7875  0.3010  2.0739
17777TIP3    H274747   3.038   2.144   5.796 -0.5907  2.0383  1.7100
17778TIP3   OH274748   1.257   2.394  14.767  0.0419  0.4506 -0.0857
17778TIP3    H174749   1.307   2.476  14.771  1.6312 -0.5257  2.6932
17778TIP3    H274750   1.319   2.331  14.729  0.2792 -0.3264  1.5343
17779TIP3   OH274751   3.906   2.713   3.307  0.6690 -0.1728 -0.3913
17779TIP3    H174752   3.963   2.638   3.320  1.1467  0.5059  1.9121
17779TIP3    H274753   3.917   2.766   3.387 -1.6265  1.0139 -0.7728
17780TIP3   OH274754   5.693   6.340  13.093  0.5835 -0.4422  0.3075
17780TIP3    H174755   5.623   6.330  13.157  0.3931  1.1251  0.3908
17780TIP3    H274756   5.648   6.367  13.012  1.0599  0.5391  0.3521
17781TIP3   OH274757   3.738   2.284   3.167  0.2348  0.0691 -0.1994
17781TIP3    H174758   3.764   2.359   3.221  1.4804  0.7306 -1.6173
17781TIP3    H274759   3.692   2.226   3.227 -1.9472  2.5186  0.7133
17782TIP3   OH274760   6.593   1.780  15.734  0.6583  0.5357  0.1140
17782TIP3    H174761   6.547   1.827  15.803 -1.1033  1.0539 -1.3257
17782TIP3    H274762   6.667   1.837  15.711 -0.2407  1.6359 -0.1642
17783TIP3   OH274763   0.824   1.963   0.171 -0.5339 -0.0707  0.1309
17783TIP3    H174764   0.774   2.030   0.217 -1.4667 -1.7625  1.6596
17783TIP3    H274765   0.774   1.946   0.091 -0.4250  0.8421 -0.1429
17784TIP3   OH274766   4.368   6.552   0.405  0.1235 -0.4321 -0.4212
17784TIP3    H174767   4.381   6.526   0.313  0.3320 -0.6012 -0.3454
17784TIP3    H274768   4.362   6.647   0.402  0.9610 -0.3692 -0.5171
17785TIP3   OH274769   3.648   2.617   4.225 -0.2313  0.4945 -0.0091
17785TIP3    H174770   3.634   2.633   4.132  1.2337  1.1326 -0.1567
17785TIP3    H274771   3.734   2.656   4.243 -1.2349  1.9622  1.9967
17786TIP3   OH274772   1.525   0.354   6.441 -0.3986 -0.2287 -0.2192
17786TIP3    H174773   1.605   0.391   6.479  0.4006 -0.8205 -1.2441
17786TIP3    H274774   1.472   0.329   6.516 -0.0387  1.0459  0.4833
17787TIP3   OH274775   2.540   0.759   3.527 -0.3727  0.1768  0.0417
17787TIP3    H174776   2.500   0.770   3.441 -1.0095  2.7855  0.5744
17787TIP3    H274777   2.602   0.688   3.516 -1.2012 -0.2730 -2.2828
17788TIP3   OH274778   0.324   1.233  16.729  0.2052  0.3900  0.1402
17788TIP3    H174779   0.385   1.287  16.780 -0.7067  1.8833 -0.3157
17788TIP3    H274780   0.245   1.230  16.783  1.0732 -2.8812  1.5168
17789TIP3   OH274781   2.106   6.568  12.381  0.6209  0.1663  0.2708
17789TIP3    H174782   2.131   6.529  12.464 -0.2310  0.6804  0.7770
17789TIP3    H274783   2.057   6.499  12.335  0.9085 -0.0433  0.2743
17790TIP3   OH274784   6.147   6.210  14.606  0.4420  0.5323 -0.3038
17790TIP3    H174785   6.101   6.254  14.534  0.6458 -1.2894 -1.6118
17790TIP3    H274786   6.123   6.118  14.597  1.1975  0.1299  1.4367
17791TIP3   OH274787   2.301   4.974   3.133  0.1382 -0.2973 -0.6358
17791TIP3    H174788   2.222   5.028   3.123 -0.7044 -1.4083 -0.1987
17791TIP3    H274789   2.373   5.037   3.135 -0.8720  0.8884  0.7133
17792TIP3   OH274790   0.827   2.288  17.046 -0.3164  0.6301 -0.7162
17792TIP3    H174791   0.908   2.263  17.001 -0.9019 -0.8291 -1.0312
17792TIP3    H274792   0.832   2.242  17.131 -0.3082  1.4478 -0.2647
17793TIP3   OH274793   4.161   1.085  13.541 -0.2845  0.0900  0.3862
17793TIP3    H174794   4.125   1.071  13.453 -0.3186 -1.2482  0.6064
17793TIP3    H274795   4.105   1.154  13.578 -1.2578 -0.4357 -0.0683
17794TIP3   OH274796   6.421   6.674  15.739 -0.5280  0.0168 -0.1133
17794TIP3    H174797   6.383   6.606  15.795  0.7346 -0.1002  0.6466
17794TIP3    H274798   6.452   6.741  15.800  0.2783  0.1986 -0.7027
17795TIP3   OH274799   5.527   2.988  16.213 -0.6226 -0.2420  0.5037
17795TIP3    H174800   5.572   2.997  16.129  0.5865 -0.6648  1.0792
17795TIP3    H274801   5.472   3.066  16.219 -0.4707 -0.0397 -0.5221
17796TIP3   OH274802   5.635   4.925  15.169  0.4503  0.4023 -0.1673
17796TIP3    H174803   5.610   4.858  15.233  0.1885  1.1433  0.5136
17796TIP3    H274804   5.731   4.931  15.178  0.3492  0.9816  0.6525
17797TIP3   OH274805   1.340   4.885  11.904  0.0307  0.0803  0.3584
17797TIP3    H174806   1.386   4.965  11.882  1.3377 -0.6916  0.2026
17797TIP3    H274807   1.261   4.887  11.850 -0.3890  1.6475  0.9757
17798TIP3   OH274808   5.085   1.696  11.896  0.1930  0.1749  0.3693
17798TIP3    H174809   5.114   1.604  11.896  1.9364  0.6919 -0.1811
17798TIP3    H274810   5.002   1.694  11.943 -0.6230 -1.9274 -0.9710
17799TIP3   OH274811   2.797   1.850  12.653 -0.1503 -0.2952 -1.0378
17799TIP3    H174812   2.776   1.771  12.603 -0.8231  0.8175 -2.6078
17799TIP3    H274813   2.722   1.863  12.710  0.1836 -1.0528 -0.4224
17800TIP3   OH274814   4.467   3.429   1.245 -0.1664  0.3563  0.0614
17800TIP3    H174815   4.557   3.459   1.249  1.3859 -3.7388  0.8922
17800TIP3    H274816   4.425   3.467   1.322  1.4199  0.8051  0.7483
17801TIP3   OH274817   1.935   3.664   5.487 -0.6958  0.2950 -0.2328
17801TIP3    H174818   2.024   3.634   5.507 -0.3479  0.6085 -1.2003
17801TIP3    H274819   1.919   3.735   5.549 -1.1142 -1.1340  1.3627
17802TIP3   OH274820   5.499   0.065   0.602  0.6679  0.3314 -0.2644
17802TIP3    H174821   5.530   0.111   0.524  1.6935  1.7729  0.9369
17802TIP3    H274822   5.470  -0.020   0.569 -0.4225  1.4475 -2.4535
17803TIP3   OH274823   5.387   5.458   6.277 -0.6405  0.4918  0.4202
17803TIP3    H174824   5.333   5.535   6.261  0.5739  0.8266 -2.8398
17803TIP3    H274825   5.468   5.493   6.314 -0.2108  0.8021 -0.7674
17804TIP3   OH274826   0.601   1.743  12.162  0.6055  1.1623 -0.1182
17804TIP3    H174827   0.623   1.835  12.150  1.6920  1.0317  0.7399
17804TIP3    H274828   0.505   1.742  12.172  0.4784  2.0660 -1.1530
17805TIP3   OH274829   5.919   2.086   1.517 -0.8794 -0.2009 -0.3427
17805TIP3    H174830   5.950   1.996   1.522 -0.5672 -0.1389 -1.0658
17805TIP3    H274831   5.962   2.122   1.440 -1.1963  0.4934 -0.2023
17806TIP3   OH274832   0.885   5.449   5.468  0.3875 -0.3215 -0.0641
17806TIP3    H174833   0.896   5.362   5.431  0.1769 -0.9168  1.2141
17806TIP3    H274834   0.866   5.434   5.561  0.9294  1.0981  0.3151
17807TIP3   OH274835   6.027   2.703   2.032  0.3623  0.0844 -0.1840
17807TIP3    H174836   5.969   2.759   2.083 -0.9199 -0.1678 -1.2996
17807TIP3    H274837   5.979   2.686   1.951  2.1719  0.1672 -1.3275
17808TIP3   OH274838   6.417   4.302   4.636 -0.2062  0.1072 -0.3475
17808TIP3    H174839   6.377   4.303   4.549  1.1237  0.9366 -0.9894
17808TIP3    H274840   6.357   4.353   4.691 -0.9210 -0.1949 -0.8391
17809TIP3   OH274841   6.674   4.090  10.935 -0.4432  0.6003  0.4811
17809TIP3    H174842   6.609   4.159  10.953 -0.7278  0.9970 -1.7398
17809TIP3    H274843   6.623   4.009  10.937 -0.4651  0.6277  1.3402
17810TIP3   OH274844   0.496   6.549  11.606 -0.8400  0.1487  0.7820
17810TIP3    H174845   0.553   6.624  11.626 -0.0879  0.1150 -1.0468
17810TIP3    H274846   0.468   6.564  11.515 -1.6272 -1.1973  0.7835
17811TIP3   OH274847   0.088   0.092   2.818 -0.0965  0.1497  0.1044
17811TIP3    H174848   0.106   0.068   2.727 -0.8448 -0.7873  0.1966
17811TIP3    H274849   0.013   0.039   2.843 -0.2305  0.7876  1.1106
17812TIP3   OH274850   2.309   1.729  11.173 -0.1441 -0.4346  0.6824
17812TIP3    H174851   2.260   1.650  11.151  1.3352 -1.5216  1.1326
17812TIP3    H274852   2.256   1.771  11.241 -1.6150 -0.3091 -0.4975
17813TIP3   OH274853   2.060   1.390   2.152  0.2393  0.7166 -0.1104
17813TIP3    H174854   1.979   1.431   2.119  0.5215  2.0715  0.7972
17813TIP3    H274855   2.030   1.308   2.192 -0.9265  1.8382  1.4467
17814TIP3   OH274856   6.030   1.487  15.241 -0.4593 -0.4143  0.4713
17814TIP3    H174857   6.007   1.463  15.151  1.2968  0.5669 -0.2868
17814TIP3    H274858   6.025   1.583  15.242  1.4053 -0.2920  0.8371
17815TIP3   OH274859   6.534   2.847  17.061 -0.5901  1.0791  0.0424
17815TIP3    H174860   6.498   2.815  17.144  0.0469 -1.0060 -0.4246
17815TIP3    H274861   6.555   2.939  17.078  0.9328  0.3486  2.7219
17816TIP3   OH274862   6.321   3.836  14.098  0.1471 -0.5326 -0.2580
17816TIP3    H174863   6.315   3.931  14.087  1.8039 -0.1341  1.7314
17816TIP3    H274864   6.232   3.808  14.117 -0.3056  0.6720 -0.5351
17817TIP3   OH274865   2.118   3.225   4.304  0.5544  0.1634 -0.9319
17817TIP3    H174866   2.144   3.139   4.269 -0.1922 -0.4129 -0.1008
17817TIP3    H274867   2.147   3.287   4.237  0.3206 -0.8067 -1.9750
17818TIP3   OH274868   4.738   5.012  15.907  0.3231 -0.3183  0.2358
17818TIP3    H174869   4.820   5.049  15.873 -0.4571  1.2894 -0.0328
17818TIP3    H274870   4.760   4.984  15.996  1.2722 -0.3116  0.0176
17819TIP3   OH274871   0.958   6.561  12.508  0.0511 -0.0490  0.0035
17819TIP3    H174872   0.888   6.504  12.475  0.8212 -0.4836 -0.9369
17819TIP3    H274873   0.988   6.608  12.430  0.7984  0.1428  0.4066
17820TIP3   OH274874   4.877   0.271  11.360 -0.3961  0.0911 -0.3486
17820TIP3    H174875   4.799   0.300  11.313 -0.8994  0.2089  0.5342
17820TIP3    H274876   4.884   0.178  11.341  0.4631  0.4896 -2.1291
17821TIP3   OH274877   4.333   2.834   5.827 -0.6865  0.1417 -0.0694
17821TIP3    H174878   4.316   2.877   5.911 -0.9784 -0.5606  0.2372
17821TIP3    H274879   4.298   2.745   5.838  0.7078 -0.4734 -0.3735
17822TIP3   OH274880   3.777   4.977   1.859  0.3726 -0.1380 -0.4982
17822TIP3    H174881   3.839   5.051   1.862  1.3392 -0.9222 -0.6589
17822TIP3    H274882   3.807   4.924   1.785 -0.5053 -0.5356 -0.5783
17823TIP3   OH274883   5.818   2.864   3.778  0.1260 -0.1339  0.9261
17823TIP3    H174884   5.820   2.797   3.847  0.4728  0.3496  1.3990
17823TIP3    H274885   5.910   2.885   3.763  0.0820 -0.6500 -0.1077
17824TIP3   OH274886   2.863   3.242  16.826 -0.3860 -0.0183  0.3887
17824TIP3    H174887   2.910   3.166  16.795  0.6777  0.1639  1.4953
17824TIP3    H274888   2.804   3.208  16.893  0.2111  0.1364  1.0035
17825TIP3   OH274889   5.491   1.792   2.252  0.4546  0.0049 -0.2798
17825TIP3    H174890   5.506   1.746   2.169 -2.6347 -0.4999 -0.6635
17825TIP3    H274891   5.559   1.759   2.310  1.4804 -1.1453 -2.0326
17826TIP3   OH274892   1.354   0.839   1.264  0.1114  0.4287  0.1414
17826TIP3    H174893   1.393   0.867   1.181  1.2812 -0.3965  0.3859
17826TIP3    H274894   1.410   0.879   1.331 -1.1245  1.5188  0.5723
17827TIP3   OH274895   5.591   5.135  15.335 -0.1361  0.5197 -0.3056
17827TIP3    H174896   5.663   5.092  15.381 -0.1205 -0.0323 -0.8428
17827TIP3    H274897   5.568   5.075  15.264 -2.9568 -0.6454  1.4303
17828TIP3   OH274898   5.543   2.734   1.305 -0.2038  0.3019  0.1420
17828TIP3    H174899   5.467   2.757   1.359 -0.4962  0.6966 -0.4183
17828TIP3    H274900   5.518   2.763   1.217  0.8973  1.1107  0.0850
17829TIP3   OH274901   3.817   3.412  11.856 -0.0657 -0.7436 -0.0214
17829TIP3    H174902   3.761   3.352  11.806  1.3831 -1.6084 -0.6771
17829TIP3    H274903   3.905   3.379  11.843  0.5355  0.0391  1.7477
17830TIP3   OH274904   3.443   1.867  14.217 -0.3757 -0.4977  0.1000
17830TIP3    H174905   3.368   1.841  14.270 -0.5278 -0.5835 -0.1556
17830TIP3    H274906   3.518   1.825  14.258 -0.4374 -0.2411  0.4813
17831TIP3   OH274907   5.880   0.346  16.111 -0.1206 -0.9855 -0.7486
17831TIP3    H174908   5.891   0.256  16.081 -0.2619 -1.3804  0.3574
17831TIP3    H274909   5.864   0.396  16.031  0.2819 -1.8852 -1.4089
17832TIP3   OH274910   6.236   3.591  14.602  0.3096 -0.4362  0.0050
17832TIP3    H174911   6.309   3.629  14.651  1.8051 -0.3441 -2.1593
17832TIP3    H274912   6.242   3.630  14.515 -1.1238 -1.9414 -0.8348
17833TIP3   OH274913   4.652   2.444   3.993 -0.4963  0.1060 -0.1709
17833TIP3    H174914   4.720   2.498   4.032  0.1946 -1.9080  1.6284
17833TIP3    H274915   4.692   2.409   3.913 -0.3875  0.9644 -0.5019
17834TIP3   OH274916   1.032   3.663  13.106 -0.2031 -0.2757 -0.6544
17834TIP3    H174917   1.115   3.709  13.116  2.1213 -3.8604 -1.5287
17834TIP3    H274918   1.053   3.587  13.052 -3.8497 -1.9816  0.0056
17835TIP3   OH274919   5.833   0.521   1.727  0.1284 -0.3373  0.2905
17835TIP3    H174920   5.866   0.530   1.638  1.2311  0.8917  0.7852
17835TIP3    H274921   5.757   0.579   1.731  0.6305  0.3321  0.3843
17836TIP3   OH274922   1.093   0.172   3.005  0.1553 -0.7067  0.2093
17836TIP3    H174923   1.156   0.220   2.951 -0.7372 -0.3118 -0.5018
17836TIP3    H274924   1.096   0.082   2.971 -0.4410 -0.4500 -0.5598
17837TIP3   OH274925   0.862   3.090   5.149 -0.1459 -0.5854 -0.0099
17837TIP3    H174926   0.865   3.149   5.074 -1.3549  0.0459  0.4037
17837TIP3    H274927   0.810   3.016   5.119  0.4581 -0.9417 -0.1898
17838TIP3   OH274928   3.422   6.643  13.858  0.1074  0.2111  0.2522
17838TIP3    H174929   3.461   6.590  13.788  0.9427  0.3138  0.6206
17838TIP3    H274930   3.442   6.594  13.938 -1.4985 -0.2975  0.3763
17839TIP3   OH274931   5.707   2.001   0.036 -0.2813  0.2318 -0.3085
17839TIP3    H174932   5.666   2.080   0.071 -0.9259  0.0403 -0.6148
17839TIP3    H274933   5.770   2.033  -0.028  0.6577  0.5671  0.7653
17840TIP3   OH274934   1.572   4.224   3.199 -0.9825 -0.2631  0.4300
17840TIP3    H174935   1.647   4.271   3.235 -1.7295 -1.2949  3.7013
17840TIP3    H274936   1.609   4.143   3.164 -0.5345 -1.4379  3.2947
17841TIP3   OH274937   3.283   3.719   5.862 -0.0715  0.2140 -0.2317
17841TIP3    H174938   3.361   3.679   5.822 -0.8296  0.0505 -1.6187
17841TIP3    H274939   3.304   3.813   5.864 -1.7753  1.0652 -5.7582
17842TIP3   OH274940   0.019   3.045  13.127  0.0718  0.0123 -0.0246
17842TIP3    H174941   0.022   3.132  13.167 -0.6163  0.5537 -1.1174
17842TIP3    H274942   0.011   2.985  13.201  3.5111  0.6097  1.0258
17843TIP3   OH274943   3.555   1.218  14.631  0.7417 -0.2049 -0.0729
17843TIP3    H174944   3.540   1.138  14.681  0.6095  0.0713  0.3380
17843TIP3    H274945   3.621   1.266  14.682  0.8419 -0.0661 -0.3320
17844TIP3   OH274946   0.980   2.361  11.686  0.4964 -0.0481 -0.1607
17844TIP3    H174947   0.963   2.418  11.610 -1.2589  1.1110  1.0121
17844TIP3    H274948   0.955   2.274  11.656  0.0912  0.3390 -1.0161
17845TIP3   OH274949   2.502   1.109   0.413  0.0382  0.1602  0.2259
17845TIP3    H174950   2.585   1.148   0.442  1.4846 -0.6177 -2.5708
17845TIP3    H274951   2.520   1.016   0.406 -0.6615  0.1265 -1.5865
17846TIP3   OH274952   6.611   2.820   5.838 -0.4697  0.0773  0.3803
17846TIP3    H174953   6.701   2.822   5.871  0.2896 -0.7760 -1.5008
17846TIP3    H274954   6.600   2.732   5.804 -1.0606  0.9587 -1.8900
17847TIP3   OH274955   6.567   3.213   4.363  0.1337  0.1533 -0.0584
17847TIP3    H174956   6.598   3.164   4.287  1.6641 -0.2161  0.7703
17847TIP3    H274957   6.473   3.193   4.367 -0.2650  1.1431 -2.5259
17848TIP3   OH274958   5.138   2.321   1.467 -0.2684  0.4690  0.1452
17848TIP3    H174959   5.200   2.350   1.400 -0.8411  0.5981 -0.3488
17848TIP3    H274960   5.055   2.361   1.440 -1.6008 -3.0796 -1.6657
17849TIP3   OH274961   1.756   2.587  12.701 -0.0582  0.3980  0.2178
17849TIP3    H174962   1.719   2.599  12.614  1.8424 -1.4654 -0.9482
17849TIP3    H274963   1.736   2.496  12.724  3.3232 -0.6440 -0.3841
17850TIP3   OH274964   5.629   0.743   2.697 -0.4347  0.2460  0.1707
17850TIP3    H174965   5.720   0.761   2.678 -0.1372  0.4834  1.6637
17850TIP3    H274966   5.580   0.808   2.647  0.1646 -0.3054 -1.1552
17851TIP3   OH274967   6.404   2.536   4.379 -0.5452 -0.0141  0.1135
17851TIP3    H174968   6.467   2.588   4.328 -0.1539  0.5165  1.1257
17851TIP3    H274969   6.429   2.549   4.470 -0.3599 -2.0845  0.4106
17852TIP3   OH274970   4.570   0.820  11.770 -0.4137  0.5548 -0.2970
17852TIP3    H174971   4.514   0.889  11.805 -0.4463  0.8123 -0.8477
17852TIP3    H274972   4.538   0.740  11.811  0.6269  1.0374  1.5773
17853TIP3   OH274973   2.700   3.985  16.463 -0.3435  0.0323 -0.3848
17853TIP3    H174974   2.632   4.040  16.501 -0.2714  0.1144 -0.3727
17853TIP3    H274975   2.771   3.987  16.527 -0.2301  0.1552 -0.5133
17854TIP3   OH274976   4.235   5.053   1.231  0.4138  0.2740  0.2561
17854TIP3    H174977   4.251   5.147   1.223 -1.4648  0.5801 -0.2990
17854TIP3    H274978   4.159   5.037   1.174  1.6974 -1.8781 -0.9690
17855TIP3   OH274979   4.687   5.520   1.305 -0.6716  0.6045 -0.2369
17855TIP3    H174980   4.658   5.429   1.296 -1.7492  0.9641 -0.5045
17855TIP3    H274981   4.699   5.550   1.215  0.9326  0.3640 -0.1386
17856TIP3   OH274982   2.754   0.476  16.467  0.2318 -0.1458 -0.3003
17856TIP3    H174983   2.777   0.465  16.559  2.2156 -1.4580 -0.8885
17856TIP3    H274984   2.691   0.548  16.466  0.3870  0.0824  2.0400
17857TIP3   OH274985   1.396   3.023  12.361  0.5373 -0.1858  0.1866
17857TIP3    H174986   1.406   3.118  12.372  0.1803  0.1295 -1.8103
17857TIP3    H274987   1.301   3.008  12.366  0.6654 -0.6152  1.5911
17858TIP3   OH274988   4.760   1.132  11.496  0.1894 -0.2100 -0.2991
17858TIP3    H174989   4.741   1.118  11.403 -0.8723 -1.4471  0.0705
17858TIP3    H274990   4.673   1.136  11.537  0.6502  0.3393  0.6395
17859TIP3   OH274991   6.751   5.998   5.617 -0.0931  0.2595  0.4863
17859TIP3    H174992   6.706   6.062   5.671  0.9327  2.8024 -1.4595
17859TIP3    H274993   6.843   6.006   5.641  0.2975  0.9992 -1.1407
17860TIP3   OH274994   3.145   6.570  12.207  0.2703 -0.4505  0.5374
17860TIP3    H174995   3.175   6.657  12.180 -1.2314  0.4255  1.5191
17860TIP3    H274996   3.162   6.567  12.301 -0.2055 -0.9750  0.6117
17861TIP3   OH274997   0.212   4.956   5.871 -0.4509  0.0616 -0.5096
17861TIP3    H174998   0.279   5.023   5.877 -0.4940  0.0372  0.5438
17861TIP3    H274999   0.259   4.873   5.883 -0.2574 -0.2042 -2.7499
17862TIP3   OH275000   0.555   2.197   1.211 -0.2804  0.0671 -0.4608
17862TIP3    H175001   0.497   2.132   1.171 -0.2565  0.1098 -0.5628
17862TIP3    H275002   0.495   2.258   1.255 -0.4262  1.3216 -2.3301
17863TIP3   OH275003   0.203   0.408   0.298  1.0767 -0.1347 -0.0953
17863TIP3    H175004   0.197   0.410   0.202  1.1539  2.3900 -0.1155
17863TIP3    H275005   0.296   0.420   0.317  1.0515 -0.5606  0.3298
17864TIP3   OH275006   0.352   3.826  12.012 -0.0801 -0.1036 -0.3264
17864TIP3    H175007   0.268   3.871  12.021 -0.6988 -1.3968  0.7226
17864TIP3    H275008   0.343   3.747  12.065  1.5244 -0.6811 -0.8421
17865TIP3   OH275009   2.938   2.621  12.511 -0.4523 -0.6476  0.3123
17865TIP3    H175010   2.954   2.595  12.420  1.5984  2.9537 -0.5749
17865TIP3    H275011   2.974   2.549  12.563  2.4747 -0.9084 -1.8086
17866TIP3   OH275012   0.688   1.361  15.707  0.6711 -0.2616 -0.3292
17866TIP3    H175013   0.716   1.333  15.619 -0.5526 -1.4883 -0.3686
17866TIP3    H275014   0.670   1.279  15.753  2.1298  0.3430  1.3874
17867TIP3   OH275015   5.481   3.868  17.095  0.4109  0.7055  0.2290
17867TIP3    H175016   5.544   3.797  17.084  1.2107  1.0184  2.3938
17867TIP3    H275017   5.396   3.828  17.076  0.6262 -1.3667  3.0796
17868TIP3   OH275018   1.740   0.867  13.891 -0.1626 -0.1461 -0.6069
17868TIP3    H175019   1.815   0.911  13.851  0.8912  0.6533  2.0272
17868TIP3    H275020   1.744   0.777  13.858 -0.0440  0.6690 -3.0473
17869TIP3   OH275021   4.168   1.184   2.151 -0.2856  0.1492 -0.6834
17869TIP3    H175022   4.168   1.218   2.061 -2.0489  0.2587 -0.6755
17869TIP3    H275023   4.149   1.090   2.141 -2.1835  0.4551 -0.3895
17870TIP3   OH275024   3.323   2.478   4.755 -0.2373 -0.6571  0.1626
17870TIP3    H175025   3.389   2.414   4.731 -1.2155 -1.8209  0.4469
17870TIP3    H275026   3.281   2.502   4.672 -0.0861 -0.6316  0.0937
17871TIP3   OH275027   1.039   2.840  14.069 -0.1036 -0.4788 -0.0159
17871TIP3    H175028   0.984   2.884  14.134  1.2680  1.6499 -0.1795
17871TIP3    H275029   1.079   2.912  14.019 -0.9925 -2.0071 -3.1774
17872TIP3   OH275030   3.330   2.566  15.996 -0.0231 -0.5570 -0.7101
17872TIP3    H175031   3.269   2.630  15.960  2.1054  1.5779 -0.8143
17872TIP3    H275032   3.390   2.548  15.923 -0.1136 -2.0713 -0.4292
17873TIP3   OH275033   3.446   2.998   2.700  0.2437 -0.3534 -0.5255
17873TIP3    H175034   3.362   3.003   2.745  0.8351 -0.9205  0.7134
17873TIP3    H275035   3.494   3.075   2.730 -1.1326  2.2001 -4.2277
17874TIP3   OH275036   5.630   0.079   1.053 -0.1610  0.0021 -0.0124
17874TIP3    H175037   5.724   0.062   1.040 -0.1676 -1.9925  2.0375
17874TIP3    H275038   5.587  -0.003   1.029 -0.9225 -0.6376  3.1269
17875TIP3   OH275039   1.010   6.689  15.023 -0.2838 -0.3953  0.4420
17875TIP3    H175040   1.101   6.718  15.033 -0.6942  1.2723 -0.3425
17875TIP3    H275041   1.015   6.618  14.959  0.1744  1.9756 -2.3740
17876TIP3   OH275042   2.559   1.675   1.827  0.2765  0.2754  0.3001
17876TIP3    H175043   2.560   1.766   1.797 -1.3761  0.0408 -0.5610
17876TIP3    H275044   2.485   1.670   1.887 -0.3501 -0.7429 -0.5217
17877TIP3   OH275045   3.729   4.628   6.695  0.3324  0.1253 -0.6607
17877TIP3    H175046   3.799   4.694   6.695 -0.1126  0.6242  0.3178
17877TIP3    H275047   3.753   4.568   6.765 -1.8855  2.2246  2.1736
17878TIP3   OH275048   4.805   4.719   4.416 -0.2209  1.3329 -0.3505
17878TIP3    H175049   4.783   4.630   4.390  0.7359  0.7112  0.8476
17878TIP3    H275050   4.777   4.774   4.343 -1.2716  0.1107 -0.8944
17879TIP3   OH275051   6.339   4.194   1.817  0.4316  0.7965  0.1022
17879TIP3    H175052   6.270   4.179   1.753  0.1191 -0.4254  0.6957
17879TIP3    H275053   6.299   4.171   1.901  1.9082 -1.2151  0.3361
17880TIP3   OH275054   2.889   0.937  15.854  0.0709  0.5517 -0.2395
17880TIP3    H175055   2.816   0.892  15.812  0.6380 -1.8868  1.1592
17880TIP3    H275056   2.964   0.918  15.798  0.5787 -1.6006  1.0496
17881TIP3   OH275057   6.773   1.983  13.200 -0.6695  0.7968 -0.0398
17881TIP3    H175058   6.855   1.968  13.154 -0.2272  3.4391 -0.2365
17881TIP3    H275059   6.753   1.899  13.241  0.7549 -0.6485 -2.1053
17882TIP3   OH275060   5.734   3.527  14.589  0.5549 -0.3685 -0.0698
17882TIP3    H175061   5.809   3.476  14.622 -0.4779 -0.8313  1.6976
17882TIP3    H275062   5.661   3.465  14.592 -0.3063  0.6430  0.1679
17883TIP3   OH275063   0.630   4.462  13.642  0.3531 -0.4746 -0.3704
17883TIP3    H175064   0.627   4.519  13.719  0.9448  1.5330 -1.7457
17883TIP3    H275065   0.565   4.500  13.583  1.7169 -0.3703 -1.8628
17884TIP3   OH275066   5.865   6.111   4.809 -0.0478  0.3778  0.1587
17884TIP3    H175067   5.785   6.076   4.769 -0.6000  0.7460  0.9242
17884TIP3    H275068   5.896   6.176   4.746  0.8139 -1.2099 -1.1319
17885TIP3   OH275069   2.107   0.654   1.716  0.0689  0.2667  0.2410
17885TIP3    H175070   2.104   0.698   1.801  0.1093  0.3586  0.1950
17885TIP3    H275071   2.015   0.645   1.690 -0.0126 -0.8903  0.8737
17886TIP3   OH275072   6.222   1.293  11.198 -0.3714 -0.3744 -0.9722
17886TIP3    H175073   6.316   1.286  11.216 -0.5637 -0.2401  0.1622
17886TIP3    H275074   6.217   1.312  11.104  0.8371  1.9767 -0.6257
17887TIP3   OH275075   2.106   5.583  17.182 -0.2359 -0.1705  0.0240
17887TIP3    H175076   2.138   5.615  17.098 -0.7012  1.4881  0.4548
17887TIP3    H275077   2.030   5.638  17.202 -0.4711 -0.9107  1.2699
17888TIP3   OH275078   5.837   2.808  14.769 -0.1501 -0.6747  0.2282
17888TIP3    H175079   5.756   2.790  14.720  0.7066  1.5854 -2.2324
17888TIP3    H275080   5.806   2.842  14.853 -1.8590  1.1099 -1.0308
17889TIP3   OH275081   2.670   3.671  14.316  0.0000 -0.0138  0.0714
17889TIP3    H175082   2.747   3.695  14.368  0.6574  0.5228 -1.0858
17889TIP3    H275083   2.631   3.754  14.291  1.6067 -0.0162 -2.9733
17890TIP3   OH275084   2.510   0.373  12.728 -0.2529 -0.1289  0.0710
17890TIP3    H175085   2.461   0.327  12.797  1.2306 -0.1498  1.1472
17890TIP3    H275086   2.588   0.407  12.772 -0.0801  1.3013 -1.2500
17891TIP3   OH275087   1.319   4.707  16.330  0.4108  0.2500  0.3284
17891TIP3    H175088   1.385   4.735  16.394  0.8541 -2.6653  1.2906
17891TIP3    H275089   1.362   4.718  16.245  1.0241  1.1255  0.7291
17892TIP3   OH275090   3.469   2.753   4.623 -0.3510  0.1001  0.1563
17892TIP3    H175091   3.403   2.762   4.693  0.8171 -0.6950  1.4067
17892TIP3    H275092   3.521   2.833   4.630  0.0998 -0.2226  0.5790
17893TIP3   OH275093   0.273   2.351  16.712 -0.4259  0.3523  0.3468
17893TIP3    H175094   0.249   2.335  16.804 -0.6778  0.4329  0.2976
17893TIP3    H275095   0.238   2.439  16.694 -1.7678 -0.2799 -0.2849
17894TIP3   OH275096   2.082   4.258   1.336  0.2456  0.1879  0.3029
17894TIP3    H175097   2.101   4.271   1.243  2.7643 -3.4856  0.0844
17894TIP3    H275098   2.164   4.278   1.381 -0.5402  0.6383  1.5906
17895TIP3   OH275099   6.473   4.980   5.052  0.6002 -0.2379 -0.5125
17895TIP3    H175100   6.556   5.026   5.034 -0.0437  1.1453 -0.0733
17895TIP3    H275101   6.483   4.947   5.141  1.0144 -0.8578 -0.7816
17896TIP3   OH275102   3.133   5.697  14.084  0.3970  0.2291 -0.1127
17896TIP3    H175103   3.202   5.633  14.101 -0.9032 -1.9799 -2.3958
17896TIP3    H275104   3.075   5.653  14.023 -1.0347  3.3748 -1.2165
17897TIP3   OH275105   4.783   5.943   3.209  0.2953 -0.0293 -0.6925
17897TIP3    H175106   4.872   5.945   3.245 -0.8422  3.2474  2.4769
17897TIP3    H275107   4.796   5.936   3.114  3.7953 -1.3226 -0.2776
17898TIP3   OH275108   2.659   5.529  14.717  0.1382  0.4046 -0.5890
17898TIP3    H175109   2.738   5.574  14.748 -0.7468  1.2601  0.5203
17898TIP3    H275110   2.672   5.438  14.742  2.6045 -0.4162 -4.1271
17899TIP3   OH275111   1.381   5.704  13.977 -0.2904 -0.7195 -0.1799
17899TIP3    H175112   1.425   5.705  14.062 -0.5286 -0.4974 -0.0592
17899TIP3    H275113   1.309   5.642  13.988 -0.0215 -1.0755 -0.3753
17900TIP3   OH275114   0.058   5.838   5.852  0.1588  0.3215  0.6107
17900TIP3    H175115   0.095   5.794   5.775  0.8162  2.1725 -0.1774
17900TIP3    H275116   0.067   5.773   5.922  0.0918 -1.1984 -0.7110
17901TIP3   OH275117   3.510   5.880   3.808  0.2912  0.6819  0.3392
17901TIP3    H175118   3.562   5.955   3.781 -0.1249  1.0781  0.6169
17901TIP3    H275119   3.421   5.915   3.820  0.1582  0.2172  0.7804
17902TIP3   OH275120   4.588   4.536  15.598 -0.0010  0.6814  0.6228
17902TIP3    H175121   4.676   4.499  15.605 -0.3035  0.1106  1.5878
17902TIP3    H275122   4.583   4.601  15.667 -0.9091 -0.5442  1.7718
17903TIP3   OH275123   1.867   0.393  16.355 -0.2291  0.4538  0.9844
17903TIP3    H175124   1.831   0.464  16.408  0.0590 -0.7740  2.9270
17903TIP3    H275125   1.792   0.357  16.308 -0.3906  1.9558  0.0232
17904TIP3   OH275126   0.846   6.397   1.617 -0.7835 -0.5742 -0.4450
17904TIP3    H175127   0.798   6.455   1.676  1.9241  0.8358  0.5675
17904TIP3    H275128   0.855   6.448   1.536 -1.5832 -1.1502 -0.9174
17905TIP3   OH275129   6.597   2.782   0.898 -0.3254 -1.0039 -0.6442
17905TIP3    H175130   6.605   2.877   0.905 -0.4514 -0.9708 -0.9122
17905TIP3    H275131   6.653   2.758   0.824  0.2297 -1.2203 -0.1562
17906TIP3   OH275132   3.165   0.513  16.530  0.3521  0.8549 -0.1990
17906TIP3    H175133   3.177   0.603  16.561  1.1378  1.1869 -1.3964
17906TIP3    H275134   3.164   0.520  16.435 -2.2605 -0.1157 -0.3148
17907TIP3   OH275135   0.067   4.105  11.343 -0.2233  0.0976  0.5089
17907TIP3    H175136   0.045   4.145  11.259  1.7512 -1.4727 -0.8587
17907TIP3    H275137   0.003   4.140  11.404 -0.8942  2.3512 -1.3615
17908TIP3   OH275138   1.017   6.186  15.200  0.5520 -0.1972  0.3267
17908TIP3    H175139   0.983   6.231  15.123  1.0914  0.2587  0.3467
17908TIP3    H275140   1.111   6.205  15.200  0.3328  1.1302  1.9565
17909TIP3   OH275141   4.619   6.054  13.848 -0.5158  0.2293 -0.6918
17909TIP3    H175142   4.597   6.042  13.755 -2.5185 -0.1387 -0.2087
17909TIP3    H275143   4.537   6.080  13.889  0.3726  0.5097  0.9703
17910TIP3   OH275144   0.575   1.625   0.966 -0.4125  0.1873 -0.2591
17910TIP3    H175145   0.542   1.642   1.054 -2.9001  3.3707 -1.5846
17910TIP3    H275146   0.503   1.582   0.921  0.2960 -0.1540 -1.1044
17911TIP3   OH275147   0.050   1.039  10.660  0.1859  0.1471  0.1066
17911TIP3    H175148   0.111   0.971  10.687  0.8231  0.9738  0.8222
17911TIP3    H275149   0.089   1.120  10.692 -1.3277  0.7005  0.6680
17912TIP3   OH275150   0.776   6.319  14.858  0.1886 -0.3501 -0.7948
17912TIP3    H175151   0.832   6.392  14.830  0.4306  0.4717  1.6133
17912TIP3    H275152   0.836   6.255  14.895 -0.3668  0.7010  2.1627
17913TIP3   OH275153   3.156   6.298  12.159 -0.0867  0.2203 -0.2613
17913TIP3    H175154   3.150   6.389  12.189  0.3062  0.2021 -0.1145
17913TIP3    H275155   3.162   6.305  12.063  2.7782  0.5525 -0.1619
17914TIP3   OH275156   2.476   0.637  16.931 -0.9121  0.2095 -0.3004
17914TIP3    H175157   2.409   0.645  16.998 -1.2939  0.3906 -0.6972
17914TIP3    H275158   2.431   0.600  16.855 -1.0789  2.2072 -1.2541
17915TIP3   OH275159   3.550   1.734  12.451 -0.9406  0.0117  0.4638
17915TIP3    H175160   3.631   1.736  12.401 -1.3467 -1.2509 -0.2782
17915TIP3    H275161   3.578   1.722  12.541 -0.2352  1.5439  0.4878
17916TIP3   OH275162   0.568   0.315  16.784 -0.7266  0.4639 -0.2088
17916TIP3    H175163   0.598   0.392  16.833  0.3259 -0.0109 -0.0873
17916TIP3    H275164   0.520   0.352  16.709  0.9127  1.3089 -0.8968
17917TIP3   OH275165   4.726   0.699  17.030  0.3069 -0.2692  0.0945
17917TIP3    H175166   4.819   0.718  17.015  0.5867 -1.5795 -0.0084
17917TIP3    H275167   4.681   0.740  16.956  0.9571 -0.7267 -0.5785
17918TIP3   OH275168   3.101   2.098   4.319 -0.1690 -0.6308 -0.5249
17918TIP3    H175169   3.177   2.086   4.262 -0.4031 -0.3095 -0.9088
17918TIP3    H275170   3.027   2.063   4.270 -0.1524 -1.7147  0.1891
17919TIP3   OH275171   4.450   2.112   5.177 -0.0715  0.4083  0.1092
17919TIP3    H175172   4.456   2.050   5.104  3.0754  1.4190 -0.6429
17919TIP3    H275173   4.498   2.070   5.248 -1.4252  0.2938  0.9888
17920TIP3   OH275174   5.310   0.389   1.446 -0.5345  0.4146 -0.0319
17920TIP3    H175175   5.368   0.350   1.380 -0.9536 -1.5608  0.7080
17920TIP3    H275176   5.229   0.338   1.441 -0.7379  0.5022  1.7106
17921TIP3   OH275177   6.490   4.730   3.749  0.3542 -0.0261 -0.0198
17921TIP3    H175178   6.451   4.816   3.737 -2.0891 -1.1899 -1.1914
17921TIP3    H275179   6.571   4.733   3.698 -1.1206  0.7669 -2.5035
17922TIP3   OH275180   2.437   0.174   5.991 -0.0607  0.4813  0.4248
17922TIP3    H175181   2.357   0.209   5.954  0.5067  1.0864 -0.2602
17922TIP3    H275182   2.507   0.215   5.940  0.6287 -2.0205 -0.7732
17923TIP3   OH275183   3.964   4.255   0.419 -0.5002  0.0389  0.0289
17923TIP3    H175184   3.895   4.273   0.356 -0.8372 -0.4032  0.2674
17923TIP3    H275185   3.924   4.195   0.483 -0.5143  1.3383  1.2858
17924TIP3   OH275186   4.162   5.088  11.570  0.0166  0.4114  0.0987
17924TIP3    H175187   4.141   5.111  11.479 -1.1793 -1.0604 -0.0299
17924TIP3    H275188   4.208   5.005  11.564 -1.2637 -0.3854  0.8897
17925TIP3   OH275189   0.378   3.612   5.300  0.4141  0.5168  0.4229
17925TIP3    H175190   0.473   3.620   5.305  0.4690 -0.2941  0.8697
17925TIP3    H275191   0.347   3.642   5.385  0.4164 -0.9617  0.9751
17926TIP3   OH275192   5.410   1.671  12.280 -0.3982 -0.4785  0.4072
17926TIP3    H175193   5.451   1.734  12.339 -1.6898 -1.2308  2.2059
17926TIP3    H275194   5.475   1.601  12.270  1.2620  1.2137 -2.0155
17927TIP3   OH275195   2.519   0.393   4.272  0.1255  0.0270 -0.1640
17927TIP3    H175196   2.508   0.474   4.223  0.6180  0.2819  0.1318
17927TIP3    H275197   2.546   0.421   4.359  1.4487 -0.4648 -0.3802
17928TIP3   OH275198   2.003   1.848   3.803 -0.2423  0.0699  0.1212
17928TIP3    H175199   2.023   1.889   3.719  0.6267 -0.0765  0.2387
17928TIP3    H275200   1.945   1.776   3.782  0.5577 -0.4217 -0.4589
17929TIP3   OH275201   0.614   4.927  13.250 -0.1647  0.0371  0.1219
17929TIP3    H175202   0.618   4.898  13.159 -0.3601 -0.2966  0.2178
17929TIP3    H275203   0.563   5.008  13.248 -1.8896 -0.9989  0.1769
17930TIP3   OH275204   5.200   3.952   3.361 -0.2503  0.3429  0.8006
17930TIP3    H175205   5.166   4.041   3.357 -0.5740  0.1650 -1.1426
17930TIP3    H275206   5.218   3.929   3.270  0.1647 -1.4550  1.3050
17931TIP3   OH275207   3.951   2.117   3.654 -0.7580 -0.3448  0.7284
17931TIP3    H175208   4.005   2.152   3.725 -0.9978  0.2447  0.6228
17931TIP3    H275209   4.007   2.122   3.576  0.4558 -3.3390  1.2703
17932TIP3   OH275210   2.095   3.012  15.607 -0.4267 -0.6107 -0.6052
17932TIP3    H175211   2.154   3.086  15.620  0.1453 -1.2956  0.9826
17932TIP3    H275212   2.030   3.020  15.677  0.5459 -2.4217  0.5862
17933TIP3   OH275213   0.481   1.832  13.779 -0.2703  0.1655 -0.1622
17933TIP3    H175214   0.510   1.888  13.707  0.3632  0.0640  0.0049
17933TIP3    H275215   0.423   1.768  13.739 -1.1211  1.0295 -0.3339
17934TIP3   OH275216   3.712   5.477   5.083  0.1519 -0.0083  0.1930
17934TIP3    H175217   3.706   5.523   5.167  2.2957  0.5929  0.0634
17934TIP3    H275218   3.755   5.538   5.024  1.5110 -1.5002 -0.4568
17935TIP3   OH275219   6.208   0.683   5.026 -0.6198 -0.3721  0.3646
17935TIP3    H175220   6.244   0.595   5.042  0.0615 -0.1161  0.2561
17935TIP3    H275221   6.256   0.740   5.086 -0.7999 -0.0137  0.1716
17936TIP3   OH275222   0.919   2.512   1.568  0.6274  0.1386 -0.1351
17936TIP3    H175223   0.835   2.465   1.564 -0.2242  1.6168 -0.2333
17936TIP3    H275224   0.900   2.592   1.616  2.0502  0.4192  0.0147
17937TIP3   OH275225   0.778   1.653   0.774  0.2222 -0.0579  0.7761
17937TIP3    H175226   0.727   1.663   0.854  1.2941 -1.1278  1.6162
17937TIP3    H275227   0.844   1.588   0.795  0.5982 -0.2814 -0.9576
17938TIP3   OH275228   6.378   2.188  14.663  0.5881 -0.3649 -0.2511
17938TIP3    H175229   6.378   2.177  14.758 -2.1557  0.9214  0.0004
17938TIP3    H275230   6.295   2.231  14.644 -1.1221 -4.4677 -3.7016
17939TIP3   OH275231   2.617   6.222   6.057  0.3079  0.2130  0.2966
17939TIP3    H175232   2.528   6.206   6.087  0.5587 -3.7371 -0.5572
17939TIP3    H275233   2.648   6.294   6.113 -2.9687  0.9495  1.3952
17940TIP3   OH275234   5.624   5.432   0.002  0.0456  0.1871  0.4511
17940TIP3    H175235   5.693   5.474   0.052  0.8339  0.0859 -0.5177
17940TIP3    H275236   5.629   5.473  -0.085  1.1496 -2.1848 -0.6899
17941TIP3   OH275237   5.530   1.454   3.067  0.2234  0.4793 -0.6283
17941TIP3    H175238   5.534   1.397   3.144  0.3576  1.1599 -0.1228
17941TIP3    H275239   5.560   1.399   2.995 -0.1722 -0.2526 -0.2498
17942TIP3   OH275240   6.353   3.636   0.682 -0.4076 -0.2966 -0.1851
17942TIP3    H175241   6.391   3.583   0.752 -1.3732 -0.0679  0.5324
17942TIP3    H275242   6.421   3.701   0.662 -1.5628  2.5288  3.6546
17943TIP3   OH275243   3.849   3.408   1.418 -0.4353 -0.3750 -0.4513
17943TIP3    H175244   3.913   3.442   1.480 -0.4214  0.3407 -0.8492
17943TIP3    H275245   3.799   3.343   1.468 -1.4151  1.2369  0.7573
17944TIP3   OH275246   4.397   0.902   3.583  0.1261 -0.2234  1.0162
17944TIP3    H175247   4.421   0.874   3.671  1.2463  1.6435  1.3563
17944TIP3    H275248   4.379   0.995   3.592  0.7353  0.1076 -0.8190
17945TIP3   OH275249   6.027   0.475   3.066 -0.1066 -0.0289  0.4278
17945TIP3    H175250   6.090   0.543   3.090 -1.5187  1.1399  0.9955
17945TIP3    H275251   6.036   0.467   2.971 -1.5755  2.7894 -0.0597
17946TIP3   OH275252   5.085   4.621  14.936  0.1863  0.2037 -0.8597
17946TIP3    H175253   5.097   4.535  14.977  1.5014  1.3044  1.2916
17946TIP3    H275254   5.174   4.654  14.925 -0.2968  1.2075 -1.8485
17947TIP3   OH275255   6.261   6.324  15.161 -0.1908  0.1693 -0.8505
17947TIP3    H175256   6.215   6.293  15.239 -0.8064  0.4193 -1.1078
17947TIP3    H275257   6.227   6.269  15.090  0.7887 -0.4418 -0.8517
17948TIP3   OH275258   0.103   4.491  15.078 -0.3693  0.1666 -0.2996
17948TIP3    H175259   0.031   4.435  15.048  0.2176 -0.7734  0.0018
17948TIP3    H275260   0.077   4.517  15.167  0.0639 -0.9466  0.1816
17949TIP3   OH275261   1.692   6.076   4.649  0.5491 -0.6903 -0.2721
17949TIP3    H175262   1.672   5.983   4.649  0.2757 -0.6584  1.3686
17949TIP3    H275263   1.607   6.119   4.638  0.6320 -0.6185 -0.6595
17950TIP3   OH275264   4.926   1.649   4.138 -0.4054 -0.3430 -0.2870
17950TIP3    H175265   5.005   1.694   4.169 -0.8545  1.1316 -1.1604
17950TIP3    H275266   4.858   1.676   4.199 -1.0114  1.5348 -1.6619
17951TIP3   OH275267   5.467   4.890  12.094 -0.1337 -0.4528 -0.1742
17951TIP3    H175268   5.494   4.852  12.011 -2.5736 -0.6007 -0.9779
17951TIP3    H275269   5.433   4.816  12.145  0.5199 -0.2218  0.6283
17952TIP3   OH275270   0.700   1.968   1.291 -0.4487 -0.5305  0.5706
17952TIP3    H175271   0.708   2.055   1.252  1.1575 -0.9402 -0.1372
17952TIP3    H275272   0.751   1.973   1.371 -0.6737 -0.7109  0.7255
17953TIP3   OH275273   5.558   0.687  13.534  1.0447 -0.1215 -0.3701
17953TIP3    H175274   5.548   0.597  13.503  0.1419 -0.5976  1.2248
17953TIP3    H275275   5.489   0.698  13.598 -0.2337  2.4275 -2.0396
17954TIP3   OH275276   1.779   0.877  11.855  0.3077  0.3380  0.0665
17954TIP3    H175277   1.703   0.894  11.911  1.1333  0.5546  1.1433
17954TIP3    H275278   1.822   0.801  11.894  2.0940  1.7731  1.0400
17955TIP3   OH275279   0.475   0.299  14.026 -0.1059  0.7128 -0.3477
17955TIP3    H175280   0.444   0.358  13.957 -1.4689 -0.3247 -0.6765
17955TIP3    H275281   0.407   0.232  14.032  1.2136 -0.6320  0.2446
17956TIP3   OH275282   6.390   1.151  15.336 -0.0802 -0.4990  0.1490
17956TIP3    H175283   6.479   1.186  15.338  0.0842 -0.7495 -1.5227
17956TIP3    H275284   6.335   1.225  15.361  0.6117 -0.5118  1.8625
17957TIP3   OH275285   3.274   5.344  15.358 -0.3663 -0.5543 -0.1904
17957TIP3    H175286   3.283   5.434  15.390  0.8166 -0.7860  0.1776
17957TIP3    H275287   3.333   5.340  15.283 -1.4254 -0.6572 -1.0283
17958TIP3   OH275288   1.453   3.046  11.594  0.2026  0.1940 -0.7942
17958TIP3    H175289   1.491   2.959  11.605  1.0082  0.5182 -0.9735
17958TIP3    H275290   1.506   3.088  11.526 -0.4498  0.6740 -1.0214
17959TIP3   OH275291   6.069   6.302   5.052 -0.4155 -0.0455 -0.2169
17959TIP3    H175292   5.985   6.259   5.069 -1.0943  0.7788 -1.3442
17959TIP3    H275293   6.129   6.263   5.115 -1.5067 -1.0750  0.2247
17960TIP3   OH275294   2.679   4.479   6.193 -0.0534  0.1479  0.6499
17960TIP3    H175295   2.604   4.419   6.200  0.9230 -0.9598  1.9969
17960TIP3    H275296   2.739   4.452   6.262  2.2867  0.0363 -1.2834
17961TIP3   OH275297   5.401   2.707  12.315  0.3413  0.0364 -0.1940
17961TIP3    H175298   5.442   2.724  12.230 -0.5598  0.9615 -0.4666
17961TIP3    H275299   5.429   2.779  12.371 -0.4734  0.3982 -0.2353
17962TIP3   OH275300   6.577   1.590   4.310  0.2238  0.1234  0.5976
17962TIP3    H175301   6.654   1.535   4.321 -0.6154 -1.3459 -0.5593
17962TIP3    H275302   6.527   1.549   4.240 -0.5293  2.2867 -0.2373
17963TIP3   OH275303   4.671   1.368   1.605 -0.2755 -0.2942 -0.6904
17963TIP3    H175304   4.701   1.320   1.681  0.1456 -1.0879 -1.3446
17963TIP3    H275305   4.732   1.344   1.535 -0.0058  1.2563 -1.0149
17964TIP3   OH275306   2.879   0.710  14.292 -0.0672 -0.4616 -0.0916
17964TIP3    H175307   2.817   0.663  14.235  0.5300  1.5652 -2.6170
17964TIP3    H275308   2.834   0.717  14.376 -2.3891 -0.8589 -1.2196
17965TIP3   OH275309   2.496   6.722  16.520 -0.8557 -0.3944  0.3072
17965TIP3    H175310   2.581   6.748  16.555 -0.5787 -0.9078  0.0273
17965TIP3    H275311   2.495   6.626  16.528 -0.8783 -0.5105 -0.8725
17966TIP3   OH275312   3.890   1.271   4.371 -0.0864  0.8270  0.1304
17966TIP3    H175313   3.967   1.214   4.377 -0.0694  0.8389  0.0280
17966TIP3    H275314   3.883   1.292   4.278 -1.2701 -0.6447 -0.1501
17967TIP3   OH275315   2.003   6.240  14.352 -0.6432  0.6728  0.2709
17967TIP3    H175316   2.001   6.159  14.301 -0.2443  0.5601  0.4317
17967TIP3    H275317   2.008   6.309  14.286 -0.2634  0.5350  0.1560
17968TIP3   OH275318   4.894   6.147  12.506 -0.4862  0.1222 -0.4585
17968TIP3    H175319   4.981   6.118  12.479 -0.4079  1.2554 -1.5164
17968TIP3    H275320   4.871   6.090  12.579  2.8125  2.3215  2.5925
17969TIP3   OH275321   1.641   1.189   0.775  0.2141 -0.2584 -0.4622
17969TIP3    H175322   1.563   1.162   0.824  0.1978  0.0865 -0.2932
17969TIP3    H275323   1.676   1.262   0.826 -1.0199  1.5935 -2.1016
17970TIP3   OH275324   4.490   6.605  16.509  0.0378 -0.8988  0.0665
17970TIP3    H175325   4.471   6.693  16.474  1.3368 -0.4800  0.3704
17970TIP3    H275326   4.582   6.591  16.491 -0.0094 -1.9739  0.5622
17971TIP3   OH275327   3.224   2.252  13.706 -0.0938 -0.4850 -0.0887
17971TIP3    H175328   3.222   2.188  13.635 -1.7107  0.8706 -1.3521
17971TIP3    H275329   3.228   2.200  13.786  1.5252 -2.0598 -1.1456
17972TIP3   OH275330   1.873   2.237   5.906  0.1167  0.3075 -0.1320
17972TIP3    H175331   1.924   2.220   5.828 -1.3908  2.7266 -1.7930
17972TIP3    H275332   1.791   2.188   5.893 -0.1542  0.7461 -0.1163
17973TIP3   OH275333   5.372   4.240   5.179 -0.0621 -0.6715  0.1672
17973TIP3    H175334   5.410   4.249   5.266 -1.3646 -2.6138  0.9851
17973TIP3    H275335   5.287   4.285   5.185  0.4090  0.3444 -0.5200
17974TIP3   OH275336   6.541   1.452   1.160 -0.0409 -0.2999  0.3755
17974TIP3    H175337   6.573   1.512   1.092  1.2626 -0.7515  0.5676
17974TIP3    H275338   6.452   1.430   1.132  0.1862  0.1471 -0.7685
17975TIP3   OH275339   6.762   0.511  14.710 -0.6165  0.0501  0.3203
17975TIP3    H175340   6.831   0.445  14.701 -1.3404 -0.5931 -0.6801
17975TIP3    H275341   6.731   0.500  14.800 -0.1222 -0.3467  0.4488
17976TIP3   OH275342   3.449   4.784  16.059 -0.0273 -0.3198  0.4223
17976TIP3    H175343   3.415   4.715  16.116  0.0588 -0.9249 -0.2434
17976TIP3    H275344   3.399   4.776  15.979  0.3744  0.0248  0.1288
17977TIP3   OH275345   2.370   1.407  14.891  0.1630 -0.0264  0.2753
17977TIP3    H175346   2.412   1.394  14.976  0.2363 -3.0456 -0.0895
17977TIP3    H275347   2.352   1.318  14.860 -1.4128  1.0200 -2.1204
17978TIP3   OH275348   3.902   5.608   3.026 -0.6885 -0.6587  0.5011
17978TIP3    H175349   3.914   5.587   3.119  0.8126 -2.2181  0.0252
17978TIP3    H275350   3.881   5.701   3.024  1.0775 -0.1513  2.3058
17979TIP3   OH275351   2.371   0.601  12.372 -0.3649 -0.0284  0.0088
17979TIP3    H175352   2.430   0.596  12.297  0.8736  3.1725  0.6039
17979TIP3    H275353   2.296   0.652  12.340 -1.3446 -1.2890  0.1809
17980TIP3   OH275354   2.901   4.607   2.563 -0.0079  0.2571 -0.5545
17980TIP3    H175355   2.849   4.677   2.603 -1.0028 -1.1521  0.7624
17980TIP3    H275356   2.966   4.585   2.631 -0.5277 -0.9275 -0.4201
17981TIP3   OH275357   1.244   2.257   3.482  0.5881 -0.6266  0.6847
17981TIP3    H175358   1.336   2.259   3.457  0.3474  0.3152 -0.2013
17981TIP3    H275359   1.208   2.340   3.450 -0.5412 -0.9204  1.1200
17982TIP3   OH275360   1.514   5.023  15.844  0.5951 -0.2414  0.4161
17982TIP3    H175361   1.585   5.080  15.874 -1.1519  0.7794  2.9830
17982TIP3    H275362   1.473   4.992  15.925 -2.3865 -0.1154 -0.9362
17983TIP3   OH275363   6.525   6.513   1.730  0.0974  0.1725  0.3137
17983TIP3    H175364   6.584   6.460   1.783  0.0318  1.7231  2.0342
17983TIP3    H275365   6.545   6.488   1.639  3.2163  0.4614  0.8131
17984TIP3   OH275366   2.401   4.569  13.693  0.5732 -0.2579  0.4227
17984TIP3    H175367   2.473   4.606  13.743 -1.2568  1.5911  1.9034
17984TIP3    H275368   2.322   4.607  13.733 -1.1039  0.4476 -3.1534
17985TIP3   OH275369   5.361   3.999   5.873  0.0195  0.3210  0.2607
17985TIP3    H175370   5.430   4.044   5.922  1.2671 -1.4537  0.1979
17985TIP3    H275371   5.406   3.930   5.825 -1.1962  1.6844 -3.1718
17986TIP3   OH275372   6.176   5.718  12.869  0.2978 -0.4087  0.4951
17986TIP3    H175373   6.084   5.691  12.875  0.0660  0.5455  1.5570
17986TIP3    H275374   6.224   5.645  12.909 -0.2449  0.2562  2.4600
17987TIP3   OH275375   0.644   4.584   4.628  0.1639 -0.2619 -0.0954
17987TIP3    H175376   0.702   4.612   4.557  0.7310 -0.6404  0.2110
17987TIP3    H275377   0.676   4.498   4.653 -0.5336 -0.4788  0.0860
17988TIP3   OH275378   0.761   5.605  17.032 -0.5551 -0.0713 -0.3078
17988TIP3    H175379   0.724   5.600  17.121 -0.2848 -2.6366 -0.2438
17988TIP3    H275380   0.855   5.613  17.046 -0.5079 -0.5269 -0.3453
17989TIP3   OH275381   2.805   0.630  11.377  0.0861 -0.0655  0.1729
17989TIP3    H175382   2.833   0.712  11.336  2.1286 -0.9969 -0.4446
17989TIP3    H275383   2.792   0.653  11.469 -0.7993  1.2286 -0.2428
17990TIP3   OH275384   2.738   3.974   5.960 -0.2271 -0.2438 -0.1870
17990TIP3    H175385   2.810   4.030   5.932  0.2912 -1.4588 -1.3723
17990TIP3    H275386   2.763   3.943   6.047 -0.4672  1.2321  0.4348
17991TIP3   OH275387   1.727   5.863   4.350  0.6883  0.2340  0.0813
17991TIP3    H175388   1.696   5.847   4.439  2.2655 -0.0424  0.6072
17991TIP3    H275389   1.791   5.795   4.334  1.0222  0.7725 -0.9696
17992TIP3   OH275390   1.899   3.927  10.637 -0.2287 -0.0252  0.2913
17992TIP3    H175391   1.861   4.008  10.672 -0.2516  0.8769 -1.7150
17992TIP3    H275392   1.985   3.920  10.679  0.4275  1.8859 -0.6433
17993TIP3   OH275393   4.109   0.233   5.629 -0.2261  0.5312 -0.0838
17993TIP3    H175394   4.203   0.217   5.626 -0.6131 -2.0497 -0.8664
17993TIP3    H275395   4.086   0.226   5.721  0.4560  2.3262  0.2683
17994TIP3   OH275396   2.701   6.023  11.524 -0.0878 -0.2094 -0.6160
17994TIP3    H175397   2.765   5.953  11.509  1.7790  0.7871  1.9768
17994TIP3    H275398   2.731   6.095  11.469  1.9794  0.7116  1.5343
17995TIP3   OH275399   3.190   4.106  15.904  0.3786  0.2929  0.0063
17995TIP3    H175400   3.209   4.013  15.919  1.3337  0.1781 -1.6220
17995TIP3    H275401   3.272   4.141  15.869 -0.1132  1.6565  0.1695
17996TIP3   OH275402   3.079   4.091   1.392  0.4241 -0.0966 -0.3284
17996TIP3    H175403   3.096   4.021   1.330  0.4557 -0.8889  0.5559
17996TIP3    H275404   3.031   4.049   1.464  0.7654  0.7078  0.3907
17997TIP3   OH275405   3.874   2.698  14.815 -0.2589  0.6693  0.1697
17997TIP3    H175406   3.823   2.618  14.827 -1.1350  1.1725 -0.1066
17997TIP3    H275407   3.809   2.767  14.808  0.4238  1.2384 -0.9381
17998TIP3   OH275408   1.251   0.454   5.146 -0.1668 -0.3350 -0.2206
17998TIP3    H175409   1.227   0.474   5.055  1.1135 -2.1894 -1.0471
17998TIP3    H275410   1.331   0.505   5.161  0.9028 -1.7144 -0.9746
17999TIP3   OH275411   2.643   1.706   3.587 -0.1582 -0.1519  0.1169
17999TIP3    H175412   2.708   1.674   3.650  0.7182  0.6921 -0.3515
17999TIP3    H275413   2.559   1.681   3.626  0.4012 -0.4948  1.1480
18000TIP3   OH275414   4.935   0.602  12.126  0.0858  0.3727  0.2111
18000TIP3    H175415   4.939   0.693  12.098 -2.6510  0.2278 -1.0567
18000TIP3    H275416   4.989   0.555  12.062  1.7398  1.0967  1.0411
18001TIP3   OH275417   3.276   5.010  10.263  0.8615  0.6097  0.4773
18001TIP3    H175418   3.282   5.098  10.226 -0.0705  0.5830  0.2322
18001TIP3    H275419   3.245   5.024  10.352  0.5086  0.5231  0.3701
18002TIP3   OH275420   3.270   2.396   3.124  0.4865 -0.0565 -0.6532
18002TIP3    H175421   3.264   2.421   3.032  2.4437  0.5389 -0.6551
18002TIP3    H275422   3.349   2.439   3.156 -0.0960 -0.3418  1.2945
18003TIP3   OH275423   3.586   0.528   3.625  0.4252 -0.5905  0.8786
18003TIP3    H175424   3.673   0.518   3.587 -0.1245  1.1924 -0.9918
18003TIP3    H275425   3.528   0.480   3.566  0.0344 -1.3137  1.8182
18004TIP3   OH275426   5.128   4.033  13.418 -0.0878 -0.0611 -0.5075
18004TIP3    H175427   5.041   4.016  13.382 -0.2690  2.2200 -1.3324
18004TIP3    H275428   5.186   4.029  13.342  0.7130 -2.2692  0.1385
18005TIP3   OH275429   2.745   3.838   0.461 -0.3853  0.1812  0.1862
18005TIP3    H175430   2.660   3.799   0.442 -0.7624  0.8066  0.5724
18005TIP3    H275431   2.731   3.933   0.453  0.0700  0.3354  1.0563
18006TIP3   OH275432   4.695   3.982  14.357  0.1374 -0.4270 -0.3080
18006TIP3    H175433   4.703   4.054  14.419 -0.8373  1.1777 -1.9515
18006TIP3    H275434   4.661   3.909  14.409 -1.0649  0.9834  0.9751
18007TIP3   OH275435   0.894   6.148   0.332 -0.0964 -0.6695 -0.1510
18007TIP3    H175436   0.807   6.141   0.295 -0.4815  0.3841  0.4988
18007TIP3    H275437   0.953   6.121   0.262 -0.9325 -1.3485 -0.6080
18008TIP3   OH275438   2.717   6.382   6.254  0.3937  0.3473  0.3200
18008TIP3    H175439   2.648   6.439   6.287  1.1120  0.6136  1.4227
18008TIP3    H275440   2.799   6.427   6.276  0.9408  0.2288 -1.3017
18009TIP3   OH275441   0.341   0.802  13.097 -0.0439 -0.4679 -0.4797
18009TIP3    H175442   0.304   0.749  13.167  2.8121 -2.4408 -0.2750
18009TIP3    H275443   0.348   0.890  13.135 -1.3992 -0.7767  0.5577
18010TIP3   OH275444   5.132   4.413   5.645  0.1393 -0.2562  0.1179
18010TIP3    H175445   5.092   4.488   5.600 -0.9176 -1.3042 -0.7582
18010TIP3    H275446   5.156   4.353   5.575  1.0548 -0.7178  0.8058
18011TIP3   OH275447   1.554   5.804  14.568 -0.4136 -0.1439 -0.1385
18011TIP3    H175448   1.554   5.883  14.622  3.5404 -1.1147  1.6082
18011TIP3    H275449   1.614   5.824  14.496 -0.5764 -1.0563 -0.5401
18012TIP3   OH275450   1.940   6.662  16.203  0.8990 -0.1014  0.1007
18012TIP3    H175451   1.929   6.693  16.293 -0.6719  0.6357 -0.3198
18012TIP3    H275452   1.972   6.737  16.155 -0.2656  0.1168 -0.3609
18013TIP3   OH275453   4.730   2.415  12.055 -0.1813 -0.8879 -0.1703
18013TIP3    H175454   4.737   2.320  12.062 -0.3861 -1.0117 -1.4715
18013TIP3    H275455   4.818   2.444  12.033 -0.0514 -0.7362  0.5280
18014TIP3   OH275456   6.653   3.021   5.638  0.3635 -0.4173 -0.2403
18014TIP3    H175457   6.714   2.986   5.573  2.4774  0.9888  0.8785
18014TIP3    H275458   6.659   2.959   5.712  0.4169 -0.2916 -0.1390
18015TIP3   OH275459   5.311   1.289  12.197  0.1071 -0.0889  0.6982
18015TIP3    H175460   5.304   1.347  12.273 -2.2422 -0.3050  0.7185
18015TIP3    H275461   5.277   1.205  12.229 -2.1580  0.1408 -0.8412
18016TIP3   OH275462   0.613   0.922  16.499 -0.0742  0.1143 -0.0684
18016TIP3    H175463   0.663   0.846  16.529  0.0581  1.2818  3.1332
18016TIP3    H275464   0.638   0.992  16.559 -2.0234  2.0440 -1.3323
18017TIP3   OH275465   3.588   1.335  10.696 -0.4096 -0.6263 -0.1586
18017TIP3    H175466   3.631   1.259  10.736  0.6683 -1.3277 -2.5023
18017TIP3    H275467   3.625   1.340  10.608 -2.5949  0.8844 -1.0701
18018TIP3   OH275468   6.428   0.586  13.619  0.1564  0.1117 -0.5875
18018TIP3    H175469   6.510   0.545  13.648  0.7253  2.0266  0.6906
18018TIP3    H275470   6.436   0.677  13.646 -2.0842  0.5336 -1.1625
18019TIP3   OH275471   0.045   0.624  10.873  0.8012  0.0988 -0.1331
18019TIP3    H175472  -0.003   0.705  10.856  0.1690 -0.2946 -0.2350
18019TIP3    H275473   0.123   0.653  10.922  1.5958  0.9882 -1.8315
18020TIP3   OH275474   1.828   2.206   3.693 -0.0353  0.5691  0.1359
18020TIP3    H175475   1.804   2.135   3.633 -1.6942  0.8843  0.3744
18020TIP3    H275476   1.924   2.210   3.688 -0.0661  0.1024 -1.9351
18021TIP3   OH275477   3.434   0.492  15.976  0.7999 -0.3146 -0.5168
18021TIP3    H175478   3.370   0.431  16.014 -0.0884  0.0079 -1.4486
18021TIP3    H275479   3.475   0.533  16.051  1.2701 -1.8942  0.1428
18022TIP3   OH275480   0.067   2.994  14.782 -0.5693 -0.0999  0.1376
18022TIP3    H175481   0.157   2.970  14.760 -0.0611  0.1240  1.8246
18022TIP3    H275482   0.038   3.051  14.711  1.2336  1.2448  0.4280
18023TIP3   OH275483   5.066   4.371   0.934  0.4438 -0.2349  0.0505
18023TIP3    H175484   5.096   4.460   0.953 -1.3787  0.7860 -1.4812
18023TIP3    H275485   5.125   4.315   0.984  2.1607  1.7783  0.4456
18024TIP3   OH275486   5.629   4.505  12.354 -0.1863  0.0482  0.2300
18024TIP3    H175487   5.604   4.436  12.416  1.6307 -2.0757 -1.2364
18024TIP3    H275488   5.626   4.586  12.405 -0.8671 -1.2975  2.4625
18025TIP3   OH275489   5.316   2.001   6.016  0.5465  0.2170 -0.2659
18025TIP3    H175490   5.277   2.083   5.987  0.6618 -0.3059 -1.9748
18025TIP3    H275491   5.409   2.008   5.993  0.6580 -0.2059  0.0329
18026TIP3   OH275492   5.526   5.265  13.252  0.3795  0.7079  0.5984
18026TIP3    H175493   5.451   5.322  13.266 -1.0089 -1.2893  1.9589
18026TIP3    H275494   5.506   5.187  13.304  1.3319 -1.7357 -2.4198
18027TIP3   OH275495   2.004   6.461  13.587  0.7825  0.5012  0.0246
18027TIP3    H175496   2.063   6.386  13.586  1.4607  0.9874  1.0117
18027TIP3    H275497   2.052   6.530  13.540 -0.2607  0.0448 -1.7749
18028TIP3   OH275498   0.492   1.285  13.617 -0.3840  0.1361  0.1506
18028TIP3    H175499   0.396   1.285  13.618 -0.5242 -3.3314 -0.2700
18028TIP3    H275500   0.516   1.198  13.650  2.6147  0.5762 -0.5907
18029TIP3   OH275501   2.278   4.767  14.546  0.3337  0.7213 -0.0354
18029TIP3    H175502   2.251   4.776  14.638 -0.8008  1.6191 -0.4291
18029TIP3    H275503   2.203   4.800  14.496  0.6212 -0.4642 -1.3178
18030TIP3   OH275504   2.956   3.547  16.685 -0.0313  0.2637 -0.8493
18030TIP3    H175505   2.959   3.642  16.679 -0.3095  0.1787 -3.3309
18030TIP3    H275506   2.874   3.522  16.641 -0.6209 -1.0741  0.9001
18031TIP3   OH275507   1.156   2.653   0.399  0.3660 -0.1079  0.2670
18031TIP3    H175508   1.217   2.585   0.426  0.5153  0.8388  2.4450
18031TIP3    H275509   1.201   2.735   0.418 -0.7162  0.6136 -0.2048
18032TIP3   OH275510   0.461   2.491   0.247  0.5697  0.2791 -0.9314
18032TIP3    H175511   0.528   2.458   0.187  1.3901  1.8407 -0.9187
18032TIP3    H275512   0.504   2.560   0.297 -0.5611  0.1161  0.3447
18033TIP3   OH275513   2.853   4.111  14.796 -0.3187  0.5972 -0.3172
18033TIP3    H175514   2.761   4.106  14.824 -0.0645  1.1149  0.6802
18033TIP3    H275515   2.898   4.047  14.851  0.1104  1.2314  0.0778
18034TIP3   OH275516   3.611   1.160  15.129  0.3547  0.6384 -0.1806
18034TIP3    H175517   3.647   1.080  15.089 -2.7777 -1.9720  1.6764
18034TIP3    H275518   3.682   1.195  15.183  1.3209 -2.0283  0.4346
18035TIP3   OH275519   4.351   5.335   1.464  0.5895  0.3492 -0.2081
18035TIP3    H175520   4.284   5.393   1.499 -0.1742  0.7212 -2.1373
18035TIP3    H275521   4.371   5.274   1.535 -0.3189  1.4955  1.0637
18036TIP3   OH275522   4.487   1.199   0.385  0.0400  0.2509  0.4049
18036TIP3    H175523   4.423   1.210   0.456  0.9790 -0.0694  1.3346
18036TIP3    H275524   4.463   1.115   0.345  0.8713 -0.7224  1.8545
18037TIP3   OH275525   4.730   3.949   1.352 -0.0360 -0.3613  0.1078
18037TIP3    H175526   4.746   3.925   1.443 -0.6149 -1.4171 -0.0539
18037TIP3    H275527   4.753   4.042   1.347 -2.0507  0.3034  1.8601
18038TIP3   OH275528   4.036   6.217  14.048  0.1406 -0.2866 -0.0652
18038TIP3    H175529   3.959   6.260  14.085 -0.5923 -0.0840 -1.7205
18038TIP3    H275530   4.100   6.216  14.119 -1.2414 -0.1052  1.2355
18039TIP3   OH275531   6.055   4.578   5.691  0.1275  0.2689  0.1050
18039TIP3    H175532   6.050   4.482   5.695 -0.6439  0.3377  0.8264
18039TIP3    H275533   6.005   4.601   5.613 -0.6781  0.1600  0.5864
18040TIP3   OH275534   5.967   2.745   2.928 -0.6322 -0.3966  0.1702
18040TIP3    H175535   5.900   2.775   2.989 -1.4539 -2.0843  0.1505
18040TIP3    H275536   5.970   2.813   2.860 -1.5869  0.2026  0.7073
18041TIP3   OH275537   5.807   0.404  11.866  0.0769  0.3302  0.2169
18041TIP3    H175538   5.851   0.486  11.843  0.4445 -0.1170 -0.7579
18041TIP3    H275539   5.850   0.339  11.810 -1.3823 -0.2401 -0.2793
18042TIP3   OH275540   1.419   4.255  12.660 -0.7703  0.7137  0.0789
18042TIP3    H175541   1.325   4.266  12.670 -1.1210 -0.3225 -1.6311
18042TIP3    H275542   1.452   4.344  12.646 -1.7010  0.9549 -0.7215
18043TIP3   OH275543   6.375   5.425   4.580 -0.0890  0.2388  0.3445
18043TIP3    H175544   6.443   5.467   4.633  1.9072 -1.8566 -0.4386
18043TIP3    H275545   6.325   5.498   4.543  3.0277  1.9753 -0.7428
18044TIP3   OH275546   4.038   6.708   4.407 -0.2902  0.9386  0.3701
18044TIP3    H175547   4.127   6.698   4.372 -0.9970 -0.5976 -1.0855
18044TIP3    H275548   4.037   6.654   4.486 -0.1861  0.1657 -0.1437
18045TIP3   OH275549   4.714   1.424  12.485  0.5185  0.4138  0.0119
18045TIP3    H175550   4.636   1.457  12.530 -0.4951 -0.3625 -1.0899
18045TIP3    H275551   4.783   1.429  12.551 -0.3232  1.6302  0.8623
18046TIP3   OH275552   3.660   2.564  15.604  0.0690 -0.5077 -0.2077
18046TIP3    H175553   3.704   2.518  15.532 -0.7422  1.8345 -2.3583
18046TIP3    H275554   3.722   2.632  15.630 -0.6894  0.3462 -0.5765
18047TIP3   OH275555   6.666   1.107   4.288  0.1361  0.4274 -0.0305
18047TIP3    H175556   6.635   1.132   4.374  0.7280 -0.5840  0.5036
18047TIP3    H275557   6.681   1.012   4.294  1.8081  0.6022 -0.7085
18048TIP3   OH275558   0.536   0.363  12.366  0.2659  0.5769  0.2872
18048TIP3    H175559   0.583   0.282  12.385 -0.7090  0.2270  1.3388
18048TIP3    H275560   0.604   0.430  12.363  0.9422 -0.0701  0.7785
18049TIP3   OH275561   1.392   3.134  11.863 -0.2486  0.0890 -0.2531
18049TIP3    H175562   1.430   3.056  11.904  0.1786  0.4030 -0.0492
18049TIP3    H275563   1.438   3.142  11.779  1.2684  1.3487  0.6484
18050TIP3   OH275564   6.564   0.320  15.256  0.2524 -0.5189  0.1052
18050TIP3    H175565   6.604   0.295  15.339 -1.1914  1.5781  1.5116
18050TIP3    H275566   6.638   0.335  15.197  1.5486  1.7519  2.1676
18051TIP3   OH275567   6.756   3.663  14.390  0.1490  1.0711 -0.1000
18051TIP3    H175568   6.754   3.589  14.452  3.4531  1.4804  0.6785
18051TIP3    H275569   6.697   3.728  14.429  0.9940  0.7299  1.8585
18052TIP3   OH275570   0.707   1.821   6.272 -0.3181 -0.0479  0.6086
18052TIP3    H175571   0.692   1.915   6.271 -0.8963 -0.1400 -0.5904
18052TIP3    H275572   0.620   1.782   6.260 -0.0034 -0.7194  0.4323
18053TIP3   OH275573   1.583   4.466   0.572 -0.7586  0.3965  0.0556
18053TIP3    H175574   1.506   4.515   0.544 -0.5901  0.5700 -0.1123
18053TIP3    H275575   1.550   4.380   0.596 -1.2700  1.0294  1.7269
18054TIP3   OH275576   4.950   6.608   3.356 -0.1906  0.5391  0.3387
18054TIP3    H175577   4.939   6.543   3.287  0.6973 -0.3536  1.0079
18054TIP3    H275578   4.888   6.581   3.424 -2.1594  2.2712 -0.6542
18055TIP3   OH275579   2.171   6.737   1.887 -0.1158 -0.3755  0.0436
18055TIP3    H175580   2.234   6.768   1.951 -0.9327 -0.0183  0.7007
18055TIP3    H275581   2.157   6.812   1.828  2.1614 -1.3288 -1.8469
18056TIP3   OH275582   1.581   1.043   1.787 -0.2950  0.0448 -0.1337
18056TIP3    H175583   1.487   1.050   1.773 -0.2146  0.2622 -0.5804
18056TIP3    H275584   1.591   1.044   1.883 -0.6536  1.2969 -0.0960
18057TIP3   OH275585   1.730   5.072  16.018  0.7723  0.1489 -0.1699
18057TIP3    H175586   1.716   5.167  16.023  0.3629  0.0568  0.5438
18057TIP3    H275587   1.825   5.062  16.028  0.7740  0.4581  0.1432
18058TIP3   OH275588   6.733   0.928  14.528  0.0574 -0.4764 -0.3691
18058TIP3    H175589   6.653   0.875  14.536 -1.3239  1.3702 -1.0990
18058TIP3    H275590   6.797   0.870  14.487 -0.5791 -2.3067  1.1129
18059TIP3   OH275591   1.530   1.550   5.512  0.0699 -0.0916  0.4877
18059TIP3    H175592   1.481   1.543   5.594 -1.3962 -0.6234 -0.3791
18059TIP3    H275593   1.528   1.643   5.491 -0.5331 -0.0909  0.5136
18060TIP3   OH275594   3.484   1.588  13.790  0.3533 -0.1441 -0.4780
18060TIP3    H175595   3.459   1.673  13.826 -1.6977 -0.9344  0.1038
18060TIP3    H275596   3.554   1.557  13.848 -0.0271  0.4196  0.2966
18061TIP3   OH275597   0.270   1.740  11.808 -0.1578 -0.1401  0.4436
18061TIP3    H175598   0.303   1.656  11.841  3.0183  0.4888 -0.7686
18061TIP3    H275599   0.264   1.727  11.713  3.6461  1.7820 -0.2710
18062TIP3   OH275600   3.733   3.564  12.974  0.3721 -0.2681 -0.5010
18062TIP3    H175601   3.732   3.587  12.881 -0.9289 -0.6779 -0.6009
18062TIP3    H275602   3.644   3.582  13.004  0.8604  0.1446  0.7435
18063TIP3   OH275603   5.576   6.462  17.323 -0.3000  0.2712 -0.6491
18063TIP3    H175604   5.529   6.539  17.354 -1.4786 -1.0245  0.9252
18063TIP3    H275605   5.668   6.480  17.344  0.0273  2.7267 -3.5446
18064TIP3   OH275606   1.636   4.952   4.121 -0.2863 -0.1332 -0.3545
18064TIP3    H175607   1.554   4.929   4.166  1.6079 -2.8314  2.0869
18064TIP3    H275608   1.624   4.920   4.032 -2.0092 -0.0575 -0.1932
18065TIP3   OH275609   3.476   1.548  10.836  0.5072 -0.0376  0.6016
18065TIP3    H175610   3.520   1.470  10.802  0.3043 -0.1657  0.6289
18065TIP3    H275611   3.463   1.528  10.929  0.0142 -0.1760  0.5024
18066TIP3   OH275612   3.486   3.062  17.127 -0.4231  0.6381  0.2185
18066TIP3    H175613   3.449   3.061  17.039  1.1671  3.8325 -0.6352
18066TIP3    H275614   3.556   2.996  17.124  0.1801  1.3102 -1.2088
18067TIP3   OH275615   3.217   4.111   1.910  0.6160  0.1722  0.0208
18067TIP3    H175616   3.219   4.116   1.815  2.5758 -0.5705 -0.0109
18067TIP3    H275617   3.151   4.044   1.929  3.0118 -2.7021 -1.0535
18068TIP3   OH275618   6.369   5.270  17.245  0.3468 -0.2897  0.3807
18068TIP3    H175619   6.323   5.188  17.226  0.9549 -0.6731  0.5507
18068TIP3    H275620   6.299   5.334  17.259 -0.1322 -0.6891 -0.1301
18069TIP3   OH275621   5.230   6.085   3.592 -0.2453  0.9127  0.3034
18069TIP3    H175622   5.166   6.048   3.653  0.6654  1.5653  1.7230
18069TIP3    H275623   5.267   6.009   3.547 -0.4452  0.3409  1.0840
18070TIP3   OH275624   3.541   4.481  14.675 -0.0687 -0.1589  0.2180
18070TIP3    H175625   3.552   4.503  14.582 -1.1725 -0.2453  0.0487
18070TIP3    H275626   3.506   4.561  14.714 -1.2868 -0.6612  0.1926
18071TIP3   OH275627   0.858   4.298  11.863 -0.1334  0.4390 -0.0330
18071TIP3    H175628   0.849   4.281  11.769  0.6245 -0.9139  0.1080
18071TIP3    H275629   0.842   4.392  11.872 -1.6866  0.3481 -1.3101
18072TIP3   OH275630   1.351   3.278   3.024  0.1016  0.0051  0.4436
18072TIP3    H175631   1.422   3.333   2.992 -1.4532  1.5429 -0.5001
18072TIP3    H275632   1.383   3.244   3.108  1.6074  1.3355  0.4495
18073TIP3   OH275633   2.086   6.007   5.876  0.2274 -0.0255 -0.7684
18073TIP3    H175634   2.000   5.997   5.918  0.5112 -0.1962 -0.2242
18073TIP3    H275635   2.139   5.936   5.912  0.0077 -1.2115 -2.6523
18074TIP3   OH275636   5.862   5.032   4.419  0.3614 -0.4566  0.2869
18074TIP3    H175637   5.929   5.090   4.456  0.2125  0.1882 -0.4391
18074TIP3    H275638   5.841   5.071   4.335 -1.0249 -0.5794  0.5632
18075TIP3   OH275639   4.023   4.889   2.457  0.1308  0.0279  0.1494
18075TIP3    H175640   4.086   4.961   2.461  0.5921 -0.3825  0.4017
18075TIP3    H275641   4.031   4.855   2.367  0.9397 -0.6014  0.4430
18076TIP3   OH275642   6.387   0.996  12.310  0.1631 -0.4655 -0.5984
18076TIP3    H175643   6.399   0.952  12.394 -0.2220 -1.1801 -0.9104
18076TIP3    H275644   6.442   0.946  12.249  0.0365 -0.2669 -0.8758
18077TIP3   OH275645   4.801   5.395  11.428  0.0411 -0.2727 -0.1281
18077TIP3    H175646   4.879   5.342  11.412 -0.1635 -0.3889 -0.7640
18077TIP3    H275647   4.773   5.423  11.341  0.3073  1.1112  0.2014
18078TIP3   OH275648   5.160   0.735  13.653  0.5246  0.0034  0.4580
18078TIP3    H175649   5.134   0.737  13.561  2.4273  0.1047 -0.1018
18078TIP3    H275650   5.206   0.817  13.666 -0.4228  0.3604  1.7468
18079TIP3   OH275651   5.425   5.534  12.053  0.6212  0.1847 -0.2437
18079TIP3    H175652   5.330   5.531  12.055  0.6292  0.0903  1.1154
18079TIP3    H275653   5.448   5.515  11.962 -0.6189 -0.8044 -0.3734
18080TIP3   OH275654   0.205   1.896  13.055  0.0529 -0.0426  0.3932
18080TIP3    H175655   0.243   1.941  12.980  0.7243 -0.0343  0.7211
18080TIP3    H275656   0.250   1.811  13.057  0.6820  0.2876  1.2695
18081TIP3   OH275657   3.938   3.226  14.543 -0.0341 -0.0416  0.0015
18081TIP3    H175658   3.995   3.150  14.534  1.8317  1.1674  1.0903
18081TIP3    H275659   3.980   3.281  14.608 -0.1415  2.9582 -2.2322
18082TIP3   OH275660   4.193   0.828   4.504 -0.5334 -0.4112  0.5941
18082TIP3    H175661   4.264   0.830   4.569 -1.4232 -0.4425  1.5998
18082TIP3    H275662   4.209   0.748   4.454  1.0576  0.4062 -0.2894
18083TIP3   OH275663   3.535   2.223  15.838  0.3215 -0.1287  0.3883
18083TIP3    H175664   3.458   2.202  15.889 -0.4673 -1.1448 -1.1329
18083TIP3    H275665   3.510   2.300  15.786 -0.2531 -1.3036 -1.1762
18084TIP3   OH275666   4.321   1.546   6.140 -0.7653  0.4447  0.1955
18084TIP3    H175667   4.407   1.585   6.151 -0.8715  0.4246  1.1957
18084TIP3    H275668   4.278   1.557   6.225 -2.3372  1.8174 -0.7069
18085TIP3   OH275669   0.165   3.697   3.057 -0.6686  0.7390  0.2415
18085TIP3    H175670   0.203   3.644   3.128  0.3629 -1.7261 -1.9825
18085TIP3    H275671   0.223   3.772   3.049  1.3697 -0.8059 -0.2872
18086TIP3   OH275672   4.178   2.676  13.496  0.3536 -0.0917 -0.0035
18086TIP3    H175673   4.088   2.703  13.519  0.8402  1.0301  0.6642
18086TIP3    H275674   4.175   2.659  13.402 -0.5099  0.1604 -0.0308
18087TIP3   OH275675   3.215   2.874   2.218 -0.7005 -0.2235  0.0983
18087TIP3    H175676   3.287   2.911   2.168 -0.4806  1.9669  1.8827
18087TIP3    H275677   3.245   2.873   2.309 -3.6742  3.4448  1.4118
18088TIP3   OH275678   4.239   0.114   2.974  0.1167 -0.3776  0.2842
18088TIP3    H175679   4.206   0.169   2.903  0.5865 -0.4143  0.0363
18088TIP3    H275680   4.211   0.026   2.951 -2.4630 -0.0395  1.7167
18089TIP3   OH275681   3.188   0.869  12.423 -0.2349 -0.3184 -0.3400
18089TIP3    H175682   3.155   0.826  12.502  2.0596 -1.6644 -0.0144
18089TIP3    H275683   3.210   0.797  12.364  0.7440  0.5421 -1.0597
18090TIP3   OH275684   6.428   1.546  17.017 -0.0726  0.3582  0.3616
18090TIP3    H175685   6.446   1.590  16.934 -1.9042 -0.2282 -0.4042
18090TIP3    H275686   6.477   1.597  17.082  2.9752 -0.2997 -1.2418
18091TIP3   OH275687   3.700   0.689   0.852 -0.2498  0.2371  0.1219
18091TIP3    H175688   3.762   0.631   0.809 -0.1932  1.2236 -1.2043
18091TIP3    H275689   3.746   0.773   0.858 -0.6095  0.3716  1.2852
18092TIP3   OH275690   5.976   0.479  16.331  0.2612  0.0005 -0.4409
18092TIP3    H175691   5.950   0.408  16.272 -1.6798  1.4473 -1.4206
18092TIP3    H275692   5.988   0.555  16.274  2.2909  0.5467  0.5863
18093TIP3   OH275693   2.804   2.725   3.464  0.0687 -0.0948 -0.3800
18093TIP3    H175694   2.768   2.682   3.542 -0.9021  2.1565  0.5021
18093TIP3    H275695   2.814   2.817   3.490  2.6210  0.1751 -1.9617
18094TIP3   OH275696   5.520   2.313   1.361 -0.0811 -0.1995  0.5135
18094TIP3    H175697   5.601   2.273   1.328 -0.3696 -1.4256  1.2343
18094TIP3    H275698   5.488   2.252   1.427  0.1477  1.8827  2.6809
18095TIP3   OH275699   0.114   3.598  13.904 -0.2616 -0.4334 -0.6095
18095TIP3    H175700   0.203   3.621  13.876 -0.1015  0.2133  0.3846
18095TIP3    H275701   0.073   3.683  13.923 -0.2312 -0.8451  1.4490
18096TIP3   OH275702   5.952   1.019  10.899  0.1950  0.4212  0.0038
18096TIP3    H175703   5.955   0.977  10.813  1.0993  0.6383 -0.0730
18096TIP3    H275704   5.990   1.105  10.886 -0.0933  0.6331  0.5259
18097TIP3   OH275705   0.095   5.621  16.880 -0.3933 -0.8058  0.0027
18097TIP3    H175706   0.127   5.696  16.930  0.4311 -0.4315 -1.0416
18097TIP3    H275707   0.017   5.593  16.927  0.9868 -1.2671  2.2242
18098TIP3   OH275708   2.748   6.706   0.893 -0.1539 -0.0386  0.3263
18098TIP3    H175709   2.805   6.783   0.897 -1.1357  0.6733  1.3671
18098TIP3    H275710   2.789   6.649   0.828  0.5123  1.4311 -0.5952
18099TIP3   OH275711   1.005   6.517  14.801 -0.1861  0.2908  0.0735
18099TIP3    H175712   0.981   6.516  14.708 -2.1422 -0.3984  0.5448
18099TIP3    H275713   1.079   6.457  14.808  1.3506  1.8964 -1.3294
18100TIP3   OH275714   2.785   1.643   1.004  0.0696 -0.6658  0.7578
18100TIP3    H175715   2.708   1.589   1.025  0.2163 -1.3334 -0.3307
18100TIP3    H275716   2.859   1.593   1.040  0.1534 -0.9051  0.2531
18101TIP3   OH275717   5.043   3.609   3.628  0.3342  0.3132 -0.2766
18101TIP3    H175718   5.021   3.559   3.549  0.9308 -1.1129  0.4347
18101TIP3    H275719   5.060   3.698   3.595  1.1370 -0.3668 -1.8456
18102TIP3   OH275720   4.968   1.347   0.828 -0.6925  0.1682  0.5463
18102TIP3    H175721   4.942   1.307   0.746 -2.4949  0.4529  0.9382
18102TIP3    H275722   4.951   1.440   0.816 -1.8003  0.1142  1.5027
18103TIP3   OH275723   3.024   6.093   2.136  0.6410 -0.3059 -0.1547
18103TIP3    H175724   2.943   6.060   2.097  1.1562 -2.1734  0.2527
18103TIP3    H275725   3.004   6.104   2.229  0.9423 -1.2075  0.0332
18104TIP3   OH275726   5.104   3.751   4.988 -0.5644  0.4708  0.4426
18104TIP3    H175727   5.012   3.775   4.975 -0.2372  1.3122 -0.4835
18104TIP3    H275728   5.138   3.814   5.051 -0.7361 -0.1561  1.1791
18105TIP3   OH275729   6.080   5.902  16.199 -0.1934  0.1982 -0.9498
18105TIP3    H175730   6.097   5.893  16.106  0.8186  0.0229 -0.7594
18105TIP3    H275731   6.088   5.996  16.216 -2.8178  0.6092 -1.4587
18106TIP3   OH275732   1.184   6.018  17.074  0.0532 -0.0827  0.0927
18106TIP3    H175733   1.232   6.038  17.154 -1.8742  1.6699  0.9149
18106TIP3    H275734   1.197   6.095  17.018  0.2770 -0.6995 -0.7180
18107TIP3   OH275735   0.431   0.585   3.965 -0.9814 -0.0466 -0.1732
18107TIP3    H175736   0.353   0.634   3.940 -1.4261 -0.1423  0.9544
18107TIP3    H275737   0.473   0.563   3.882 -0.5288  2.5846 -0.7189
18108TIP3   OH275738   2.313   0.909  15.617  0.7789  0.0376 -0.2150
18108TIP3    H175739   2.387   0.924  15.676  1.1010  0.9141 -0.8219
18108TIP3    H275740   2.273   0.829  15.649  0.3929  0.9617  1.7780
18109TIP3   OH275741   5.411   0.293   4.020  0.5672  0.5901 -0.3550
18109TIP3    H175742   5.409   0.375   3.970  1.7628  1.1431  0.4643
18109TIP3    H275743   5.411   0.224   3.953  0.7148  1.2802 -1.0785
18110TIP3   OH275744   1.941   1.582  14.151  0.2927 -0.2576 -0.3314
18110TIP3    H175745   2.010   1.562  14.088  1.0616 -1.2825  0.7798
18110TIP3    H275746   1.947   1.512  14.216 -1.3496  0.0233  0.1731
18111TIP3   OH275747   0.161   2.488   0.659  0.4320  0.3011 -0.0817
18111TIP3    H175748   0.187   2.402   0.691  2.3778  0.2448 -1.6050
18111TIP3    H275749   0.109   2.470   0.580 -0.8532  0.5239  0.6795
18112TIP3   OH275750   5.700   1.947  13.796  0.5902 -0.3430 -0.1747
18112TIP3    H175751   5.660   1.899  13.868  1.5749 -0.0302  0.6146
18112TIP3    H275752   5.715   2.035  13.832  1.8306 -0.4153 -0.4852
18113TIP3   OH275753   5.278   3.385   4.667  0.3070  0.8259 -0.1340
18113TIP3    H175754   5.320   3.464   4.631 -0.5282  0.8783 -1.0423
18113TIP3    H275755   5.256   3.409   4.757 -0.5850  1.9128 -0.6046
18114TIP3   OH275756   2.683   1.336   5.702  0.2443  0.1099  0.3134
18114TIP3    H175757   2.690   1.316   5.795  0.8952 -0.3295  0.1727
18114TIP3    H275758   2.624   1.268   5.668  1.0703 -0.5476  0.1624
18115TIP3   OH275759   5.569   2.506  12.383 -0.0468 -0.0663 -0.1296
18115TIP3    H175760   5.656   2.541  12.401  0.6200 -0.7631 -1.8130
18115TIP3    H275761   5.516   2.583  12.361  0.0098  0.4045  1.3026
18116TIP3   OH275762   2.539   2.592  11.835  0.2546  0.1010 -0.2893
18116TIP3    H175763   2.495   2.672  11.866  1.3208  1.1676 -1.3962
18116TIP3    H275764   2.537   2.600  11.740  1.3246 -0.6592 -0.3896
18117TIP3   OH275765   1.521   0.007  12.790  0.5516  0.2800 -0.2975
18117TIP3    H175766   1.495  -0.070  12.740  1.4776  0.7562 -1.5845
18117TIP3    H275767   1.600   0.039  12.745 -0.0475  2.2092 -0.0745
18118TIP3   OH275768   3.562   5.463  13.686 -0.1084 -0.0398  0.0428
18118TIP3    H175769   3.632   5.510  13.731  0.0480 -0.7799  0.5872
18118TIP3    H275770   3.575   5.484  13.593 -0.3657  1.4027  0.3132
18119TIP3   OH275771   0.263   2.786  16.915  0.2186 -0.7719 -0.6670
18119TIP3    H175772   0.310   2.737  16.848 -0.9655  0.2531 -2.3249
18119TIP3    H275773   0.173   2.753  16.910 -0.4161  0.9205 -1.2530
18120TIP3   OH275774   2.757   4.052  12.890  0.6861  0.3120  0.4428
18120TIP3    H175775   2.780   4.145  12.899  1.2068  0.1562  0.7933
18120TIP3    H275776   2.770   4.016  12.978  1.0039 -0.2036  0.1867
18121TIP3   OH275777   0.274   1.656   1.839 -0.0323  0.2064 -0.0993
18121TIP3    H175778   0.306   1.583   1.892 -2.4957  0.3019  1.6825
18121TIP3    H275779   0.211   1.615   1.779 -0.1043  0.6267 -0.3146
18122TIP3   OH275780   6.393   1.505   6.338  0.2632  0.7129 -0.0947
18122TIP3    H175781   6.428   1.417   6.323 -0.4935  0.2973  0.5267
18122TIP3    H275782   6.394   1.515   6.433  0.9770  1.6519 -0.1850
18123TIP3   OH275783   6.564   1.973   2.245  0.1850 -0.4203  0.2539
18123TIP3    H175784   6.544   1.915   2.172  2.2258  3.2525 -3.6495
18123TIP3    H275785   6.659   1.968   2.254  0.2100  1.0387  0.9679
18124TIP3   OH275786   3.935   5.487  13.873 -0.5660  0.0505 -0.0496
18124TIP3    H175787   3.881   5.442  13.938 -0.0801 -0.4216  0.0389
18124TIP3    H275788   4.002   5.423  13.849  0.2598  0.7789  0.2177
18125TIP3   OH275789   3.966   0.194  12.950  0.0490 -0.2284  0.4473
18125TIP3    H175790   4.017   0.130  13.000  0.5584 -0.1028  0.0996
18125TIP3    H275791   3.983   0.277  12.994  1.3803  0.0718 -0.5451
18126TIP3   OH275792   5.801   5.128  15.695 -0.9240 -0.1806 -0.2336
18126TIP3    H175793   5.861   5.189  15.736 -0.3981 -0.0631 -1.1511
18126TIP3    H275794   5.831   5.041  15.723 -2.1604 -0.0285  1.7262
18127TIP3   OH275795   6.573   5.850   4.609 -0.6720 -0.2611  0.5435
18127TIP3    H175796   6.631   5.924   4.594 -2.2708  0.6927 -1.4048
18127TIP3    H275797   6.497   5.888   4.654 -1.0305 -0.9474  0.5298
18128TIP3   OH275798   2.468   0.542   2.086 -0.2598 -0.6157  0.0696
18128TIP3    H175799   2.388   0.507   2.125 -0.6323  0.7497  0.6001
18128TIP3    H275800   2.437   0.606   2.021  0.3870 -1.4427 -1.1010
18129TIP3   OH275801   1.162   5.982  10.911 -0.5436 -0.7085 -0.0923
18129TIP3    H175802   1.204   5.993  10.826 -1.4758 -0.0734 -0.4835
18129TIP3    H275803   1.088   5.923  10.895  0.0485 -1.6588  0.5508
18130TIP3   OH275804   3.380   5.061   4.607 -0.2992  0.0455  0.0277
18130TIP3    H175805   3.425   5.117   4.543  0.0340  0.0168  0.2323
18130TIP3    H275806   3.433   4.981   4.609  0.2256  0.4069  1.0230
18131TIP3   OH275807   1.121   6.014  12.386 -0.0036  0.3513 -0.4158
18131TIP3    H175808   1.202   6.001  12.436 -0.0247 -1.4025 -0.7589
18131TIP3    H275809   1.053   6.026  12.453  0.3452  0.5905 -0.1000
18132TIP3   OH275810   6.753   4.105  15.192 -0.0937 -0.0888 -0.1278
18132TIP3    H175811   6.765   4.029  15.248  1.0573  1.1084  1.3516
18132TIP3    H275812   6.841   4.135  15.172 -0.3938  2.4594  1.7159
18133TIP3   OH275813   0.138   0.956   4.721  0.1458 -0.1412 -0.5979
18133TIP3    H175814   0.232   0.975   4.713 -0.0112  1.2977  0.5199
18133TIP3    H275815   0.096   1.022   4.666 -0.3054  1.1077  1.1661
18134TIP3   OH275816   6.103   3.056  14.113  0.5660 -0.1389 -0.1159
18134TIP3    H175817   6.153   3.096  14.185 -1.2184  1.0061  0.5803
18134TIP3    H275818   6.156   2.982  14.085  0.8372 -1.4090  3.2132
18135TIP3   OH275819   5.533   2.580  13.157 -0.1411  0.1464 -0.8594
18135TIP3    H175820   5.470   2.516  13.123 -0.3041 -0.2415  0.1205
18135TIP3    H275821   5.549   2.639  13.085 -1.5151  0.1495 -1.1848
18136TIP3   OH275822   3.939   6.151  12.130 -0.6239  0.1675 -0.0344
18136TIP3    H175823   3.849   6.156  12.164 -0.6945 -0.9068 -0.0231
18136TIP3    H275824   3.982   6.086  12.186  0.0758  0.4498 -0.2393
18137TIP3   OH275825   2.315   3.519   2.909 -0.5830 -0.4035  0.0196
18137TIP3    H175826   2.348   3.430   2.900  1.4488  0.3803 -1.0454
18137TIP3    H275827   2.392   3.571   2.931 -0.7566  1.7341 -3.6385
18138TIP3   OH275828   4.576   6.163   2.584 -0.7098 -0.2764 -0.1069
18138TIP3    H175829   4.590   6.235   2.646  1.5614 -1.8305  1.2899
18138TIP3    H275830   4.652   6.166   2.526 -0.9495 -1.1393 -0.4733
18139TIP3   OH275831   3.330   3.162  14.183  0.3095  0.5787 -0.0168
18139TIP3    H175832   3.266   3.119  14.239  0.8045  1.1073  0.9965
18139TIP3    H275833   3.352   3.097  14.116 -0.2944 -0.0749  0.4137
18140TIP3   OH275834   5.116   1.852  14.577  0.5406  0.3942 -0.2837
18140TIP3    H175835   5.057   1.890  14.513  0.4966 -0.1950 -0.6017
18140TIP3    H275836   5.198   1.900  14.567  0.4210  0.5472 -0.5245
18141TIP3   OH275837   6.098   5.773  13.190  0.3110 -0.6956  0.0584
18141TIP3    H175838   6.140   5.856  13.163  2.2773 -0.7775  2.4636
18141TIP3    H275839   6.007   5.782  13.162  0.6289  1.9777 -0.4374
18142TIP3   OH275840   5.032   6.402   1.840 -0.3386  0.4774 -0.1118
18142TIP3    H175841   5.121   6.379   1.870  0.1282  0.9212 -1.1057
18142TIP3    H275842   4.994   6.450   1.913  0.8230  1.6640 -0.2538
18143TIP3   OH275843   4.876   2.340  16.002 -0.3315  0.3745  0.2423
18143TIP3    H175844   4.843   2.311  16.087 -1.5575 -1.5874 -0.8303
18143TIP3    H275845   4.820   2.413  15.978 -0.6946  0.2376  0.6563
18144TIP3   OH275846   3.315   3.635   3.141  0.3389 -0.6230  0.1222
18144TIP3    H175847   3.289   3.716   3.184  0.3934 -0.8238  0.5405
18144TIP3    H275848   3.340   3.662   3.052  0.2405 -0.2020  0.2197
18145TIP3   OH275849   2.109   4.867   0.913 -0.6494  0.2757 -0.2220
18145TIP3    H175850   2.167   4.942   0.905  0.9357 -0.6057  1.8366
18145TIP3    H275851   2.074   4.853   0.825  1.0471  1.8110 -1.1953
18146TIP3   OH275852   1.256   5.959   3.950  0.2817 -0.4920  0.1186
18146TIP3    H175853   1.295   5.963   4.037 -0.2676  0.6804  0.3203
18146TIP3    H275854   1.199   5.882   3.952 -0.0579 -0.2217  0.9377
18147TIP3   OH275855   5.212   2.225  10.885 -0.2570  0.2819 -0.0237
18147TIP3    H175856   5.147   2.294  10.879 -0.0658  0.7064  2.0595
18147TIP3    H275857   5.296   2.271  10.884 -0.1068  0.0365  0.6772
18148TIP3   OH275858   5.119   4.812   2.717  0.0815  0.1513  0.3021
18148TIP3    H175859   5.070   4.786   2.795  0.6748 -0.2400  0.5567
18148TIP3    H275860   5.210   4.818   2.747  0.2854  0.2155 -0.3107
18149TIP3   OH275861   5.158   1.043   2.914  0.0594  0.4922 -0.3203
18149TIP3    H175862   5.180   1.023   2.823  1.4848  1.5416 -0.2363
18149TIP3    H275863   5.068   1.075   2.911  0.4179  1.4561 -1.5284
18150TIP3   OH275864   4.267   6.289   4.040  0.3618 -0.2738  0.1978
18150TIP3    H175865   4.284   6.214   3.983  1.3269 -0.9165  1.2933
18150TIP3    H275866   4.316   6.361   4.001 -1.3239  0.0964 -1.4016
18151TIP3   OH275867   5.926   1.179  11.143  0.1190  0.2135  0.4790
18151TIP3    H175868   5.919   1.110  11.076 -0.6820  0.8580 -0.1213
18151TIP3    H275869   6.019   1.183  11.164  0.0917 -1.6502  1.1709
18152TIP3   OH275870   3.412   3.511  12.732  0.0436  0.4236 -0.5777
18152TIP3    H175871   3.428   3.421  12.758 -2.9066 -0.1708 -0.3908
18152TIP3    H275872   3.357   3.504  12.653 -1.1016  1.9875  0.0098
18153TIP3   OH275873   1.542   5.407  15.793  0.1655  0.0578  0.3345
18153TIP3    H175874   1.485   5.388  15.718  1.3308  1.1691 -0.8765
18153TIP3    H275875   1.534   5.501  15.806 -0.4225 -0.1932  1.9769
18154TIP3   OH275876   4.316   2.599   4.996 -0.0928  0.2147  0.0439
18154TIP3    H175877   4.346   2.549   5.072 -1.8956 -0.1328  0.5919
18154TIP3    H275878   4.336   2.543   4.921 -0.1635 -0.3937  0.4689
18155TIP3   OH275879   1.378   4.652  14.601 -0.6656 -0.5312  0.1334
18155TIP3    H175880   1.358   4.648  14.508  1.2409  0.5473 -0.3855
18155TIP3    H275881   1.432   4.574  14.617 -1.4206 -0.9963  0.4794
18156TIP3   OH275882   5.305   6.352  17.060  0.0641  0.5564  0.5459
18156TIP3    H175883   5.274   6.412  17.127  0.2151  0.6794  0.5061
18156TIP3    H275884   5.353   6.284  17.108 -1.3333 -0.3309  0.7292
18157TIP3   OH275885   1.033   5.048   3.174 -0.6065 -0.1580 -0.5659
18157TIP3    H175886   1.112   5.001   3.145 -0.0652  0.7497 -0.6032
18157TIP3    H275887   1.050   5.070   3.265 -0.7118  0.2586 -0.6460
18158TIP3   OH275888   5.418   5.726  16.945 -0.3852 -0.2484  0.5649
18158TIP3    H175889   5.378   5.667  16.881 -1.9211  2.2965 -1.0476
18158TIP3    H275890   5.344   5.757  16.998  0.0784  1.2328  0.4069
18159TIP3   OH275891   5.385   6.326  13.998  0.2650  0.1921  0.4653
18159TIP3    H175892   5.434   6.408  14.005  1.3438 -0.3076 -0.9115
18159TIP3    H275893   5.447   6.264  13.959 -1.1586 -0.7503 -0.3617
18160TIP3   OH275894   1.348   1.454  13.365 -0.0330  0.1114  0.2769
18160TIP3    H175895   1.350   1.516  13.437 -0.5086  1.1005 -0.5265
18160TIP3    H275896   1.268   1.404  13.379 -1.0410  1.4463 -0.4457
18161TIP3   OH275897   1.107   0.407  16.731  0.3516  0.3029  0.0468
18161TIP3    H175898   1.178   0.364  16.684  1.2381  0.8047  0.8976
18161TIP3    H275899   1.086   0.348  16.803  1.2172  1.0116  0.9097
18162TIP3   OH275900   0.544   6.686  16.656  0.2720  0.0456 -0.7263
18162TIP3    H175901   0.450   6.690  16.641 -0.0110 -3.6494 -0.9963
18162TIP3    H275902   0.582   6.692  16.569 -0.0621 -1.9547 -1.0773
18163TIP3   OH275903   2.432   5.953   3.785 -0.0306 -0.0013  0.4657
18163TIP3    H175904   2.523   5.951   3.756  0.0727  0.1073  0.7797
18163TIP3    H275905   2.413   5.863   3.812 -0.8483 -0.6969 -2.1088
18164TIP3   OH275906   0.159   2.439  13.116  0.0470  0.1393 -0.4745
18164TIP3    H175907   0.228   2.401  13.062 -1.0181  0.5667 -2.2118
18164TIP3    H275908   0.130   2.368  13.173  0.0367 -0.8481 -1.6825
18165TIP3   OH275909   2.640   2.226  13.275 -0.3975  0.0238  0.1824
18165TIP3    H175910   2.719   2.259  13.232 -1.1684 -1.5129 -2.6111
18165TIP3    H275911   2.569   2.278  13.240 -0.9169 -0.4143  0.5675
18166TIP3   OH275912   4.373   6.473   4.692  0.2975  0.1085  0.4878
18166TIP3    H175913   4.360   6.551   4.639 -1.8978  0.1526  0.9958
18166TIP3    H275914   4.399   6.506   4.778  1.1018  0.1673  0.2319
18167TIP3   OH275915   3.139   1.292  15.846 -0.1138  0.4400  0.3345
18167TIP3    H175916   3.092   1.256  15.772  2.1441  1.1420 -1.5675
18167TIP3    H275917   3.150   1.219  15.906  2.0626 -1.4932 -2.2063
18168TIP3   OH275918   2.668   5.146   2.760 -0.4707 -0.4615 -0.1546
18168TIP3    H175919   2.672   5.232   2.803 -0.3692  0.1739 -1.3734
18168TIP3    H275920   2.583   5.145   2.717 -1.3518 -1.8418  1.5185
18169TIP3   OH275921   2.659   3.069  14.500  0.4761 -0.7603  0.0726
18169TIP3    H175922   2.644   2.989  14.449  0.4713 -0.4525 -0.4103
18169TIP3    H275923   2.591   3.067  14.567  0.5916 -1.2565  0.1793
18170TIP3   OH275924   1.327   4.511  15.146  0.1400 -0.1666 -0.2225
18170TIP3    H175925   1.265   4.471  15.207  1.2449  0.2188  1.2101
18170TIP3    H275926   1.370   4.579  15.198  0.0218  1.2331 -1.9030
18171TIP3   OH275927   3.371   5.872  16.990 -0.1443  0.9580 -0.7245
18171TIP3    H175928   3.453   5.875  16.941  0.9727  2.1134  1.1004
18171TIP3    H275929   3.358   5.779  17.009  0.7164  0.7651 -1.0438
18172TIP3   OH275930   2.191   5.682   5.730 -0.3977  1.1450 -0.2646
18172TIP3    H175931   2.103   5.650   5.709  0.0494 -0.0861 -0.3567
18172TIP3    H275932   2.187   5.702   5.824 -0.7226  0.8805 -0.2174
18173TIP3   OH275933   3.299   2.786  14.267 -0.1547 -0.1328  0.0428
18173TIP3    H175934   3.219   2.756  14.224  0.1503 -2.4441  0.9098
18173TIP3    H275935   3.269   2.844  14.337 -0.8999  0.6114 -0.8763
18174TIP3   OH275936   3.198   2.451   3.687  0.4340  0.2230  0.1076
18174TIP3    H175937   3.228   2.438   3.777  1.2657  1.7517  0.0964
18174TIP3    H275938   3.278   2.472   3.639 -0.1111  0.2356 -0.8097
18175TIP3   OH275939   1.006   3.854  11.343  0.5502  0.4444 -0.3492
18175TIP3    H175940   1.078   3.905  11.382 -0.4612  0.3174  1.8702
18175TIP3    H275941   1.015   3.767  11.383 -0.8361  0.4433  0.0067
18176TIP3   OH275942   3.179   2.741   3.237 -0.5398  0.0673 -0.8271
18176TIP3    H175943   3.163   2.707   3.324 -0.4463 -1.6685 -1.4625
18176TIP3    H275944   3.105   2.710   3.185 -0.2054  0.4393 -1.5442
18177TIP3   OH275945   3.103   4.419  14.108 -0.1126  0.1797 -0.3614
18177TIP3    H175946   3.103   4.333  14.151  0.8313  0.1817 -0.3555
18177TIP3    H275947   3.051   4.475  14.166  0.0826 -0.1387  0.1231
18178TIP3   OH275948   6.694   2.358  11.580 -0.0595  0.0886 -0.4755
18178TIP3    H175949   6.691   2.445  11.540  1.4859  1.9509  3.0200
18178TIP3    H275950   6.619   2.356  11.639  1.7423  0.6029  2.0222
18179TIP3   OH275951   6.588   4.697   1.459  0.8488  0.2243  0.0333
18179TIP3    H175952   6.635   4.780   1.461  1.2117  0.0314 -0.4685
18179TIP3    H275953   6.497   4.721   1.477  0.6327  0.9541 -1.8133
18180TIP3   OH275954   6.539   6.477   3.258  0.4067 -0.3784  0.5078
18180TIP3    H175955   6.617   6.448   3.211 -0.0591  0.7618 -1.0759
18180TIP3    H275956   6.488   6.398   3.270  0.9390 -0.8467 -0.2022
18181TIP3   OH275957   1.775   2.576   3.825 -0.0710 -0.3113  0.3038
18181TIP3    H175958   1.737   2.658   3.857  0.3700  0.0215 -0.0244
18181TIP3    H275959   1.804   2.531   3.904  0.5033  0.2551  0.4253
18182TIP3   OH275960   5.600   6.466  11.955 -0.2133  0.2285 -0.0932
18182TIP3    H175961   5.520   6.509  11.927 -0.2778 -0.4014 -0.9298
18182TIP3    H275962   5.658   6.472  11.879  1.3818  2.6385  1.2070
18183TIP3   OH275963   2.750   2.812  16.888 -0.2153 -0.8707 -0.1343
18183TIP3    H175964   2.659   2.817  16.858 -0.6961 -4.0936  0.3952
18183TIP3    H275965   2.802   2.823  16.808 -1.2857 -3.2746 -1.2733
18184TIP3   OH275966   2.879   5.338  16.964 -0.4419  0.6900  0.6452
18184TIP3    H175967   2.811   5.322  17.029  0.4304 -1.1914  1.1668
18184TIP3    H275968   2.843   5.304  16.882 -1.2679  2.4416  0.2236
18185TIP3   OH275969   3.021   6.427   4.966 -0.2305  0.0161 -0.0206
18185TIP3    H175970   2.967   6.395   4.894 -0.2547 -1.4855  0.6401
18185TIP3    H275971   2.958   6.448   5.035 -0.0573 -0.7273  0.3707
18186TIP3   OH275972   2.385   6.101   0.625 -0.1287 -0.0948 -0.5257
18186TIP3    H175973   2.460   6.041   0.622  0.3551  0.5415 -2.4218
18186TIP3    H275974   2.365   6.109   0.719  1.7208 -0.8368 -0.0169
18187TIP3   OH275975   3.346   1.114   3.330  0.1134 -0.4351 -0.2324
18187TIP3    H175976   3.395   1.186   3.288 -0.2609 -0.2122 -0.2881
18187TIP3    H275977   3.255   1.131   3.307  0.0677 -1.1769 -0.6074
18188TIP3   OH275978   5.181   3.016   4.782  0.4819 -0.0665 -0.7084
18188TIP3    H175979   5.243   3.066   4.729 -0.1138  0.6214 -0.7536
18188TIP3    H275980   5.181   2.929   4.742  2.2098 -0.4161 -0.0837
18189TIP3   OH275981   1.143   4.454  14.462  0.0983  0.3397 -0.0047
18189TIP3    H175982   1.061   4.490  14.496 -0.5636 -0.8332 -0.3307
18189TIP3    H275983   1.128   4.360  14.455  0.7924  0.3190 -1.9078
18190TIP3   OH275984   6.239   3.507   2.232 -0.1795 -0.3600 -0.0541
18190TIP3    H175985   6.253   3.467   2.318  1.2813 -0.3815 -0.2748
18190TIP3    H275986   6.312   3.475   2.179 -1.1968 -0.5539 -1.3959
18191TIP3   OH275987   5.583   0.911  11.717  0.4316 -0.3372  0.4165
18191TIP3    H175988   5.605   0.838  11.659 -0.7367  1.0370 -1.9146
18191TIP3    H275989   5.652   0.975  11.702 -0.0935  0.1896  0.2139
18192TIP3   OH275990   1.415   6.391   5.364 -0.1660 -0.1837 -0.1627
18192TIP3    H175991   1.435   6.391   5.271  0.0418 -0.6582 -0.1187
18192TIP3    H275992   1.494   6.359   5.407  0.6306  2.3282  0.3915
18193TIP3   OH275993   5.089   4.005   5.868 -0.1880  0.0178 -0.0131
18193TIP3    H175994   5.065   4.097   5.862 -0.3762  0.0334  0.8139
18193TIP3    H275995   5.185   4.005   5.869 -0.1309  0.4690  2.8341
18194TIP3   OH275996   0.142   2.282  16.998 -0.1214  0.4409 -0.0851
18194TIP3    H175997   0.076   2.330  17.047 -0.8384  0.1729 -0.7623
18194TIP3    H275998   0.092   2.217  16.948  0.6685  0.1298 -0.4882
18195TIP3   OH275999   3.414   5.628  14.569 -0.3184 -0.3528 -0.3030
18195TIP3    H176000   3.465   5.551  14.593  1.4813  0.6567 -0.7149
18195TIP3    H276001   3.356   5.597  14.499  1.6177 -0.9621 -1.7113
18196TIP3   OH276002   2.270   4.836   5.296  0.4607 -0.3250  0.0385
18196TIP3    H176003   2.305   4.796   5.216 -1.8569 -2.3476 -0.0863
18196TIP3    H276004   2.225   4.764   5.341 -1.2440  1.5031  1.4254
18197TIP3   OH276005   0.035   3.888  13.000 -0.6371  0.0087  0.0975
18197TIP3    H176006   0.037   3.885  13.095 -1.3618 -0.3071  0.1112
18197TIP3    H276007   0.127   3.885  12.973 -0.3947 -4.7554  0.6525
18198TIP3   OH276008   0.290   3.389   2.103  0.4643 -1.0570  0.0827
18198TIP3    H176009   0.290   3.397   2.008  2.1051 -0.2779  0.1182
18198TIP3    H276010   0.262   3.475   2.135  2.4283 -0.4701  0.3054
18199TIP3   OH276011   1.354   2.682  11.298 -0.5290  0.6560  0.3211
18199TIP3    H176012   1.409   2.607  11.322 -1.2597  0.1845  0.5928
18199TIP3    H276013   1.413   2.743  11.254 -0.1809 -0.6960 -1.1783
18200TIP3   OH276014   5.236   6.323  12.699  0.2488  0.0075 -0.4062
18200TIP3    H176015   5.265   6.397  12.646  0.3624 -0.7502 -1.4241
18200TIP3    H276016   5.280   6.336  12.784  2.7550 -0.4935 -1.5308
18201TIP3   OH276017   4.967   3.913   5.211 -0.4082  0.6262 -0.0053
18201TIP3    H176018   4.885   3.926   5.163 -1.1284 -0.2808  0.9187
18201TIP3    H276019   5.022   3.987   5.185 -0.8447  0.3185 -2.0180
18202TIP3   OH276020   3.977   3.643   3.932  0.0823  1.0152  0.1448
18202TIP3    H176021   4.038   3.571   3.918 -2.0993 -0.8391 -0.5994
18202TIP3    H276022   4.006   3.712   3.873  1.6206  0.3299  0.0670
18203TIP3   OH276023   5.936   3.087  12.297 -0.2802  0.2009  0.3092
18203TIP3    H176024   5.855   3.124  12.263 -0.4540  0.5471  1.0680
18203TIP3    H276025   5.944   3.002  12.253 -0.7360  0.4317 -0.2262
18204TIP3   OH276026   2.987   0.035   4.398 -0.4366 -0.1652  0.6060
18204TIP3    H176027   3.063   0.087   4.425 -0.5100 -0.4142  1.3233
18204TIP3    H276028   2.912   0.080   4.438 -0.6295 -0.1118  0.1851
18205TIP3   OH276029   2.054   0.124   2.114  0.2756 -0.0576 -0.2340
18205TIP3    H176030   2.142   0.116   2.150  0.3425 -2.5067 -0.7714
18205TIP3    H276031   2.066   0.125   2.020 -0.2931 -1.4760 -0.3472
18206TIP3   OH276032   4.769   1.380   3.326  0.4628 -0.3689  0.2468
18206TIP3    H176033   4.742   1.439   3.256  1.7349  0.1033  0.1313
18206TIP3    H276034   4.834   1.323   3.286 -1.5239 -2.6825  0.0333
18207TIP3   OH276035   1.298   6.766   2.139 -0.0622 -0.1473  0.1366
18207TIP3    H176036   1.262   6.853   2.118  0.6769 -0.0725 -0.9066
18207TIP3    H276037   1.389   6.770   2.110  0.0224 -1.2303  0.2139
18208TIP3   OH276038   1.720   5.382   6.214  0.0923 -0.0850  0.0903
18208TIP3    H176039   1.726   5.366   6.120  0.7146  0.0659  0.0990
18208TIP3    H276040   1.795   5.438   6.233 -0.3738  0.3826  0.5726
18209TIP3   OH276041   3.036   0.232   0.603  0.7077 -0.1443 -0.8288
18209TIP3    H176042   3.008   0.268   0.519 -0.0545 -0.4371 -0.7038
18209TIP3    H276043   3.112   0.178   0.581  2.1669  1.8370 -0.9571
18210TIP3   OH276044   1.841   5.994   4.141 -0.2998  0.4129 -0.4299
18210TIP3    H176045   1.776   6.050   4.100 -1.4655 -1.4280 -1.2305
18210TIP3    H276046   1.801   5.969   4.225 -0.7057 -0.7978 -0.9646
18211TIP3   OH276047   3.827   5.642  15.397 -0.9394 -0.3606  0.1123
18211TIP3    H176048   3.799   5.722  15.442 -1.5004  0.0960 -1.0170
18211TIP3    H276049   3.773   5.573  15.435 -0.9988 -0.0817  0.5419
18212TIP3   OH276050   4.571   0.113  14.062  0.2083  0.0887  0.2162
18212TIP3    H176051   4.662   0.122  14.034  0.4856 -0.0031  1.0592
18212TIP3    H276052   4.574   0.122  14.157 -0.7664  0.8807  0.1908
18213TIP3   OH276053   0.641   5.252  10.611  0.2236  0.4154  0.0949
18213TIP3    H176054   0.575   5.308  10.571 -1.2977  0.1027  2.0113
18213TIP3    H276055   0.618   5.164  10.583 -0.2130  0.3060  0.7660
18214TIP3   OH276056   5.599   4.821  13.617  0.5285  0.3884  0.4524
18214TIP3    H176057   5.509   4.789  13.616  0.3535  0.8589  0.6816
18214TIP3    H276058   5.647   4.757  13.669  0.3893 -0.0322  0.0598
18215TIP3   OH276059   3.987   2.869   1.435 -0.3106 -0.4205  0.4163
18215TIP3    H176060   4.059   2.911   1.388  0.7147 -0.2138  2.1010
18215TIP3    H276061   4.007   2.882   1.528 -1.5919 -1.9428  0.9628
18216TIP3   OH276062   5.796   1.484  11.044 -0.2055  0.3155  0.2413
18216TIP3    H176063   5.703   1.500  11.061 -0.0484  1.3766  0.1432
18216TIP3    H276064   5.804   1.389  11.044 -1.3078  0.2130  0.1549
18217TIP3   OH276065   5.936   3.225  15.478  0.5838 -0.0980  0.3894
18217TIP3    H176066   6.029   3.235  15.457  0.8526  1.8666  2.1841
18217TIP3    H276067   5.921   3.130  15.476  2.3775 -0.4031 -0.7841
18218TIP3   OH276068   0.081   5.995  12.087 -0.2397  0.0446  0.0661
18218TIP3    H176069   0.018   5.934  12.049  0.1712 -0.4764  0.2154
18218TIP3    H276070   0.160   5.985  12.035  0.0500 -0.0528  0.5192
18219TIP3   OH276071   2.579   3.792  16.668  0.5195  0.4625  0.5605
18219TIP3    H176072   2.499   3.832  16.702 -0.8220 -0.0181 -1.8070
18219TIP3    H276073   2.633   3.865  16.639 -0.7748  0.7516 -1.3127
18220TIP3   OH276074   4.044   6.449  14.579  0.5361  0.3051  0.6127
18220TIP3    H176075   3.972   6.413  14.528  1.9641  0.4534 -1.6176
18220TIP3    H276076   4.049   6.391  14.656  0.3873 -2.0182 -1.0213
18221TIP3   OH276077   4.051   6.231   3.034 -0.2803  0.2213 -0.3444
18221TIP3    H176078   4.005   6.190   2.961  0.4166 -1.6918  0.2231
18221TIP3    H276079   4.078   6.317   3.000  1.6576 -1.2843 -3.0507
18222TIP3   OH276080   0.536   3.043   4.684  0.0274 -0.1699 -0.1998
18222TIP3    H176081   0.527   3.096   4.763 -0.2793 -0.5541  0.0205
18222TIP3    H276082   0.457   2.989   4.681 -0.9425  1.2086 -1.7866
18223TIP3   OH276083   0.955   5.289  16.198 -0.0405 -0.3648  0.1928
18223TIP3    H176084   0.950   5.379  16.165  0.3543 -0.7793 -1.0650
18223TIP3    H276085   1.008   5.295  16.278 -1.7005  0.7863  1.2680
18224TIP3   OH276086   4.386   6.046   0.218  0.4952 -0.0949 -0.1398
18224TIP3    H176087   4.427   5.999   0.145 -0.8679  0.4166 -1.2855
18224TIP3    H276088   4.322   5.985   0.254 -1.2276  0.7784 -1.5862
18225TIP3   OH276089   2.727   5.818   6.623 -0.2525 -0.5867 -0.7469
18225TIP3    H176090   2.647   5.866   6.646 -0.1496 -1.0634  0.6894
18225TIP3    H276091   2.762   5.866   6.548 -1.8835 -0.3795 -1.4296
18226TIP3   OH276092   2.969   2.766   5.627  0.3130 -0.2936  0.1805
18226TIP3    H176093   2.981   2.856   5.655  1.4357 -1.2049  3.0018
18226TIP3    H276094   3.058   2.733   5.612 -0.0227 -1.2136  0.1613
18227TIP3   OH276095   2.366   6.173   3.544 -0.1493  0.2270 -0.0385
18227TIP3    H176096   2.324   6.257   3.529 -0.4770 -0.3257 -2.8022
18227TIP3    H276097   2.460   6.193   3.551 -0.3056  0.8829  0.2137
18228TIP3   OH276098   2.380   5.574  15.093 -0.3116  0.2664  0.4860
18228TIP3    H176099   2.350   5.483  15.082  3.5911 -1.0070 -1.5342
18228TIP3    H276100   2.426   5.574  15.177  0.0692  0.2368  0.2788
18229TIP3   OH276101   3.284   6.614   0.052  1.0391  0.1454 -0.0136
18229TIP3    H176102   3.357   6.642   0.107  1.6177 -1.9343  0.3570
18229TIP3    H276103   3.317   6.618  -0.037  0.6221  1.9549 -0.1342
18230TIP3   OH276104   4.206   1.355   1.281  0.0450 -0.5588  0.6796
18230TIP3    H176105   4.199   1.385   1.371  0.2448 -0.4779  0.6670
18230TIP3    H276106   4.247   1.427   1.234  1.8880 -1.3942  0.9341
18231TIP3   OH276107   3.999   2.884   4.946 -0.0683  0.1498  0.9984
18231TIP3    H176108   4.064   2.941   4.904  0.8523 -3.6647 -3.6660
18231TIP3    H276109   3.919   2.936   4.949  1.3990  2.6287 -0.0348
18232TIP3   OH276110   3.781   2.296  17.145 -0.1802 -0.4511 -0.4485
18232TIP3    H176111   3.710   2.358  17.129  0.3650 -0.1905 -2.0476
18232TIP3    H276112   3.825   2.330  17.223 -0.4275  0.6840 -0.7802
18233TIP3   OH276113   2.151   3.154  13.441 -0.3001  0.0772 -0.2022
18233TIP3    H176114   2.191   3.112  13.517  0.0998  0.2494 -0.3166
18233TIP3    H276115   2.153   3.247  13.461  0.8947  0.2286 -0.9281
18234TIP3   OH276116   3.302   0.572  12.521 -0.8480 -0.8132  0.2225
18234TIP3    H176117   3.251   0.640  12.565 -1.9573 -1.4435 -0.0546
18234TIP3    H276118   3.256   0.559  12.438  1.5144  0.7841 -1.4792
18235TIP3   OH276119   0.881   5.730  11.206  0.1849  0.4046 -0.0997
18235TIP3    H176120   0.838   5.816  11.204  1.3340  0.9870 -0.2001
18235TIP3    H276121   0.970   5.748  11.237  0.1602 -0.8811  0.8077
18236TIP3   OH276122   0.718   6.184   4.442  0.0442 -0.3968 -0.8072
18236TIP3    H176123   0.676   6.187   4.355 -1.6055  0.6348 -0.0265
18236TIP3    H276124   0.709   6.274   4.475  1.6035 -0.5232  0.0062
18237TIP3   OH276125   3.753   4.985   2.169 -0.1943 -0.3955  0.0057
18237TIP3    H176126   3.743   4.914   2.106 -0.1741 -1.8101  1.5111
18237TIP3    H276127   3.843   5.016   2.157  0.0496 -1.1501 -0.1562
18238TIP3   OH276128   6.182   0.944   2.130 -0.6979  0.0543 -0.2918
18238TIP3    H176129   6.238   0.892   2.187 -2.1536 -0.3871  0.7800
18238TIP3    H276130   6.232   1.025   2.116 -0.9375  0.8934  2.9755
18239TIP3   OH276131   3.027   6.306   4.132 -0.3740  0.1845  0.3021
18239TIP3    H176132   3.001   6.386   4.177  0.4664  0.6288  0.0263
18239TIP3    H276133   2.954   6.245   4.146 -1.4061  1.2784 -0.2292
18240TIP3   OH276134   6.467   4.417  12.680 -0.0078  0.3992  0.1180
18240TIP3    H176135   6.445   4.397  12.771 -0.5049 -0.2503 -0.1414
18240TIP3    H276136   6.445   4.337  12.632  3.4706 -0.6115 -0.0896
18241TIP3   OH276137   2.393   0.396  14.242 -0.3748 -0.1203 -0.5398
18241TIP3    H176138   2.394   0.312  14.288  0.2289  0.1554 -0.0346
18241TIP3    H276139   2.340   0.453  14.296  0.1143  0.1288 -0.3165
18242TIP3   OH276140   5.070   4.355  11.251  0.0241  0.1422  0.1596
18242TIP3    H176141   5.030   4.435  11.216  0.9123  0.9983  1.0442
18242TIP3    H276142   5.150   4.344  11.199 -0.4875 -0.6367 -0.4922
18243TIP3   OH276143   2.121   1.336  12.261 -0.7470 -0.3158  0.2357
18243TIP3    H176144   2.186   1.285  12.214  1.1889  0.6840  1.7105
18243TIP3    H276145   2.090   1.278  12.330  1.2637  0.3149  1.7509
18244TIP3   OH276146   3.059   2.919  13.876  0.4003 -0.4756 -0.0621
18244TIP3    H176147   3.074   3.013  13.869  0.4293 -0.4075  0.7922
18244TIP3    H276148   3.117   2.880  13.811 -1.0080  0.1883 -1.8262
18245TIP3   OH276149   4.302   5.578  14.492 -0.5719  0.2159  0.2428
18245TIP3    H176150   4.355   5.547  14.418 -1.5014 -1.0936  0.1077
18245TIP3    H276151   4.278   5.668  14.467  0.2352  0.2626 -0.4238
18246TIP3   OH276152   0.036   0.323   1.330  0.5671  0.8898 -0.1171
18246TIP3    H176153   0.006   0.255   1.270  1.4755  1.2231 -0.9758
18246TIP3    H276154   0.130   0.331   1.312  0.8602  1.0227  1.3382
18247TIP3   OH276155   5.634   6.764  12.281  0.0794  0.1813 -0.1840
18247TIP3    H176156   5.638   6.670  12.265  1.4289 -0.0330  1.1860
18247TIP3    H276157   5.720   6.797  12.257  0.2899  0.7197  1.2230
18248TIP3   OH276158   4.004   2.312   2.385  0.1384  0.1157  0.5258
18248TIP3    H176159   4.074   2.374   2.404  0.3646 -0.4397  1.5825
18248TIP3    H276160   3.923   2.358   2.408  0.2570  0.2384  0.6924
18249TIP3   OH276161   2.183   4.750  17.086 -0.0798  0.3691  0.0878
18249TIP3    H176162   2.205   4.722  16.997 -0.0991  1.1129 -0.1578
18249TIP3    H276163   2.087   4.751  17.088 -0.1162  2.1118 -0.4815
18250TIP3   OH276164   2.216   2.637   4.535  0.3047  0.3569  0.6507
18250TIP3    H176165   2.150   2.701   4.561 -0.5181 -0.1909 -0.0296
18250TIP3    H276166   2.197   2.619   4.443  1.7425  0.5792  0.2828
18251TIP3   OH276167   1.904   3.990   1.441 -0.3910 -0.3876 -0.0207
18251TIP3    H176168   1.954   4.018   1.365 -0.1421 -0.2982  0.1771
18251TIP3    H276169   1.814   3.983   1.409 -0.3453  0.0051 -0.2316
18252TIP3   OH276170   0.296   6.419  13.042 -0.2236 -0.6128 -0.0915
18252TIP3    H176171   0.285   6.514  13.043  0.5665 -0.5040 -1.1913
18252TIP3    H276172   0.247   6.389  13.119 -1.7835  0.5322 -0.5997
18253TIP3   OH276173   5.569   3.237  12.592  0.0488 -0.2641  0.1253
18253TIP3    H176174   5.514   3.214  12.517 -0.6744  1.1021  0.2152
18253TIP3    H276175   5.651   3.188  12.577 -0.3354 -0.5488 -1.1900
18254TIP3   OH276176   5.287   0.552  14.177  0.2660 -0.0191 -0.1449
18254TIP3    H176177   5.284   0.456  14.178 -0.0145 -0.0570 -1.6953
18254TIP3    H276178   5.269   0.577  14.267 -0.0842 -1.4230  0.2081
18255TIP3   OH276179   5.619   2.592   3.014  0.0997  0.0707 -0.1076
18255TIP3    H176180   5.665   2.552   3.088  0.4397  0.2565 -0.2164
18255TIP3    H276181   5.566   2.661   3.053  0.2412  0.1363 -0.0284
18256TIP3   OH276182   6.243   4.378  15.629 -0.2358 -0.3705  0.2669
18256TIP3    H176183   6.294   4.450  15.666 -0.0084 -0.8871  0.9891
18256TIP3    H276184   6.152   4.399  15.650 -0.4738  1.0377 -1.8518
18257TIP3   OH276185   0.104   6.312   2.804 -0.5514  0.0950  0.0647
18257TIP3    H176186   0.186   6.289   2.847 -1.7154  0.4146  2.6582
18257TIP3    H276187   0.124   6.394   2.759  1.0889 -0.9637 -1.2639
18258TIP3   OH276188   6.401   6.154   0.279  0.3606 -0.2979  0.0711
18258TIP3    H176189   6.467   6.121   0.340  0.5994 -0.9780 -0.5373
18258TIP3    H276190   6.340   6.204   0.334  0.5270 -0.9607  0.8791
18259TIP3   OH276191   3.556   5.035   4.944  0.3438 -0.9941  0.3746
18259TIP3    H176192   3.547   4.940   4.939 -0.5774 -0.9176  0.4723
18259TIP3    H276193   3.562   5.054   5.037  0.1014 -0.9225  0.3770
18260TIP3   OH276194   0.499   3.948   1.979  0.5018  0.3085  0.0215
18260TIP3    H176195   0.467   3.886   1.915  0.5634 -0.1734  0.4535
18260TIP3    H276196   0.464   4.033   1.950  0.5445  0.1028 -0.6496
18261TIP3   OH276197   6.758   0.272  13.528 -0.2674  0.4745 -0.1453
18261TIP3    H176198   6.831   0.311  13.479  0.7878  1.4741  2.0906
18261TIP3    H276199   6.756   0.181  13.499  1.5398  0.5593 -0.6669
18262TIP3   OH276200   4.435   3.610   0.744  0.4412  0.3864 -0.2539
18262TIP3    H176201   4.424   3.576   0.832 -2.0630  2.7225  0.4844
18262TIP3    H276202   4.528   3.601   0.725  0.7991 -1.4835  2.0261
18263TIP3   OH276203   5.691   6.235   2.370  0.0997  0.6573  0.2311
18263TIP3    H176204   5.703   6.144   2.397 -1.9123  0.4939  0.6889
18263TIP3    H276205   5.724   6.286   2.444  0.0394  0.2758  0.5270
18264TIP3   OH276206   3.877   0.425   0.169  0.1719 -0.3045  0.0009
18264TIP3    H176207   3.796   0.453   0.125  1.0179 -0.4027 -1.6983
18264TIP3    H276208   3.903   0.501   0.221 -1.5411 -0.6232  1.4591
18265TIP3   OH276209   5.280   3.975  16.364 -0.0598  0.3033 -0.2821
18265TIP3    H176210   5.204   3.985  16.420  2.3521 -0.9118  3.5744
18265TIP3    H276211   5.311   4.064  16.349 -0.9614  0.6660 -0.0541
18266TIP3   OH276212   0.537   2.678  13.904  0.7460 -0.2020  0.1868
18266TIP3    H176213   0.448   2.647  13.887  0.5675 -0.2956  1.2180
18266TIP3    H276214   0.534   2.771  13.883  0.3779 -0.1856  0.3012
18267TIP3   OH276215   6.350   6.606  14.595  0.0596 -0.2082  0.1078
18267TIP3    H176216   6.271   6.568  14.557  0.3555  0.2565 -1.0121
18267TIP3    H276217   6.422   6.565  14.547  0.5479 -1.2228  1.6604
18268TIP3   OH276218   4.957   3.314  16.456  0.1162 -0.7050 -0.8163
18268TIP3    H176219   5.026   3.378  16.470  0.5906 -1.5299  0.9877
18268TIP3    H276220   4.953   3.302  16.361  0.8127  1.0813 -1.1022
18269TIP3   OH276221   4.084   2.115   4.689 -0.7935 -0.2325  0.3703
18269TIP3    H176222   4.136   2.044   4.726  0.6421  1.1381  1.0767
18269TIP3    H276223   4.008   2.123   4.748 -0.6816 -0.7984  0.5952
18270TIP3   OH276224   6.367   1.854  15.881 -0.0894  0.5974 -0.1176
18270TIP3    H176225   6.400   1.893  15.962 -2.9487  2.1606  0.4208
18270TIP3    H276226   6.316   1.779  15.910 -0.7777  0.9186 -0.4853
18271TIP3   OH276227   6.336   2.659   2.638 -0.1929  0.0067  0.3282
18271TIP3    H176228   6.291   2.587   2.681 -0.2070  0.5299  1.2258
18271TIP3    H276229   6.429   2.644   2.655 -0.2795  1.2350  2.3102
18272TIP3   OH276230   5.547   1.180  14.999  0.4217 -0.0846  1.0166
18272TIP3    H176231   5.630   1.175  14.952 -0.1033 -1.2538  0.1743
18272TIP3    H276232   5.523   1.089  15.016 -0.6957  0.2301  1.2376
18273TIP3   OH276233   1.588   6.346  13.605  0.1764 -0.4240 -0.1603
18273TIP3    H176234   1.575   6.262  13.561  2.3125 -1.0013  0.2145
18273TIP3    H276235   1.631   6.401  13.540  0.9981 -0.4355  0.3610
18274TIP3   OH276236   4.362   1.794  11.793 -0.3051 -0.0340 -0.5321
18274TIP3    H176237   4.308   1.755  11.724  1.2696 -2.4091 -0.5311
18274TIP3    H276238   4.370   1.886  11.768 -1.3912 -0.3959 -2.4411
18275TIP3   OH276239   1.518   4.046  16.571 -0.8782  0.0212  0.0089
18275TIP3    H176240   1.610   4.022  16.558 -0.8546 -1.1950  1.9004
18275TIP3    H276241   1.500   4.111  16.503  0.8829 -0.9416 -1.4807
18276TIP3   OH276242   4.745   4.393  11.192 -0.7267 -0.1158 -0.3739
18276TIP3    H176243   4.796   4.351  11.123 -1.2626 -0.2366 -0.7025
18276TIP3    H276244   4.781   4.482  11.198 -0.5158 -0.1831 -0.6372
18277TIP3   OH276245   1.738   5.209  15.692 -0.1755  0.6034 -0.0273
18277TIP3    H176246   1.717   5.226  15.600 -0.2646  2.9892  0.3608
18277TIP3    H276247   1.672   5.258  15.741  0.9074  0.8254  1.2829
18278TIP3   OH276248   2.124   2.406   4.669 -0.3190 -0.0053 -0.4248
18278TIP3    H176249   2.091   2.480   4.720  0.8934  0.7060 -0.6248
18278TIP3    H276250   2.187   2.446   4.608 -0.2313 -1.1045 -1.0758
18279TIP3   OH276251   2.466   6.548   4.343  0.6356  0.2410  0.0438
18279TIP3    H176252   2.477   6.593   4.260  0.5608 -1.3624 -0.8679
18279TIP3    H276253   2.378   6.572   4.373  0.8848  1.2804 -0.0409
18280TIP3   OH276254   0.612   0.182  15.319  0.0304 -0.5240 -0.0546
18280TIP3    H176255   0.640   0.108  15.264 -0.1039  0.2893 -1.2464
18280TIP3    H276256   0.648   0.259  15.276  0.3065  0.1136  1.2722
18281TIP3   OH276257   6.679   4.776  15.039 -0.0713 -0.1453  0.5030
18281TIP3    H176258   6.626   4.762  15.117  2.1475 -2.6955  1.7202
18281TIP3    H276259   6.764   4.804  15.072  0.4398  0.3814 -1.1459
18282TIP3   OH276260   1.647   0.770   1.678 -0.4577  0.0924  0.1290
18282TIP3    H176261   1.612   0.840   1.733  0.1505  1.2351 -0.8877
18282TIP3    H276262   1.571   0.734   1.634 -0.7667  0.1501  0.6056
18283TIP3   OH276263   6.453   6.123   4.979  0.1015 -0.2972 -0.2373
18283TIP3    H176264   6.374   6.161   5.015  0.6125  2.1311 -1.4470
18283TIP3    H276265   6.510   6.109   5.055 -1.1750 -1.4164  0.5562
18284TIP3   OH276266   6.384   4.005   3.111 -0.6087 -0.5336 -0.1366
18284TIP3    H176267   6.327   4.006   3.189 -0.6639  0.5037 -0.1765
18284TIP3    H276268   6.324   3.995   3.038 -1.0394  2.6432 -0.3542
18285TIP3   OH276269   1.033   3.116   3.735  0.6517 -0.2463  0.2454
18285TIP3    H176270   1.042   3.022   3.718  1.4220  0.1209 -1.6528
18285TIP3    H276271   0.965   3.123   3.802 -1.3350 -2.0141 -1.4704
18286TIP3   OH276272   2.824   6.586  16.336 -0.0084 -0.3070 -0.0627
18286TIP3    H176273   2.884   6.568  16.408 -0.1542  1.9777  0.7047
18286TIP3    H276274   2.854   6.669  16.300 -1.5101 -0.1109 -0.9493
18287TIP3   OH276275   2.641   1.221   5.943  0.2892 -0.0717 -0.1471
18287TIP3    H176276   2.593   1.139   5.959  1.5805 -1.1467 -1.4959
18287TIP3    H276277   2.573   1.288   5.938 -1.0477 -1.4346 -1.3956
18288TIP3   OH276278   2.619   5.224   1.213 -0.1647  0.4411 -0.2401
18288TIP3    H176279   2.555   5.191   1.276  0.0956  0.1347 -0.1315
18288TIP3    H276280   2.673   5.285   1.263 -1.3051  1.8843 -0.6910
18289TIP3   OH276281   3.141   1.082  16.005  0.5195 -0.0691 -0.9991
18289TIP3    H176282   3.059   1.054  15.964 -0.3300  1.0463 -0.1439
18289TIP3    H276283   3.159   1.015  16.071 -1.1718  0.9780  0.6264
18290TIP3   OH276284   1.540   4.717  11.830 -0.2593  0.0269 -1.0317
18290TIP3    H176285   1.461   4.766  11.856  0.0478  0.5943 -1.1603
18290TIP3    H276286   1.541   4.724  11.735 -2.1121 -3.1530 -1.4296
18291TIP3   OH276287   0.598   3.226  16.658  0.2794  0.2681  0.5283
18291TIP3    H176288   0.510   3.264  16.657  0.4044  0.5524  0.0999
18291TIP3    H276289   0.624   3.224  16.566  0.6619  0.0419  0.6402
18292TIP3   OH276290   5.076   1.569   4.767 -0.1236  0.0846  0.1190
18292TIP3    H176291   5.000   1.623   4.787 -2.3524 -2.3283 -1.1654
18292TIP3    H276292   5.070   1.495   4.829  1.2000 -0.1653 -0.0049
18293TIP3   OH276293   1.665   3.400  13.167  0.5318  0.1799  0.2570
18293TIP3    H176294   1.713   3.317  13.173  0.7870  0.3105  0.0298
18293TIP3    H276295   1.728   3.462  13.130 -0.0302  0.1694 -0.7459
18294TIP3   OH276296   0.790   1.845  16.991  0.5163  0.5389  0.1559
18294TIP3    H176297   0.877   1.845  16.952  0.2559 -2.2720 -0.6895
18294TIP3    H276298   0.731   1.873  16.921  0.4375 -0.8808 -0.3773
18295TIP3   OH276299   3.604   3.839  15.580  0.3637 -0.2012 -0.0327
18295TIP3    H176300   3.578   3.924  15.615 -1.0863 -0.1847 -1.0786
18295TIP3    H276301   3.623   3.856  15.488 -1.0568 -1.2046 -0.5305
18296TIP3   OH276302   4.737   6.608  16.447 -0.4110  0.5486  0.3504
18296TIP3    H176303   4.797   6.675  16.481  0.8674  0.6924 -1.9502
18296TIP3    H276304   4.777   6.525  16.472 -0.9375  0.6094  1.4708
18297TIP3   OH276305   0.286   5.528  15.380  0.0856 -0.3291 -0.0564
18297TIP3    H176306   0.372   5.509  15.419 -0.4981 -0.5900  1.1454
18297TIP3    H276307   0.306   5.555  15.290  1.3980 -0.6999  0.1061
18298TIP3   OH276308   2.447   0.289  13.143  0.6496 -0.0099  0.2535
18298TIP3    H176309   2.454   0.257  13.233  1.0184  0.2906  0.3319
18298TIP3    H276310   2.385   0.362  13.148 -1.5933 -1.7546 -0.2050
18299TIP3   OH276311   5.424   4.061  11.917  0.1627  0.2070 -0.1588
18299TIP3    H176312   5.393   4.148  11.941 -1.1938 -0.9476  2.6794
18299TIP3    H276313   5.519   4.067  11.921  0.4297  2.6158 -4.4742
18300TIP3   OH276314   5.041   3.913   3.834  0.0700 -0.0298 -0.1784
18300TIP3    H176315   5.127   3.876   3.814  0.4709  0.7378  0.0841
18300TIP3    H276316   5.060   4.001   3.867 -0.7292 -0.2529  0.9527
18301TIP3   OH276317   5.273   1.333  16.539 -0.2675 -0.0747  0.1395
18301TIP3    H176318   5.266   1.237  16.535 -0.6076 -0.0221 -1.0225
18301TIP3    H276319   5.359   1.352  16.502 -1.0500  0.1509 -1.6852
18302TIP3   OH276320   6.644   4.754  15.369 -0.1351 -0.2269  0.0522
18302TIP3    H176321   6.582   4.827  15.363 -0.1186  0.1585  3.1841
18302TIP3    H276322   6.590   4.677  15.386  0.0898 -0.2416  0.7309
18303TIP3   OH276323   4.513   4.249  12.079 -0.0536  0.0075  0.2511
18303TIP3    H176324   4.446   4.293  12.130  0.0081 -0.6248  0.8929
18303TIP3    H276325   4.468   4.175  12.038  0.1616 -0.2114  0.3995
18304TIP3   OH276326   5.666   0.575   0.092 -0.7542 -0.4284 -0.4797
18304TIP3    H176327   5.595   0.523   0.053 -0.9580  0.4848 -1.3487
18304TIP3    H276328   5.741   0.558   0.036 -0.3799 -1.0658  0.1987
18305TIP3   OH276329   5.864   3.097   1.095 -0.1642 -0.0199  0.2561
18305TIP3    H176330   5.815   3.015   1.087 -0.5282  0.2982 -1.0648
18305TIP3    H276331   5.916   3.102   1.015  2.5847 -0.6445  1.8787
18306TIP3   OH276332   1.745   5.774  17.318  0.0933 -0.5533 -0.0250
18306TIP3    H176333   1.655   5.808  17.317 -0.8214 -2.7789 -0.2415
18306TIP3    H276334   1.751   5.727  17.401  1.0425 -0.5259 -0.0676
18307TIP3   OH276335   4.339   6.644   3.573 -0.0483  0.6799  0.2061
18307TIP3    H176336   4.320   6.623   3.482  1.6277  3.0640 -0.7938
18307TIP3    H276337   4.267   6.702   3.599 -0.5849 -0.0854  0.4892
18308TIP3   OH276338   4.686   5.040   0.316  0.9086  0.2671  0.1065
18308TIP3    H176339   4.651   5.024   0.404 -0.9857  0.4785 -0.5526
18308TIP3    H276340   4.777   5.066   0.330  0.6826  0.1755  1.9892
18309TIP3   OH276341   1.320   2.779   1.939 -0.6461  0.3398 -0.1443
18309TIP3    H176342   1.266   2.724   1.996 -1.9867  0.9456 -0.7777
18309TIP3    H276343   1.377   2.828   1.999 -0.1304 -0.9919  0.4808
18310TIP3   OH276344   1.219   3.795  13.320  0.3067  0.2756 -0.1829
18310TIP3    H176345   1.192   3.731  13.386  0.7569 -0.0690 -0.3238
18310TIP3    H276346   1.163   3.871  13.335  0.2052  0.0870  0.4034
18311TIP3   OH276347   6.438   0.835  14.639 -0.0306  0.5084  0.3374
18311TIP3    H176348   6.345   0.833  14.658  0.3443  1.0138  2.5240
18311TIP3    H276349   6.480   0.838  14.725  1.9506  2.1768 -0.5966
18312TIP3   OH276350   4.186   0.733   5.547  0.7994 -0.4357  0.1932
18312TIP3    H176351   4.209   0.642   5.567 -2.1240 -1.2234  0.5338
18312TIP3    H276352   4.177   0.735   5.452 -1.3660 -1.2306  0.3107
18313TIP3   OH276353   6.401   1.940   6.252  0.4057 -0.2733 -0.5897
18313TIP3    H176354   6.359   1.945   6.338  1.6305 -0.4837  0.0300
18313TIP3    H276355   6.328   1.924   6.192 -0.4043 -0.6783  0.4611
18314TIP3   OH276356   5.957   5.264   1.070  0.4204  0.1503  0.0330
18314TIP3    H176357   5.924   5.194   1.126  0.9160  0.5733  0.8743
18314TIP3    H276358   5.974   5.222   0.985 -0.9318 -0.3639 -0.0062
18315TIP3   OH276359   5.703   2.958  11.775 -0.3955 -0.4623  0.3114
18315TIP3    H176360   5.645   2.932  11.846 -0.4831  0.5914  0.6362
18315TIP3    H276361   5.766   2.886  11.768 -0.2286 -0.4609  1.6281
18316TIP3   OH276362   2.146   5.229   3.760 -0.6831 -0.2036 -0.5377
18316TIP3    H176363   2.231   5.271   3.746 -0.4435 -0.7915 -0.9060
18316TIP3    H276364   2.132   5.233   3.855 -0.2268 -0.1295 -0.4729
18317TIP3   OH276365   0.184   3.440   4.805  0.0114  0.2398  0.1633
18317TIP3    H176366   0.170   3.445   4.899  0.4541 -0.4988  0.2860
18317TIP3    H276367   0.270   3.480   4.792 -0.0155  0.2719  0.0854
18318TIP3   OH276368   5.100   1.992   3.534  0.3896  0.4125  0.1800
18318TIP3    H176369   5.025   2.045   3.508  0.4468 -0.1987 -1.3460
18318TIP3    H276370   5.173   2.029   3.485  0.8238  0.1437  0.6098
18319TIP3   OH276371   1.024   3.734  16.632 -0.4559 -0.4237  0.4895
18319TIP3    H176372   1.082   3.720  16.707 -0.0345  1.3458  0.5392
18319TIP3    H276373   0.974   3.652  16.625  1.6672 -1.8140  0.7558
18320TIP3   OH276374   5.225   3.499  14.155  0.3210 -0.4862 -0.2482
18320TIP3    H176375   5.265   3.579  14.121 -1.5864  0.4222 -0.5024
18320TIP3    H276376   5.268   3.429  14.107  1.6861  0.3958 -0.3794
18321TIP3   OH276377   6.534   3.045  15.428  0.3609 -0.0732  0.1503
18321TIP3    H176378   6.604   3.111  15.424 -0.8643  1.2913  0.4662
18321TIP3    H276379   6.581   2.961  15.435  1.9836  0.6802 -0.9462
18322TIP3   OH276380   5.181   6.529   0.282 -0.0814 -0.1866 -0.0863
18322TIP3    H176381   5.099   6.579   0.277 -0.4445 -0.8381 -1.1102
18322TIP3    H276382   5.248   6.595   0.298 -0.7352  0.4328  0.1811
18323TIP3   OH276383   4.229   5.485   3.985  0.1416  1.3175 -0.0429
18323TIP3    H176384   4.138   5.483   3.955  0.2940 -0.0922 -0.4949
18323TIP3    H276385   4.267   5.560   3.940 -0.6701  1.6077 -0.2623
18324TIP3   OH276386   4.605   0.865   0.888 -0.2168  0.9386 -0.6221
18324TIP3    H176387   4.653   0.864   0.805  1.0928 -0.7815  0.0986
18324TIP3    H276388   4.671   0.892   0.953 -0.8284  0.7967  0.0700
18325TIP3   OH276389   3.891   3.690   4.739 -0.1540  0.1397  0.0737
18325TIP3    H176390   3.965   3.728   4.786  1.0109 -0.7362 -0.9855
18325TIP3    H276391   3.819   3.691   4.802  1.0579 -0.0342  1.5159
18326TIP3   OH276392   3.362   6.492  13.204 -0.1400 -0.8182 -1.0696
18326TIP3    H176393   3.277   6.470  13.166 -0.6090 -0.8171 -0.0562
18326TIP3    H276394   3.391   6.570  13.155 -0.6606 -0.8904 -1.5026
18327TIP3   OH276395   2.726   0.787   1.991  0.0632 -0.5103 -1.0191
18327TIP3    H176396   2.640   0.777   1.951  0.2348 -0.8198 -1.3206
18327TIP3    H276397   2.768   0.701   1.978 -0.0163 -0.7424  0.1475
18328TIP3   OH276398   0.147   1.508   4.014 -0.3415 -0.3818  0.4548
18328TIP3    H176399   0.168   1.561   4.091  0.2876  0.9282 -0.5756
18328TIP3    H276400   0.056   1.483   4.026 -0.1475 -0.5498  1.8069
18329TIP3   OH276401   3.393   2.379   5.394  0.7406 -0.2849 -0.0553
18329TIP3    H176402   3.354   2.421   5.471 -0.9671 -0.0282 -1.0115
18329TIP3    H276403   3.448   2.309   5.430  0.3878  0.1588  1.4078
18330TIP3   OH276404   2.881   2.968  14.091  0.1067 -0.3098  0.2371
18330TIP3    H176405   2.818   3.033  14.060  1.0245  2.1690  3.0832
18330TIP3    H276406   2.958   2.980  14.035  0.0309  0.6363  0.3232
18331TIP3   OH276407   1.110   0.102  12.919 -0.3790  0.2997 -0.1011
18331TIP3    H176408   1.180   0.041  12.942 -0.7752 -0.7150 -1.4435
18331TIP3    H276409   1.154   0.185  12.905  0.3635 -0.0015  0.3702
18332TIP3   OH276410   4.055   2.222   1.344  0.2508 -0.1598  0.1983
18332TIP3    H176411   4.069   2.274   1.424 -0.3895 -0.0583  0.2520
18332TIP3    H276412   4.102   2.270   1.276  0.6207 -0.1284  0.4679
18333TIP3   OH276413   6.490   5.983  14.994 -0.0665 -0.1146  0.5465
18333TIP3    H176414   6.487   6.059  15.052 -0.4503  1.1327 -1.0406
18333TIP3    H276415   6.442   6.010  14.916  1.5962 -1.2156 -0.9362
18334TIP3   OH276416   1.251   4.870   3.094  0.0981 -0.6204  0.1730
18334TIP3    H176417   1.300   4.790   3.074  0.5414 -0.5719  1.0369
18334TIP3    H276418   1.311   4.924   3.145  0.7885  1.4658 -2.6052
18335TIP3   OH276419   2.637   0.387   5.974  0.3433  0.4865  0.5189
18335TIP3    H176420   2.707   0.436   6.017 -0.5540  1.9898  0.3542
18335TIP3    H276421   2.581   0.454   5.936  0.6736 -0.7206 -2.3847
18336TIP3   OH276422   5.141   3.535   1.180 -0.0218  0.5678 -0.2124
18336TIP3    H176423   5.105   3.480   1.250 -1.6260  1.2418 -0.4562
18336TIP3    H276424   5.067   3.549   1.120  0.9913  1.0188 -1.4120
18337TIP3   OH276425   2.463   3.916  15.988 -0.1194  0.5414 -0.4009
18337TIP3    H176426   2.462   3.827  15.953 -0.3758  0.9482 -1.4866
18337TIP3    H276427   2.376   3.950  15.969 -0.1938  0.8588  0.4735
18338TIP3   OH276428   1.570   2.929   4.021  0.5345  0.0832 -0.4934
18338TIP3    H176429   1.516   2.973   3.955  0.9180 -0.0022 -0.8686
18338TIP3    H276430   1.649   2.902   3.973  0.9061  0.2035  0.0527
18339TIP3   OH276431   4.337   3.125  14.320  0.0112 -0.2869  0.8363
18339TIP3    H176432   4.400   3.161  14.257  0.2547 -1.4587  0.3665
18339TIP3    H276433   4.254   3.124  14.273  0.0321 -0.4389  0.8005
18340TIP3   OH276434   1.828   3.559   0.495  0.0385  0.7837  0.7100
18340TIP3    H176435   1.828   3.600   0.408  0.5813 -0.5393  0.0510
18340TIP3    H276436   1.742   3.516   0.501  0.6745 -0.6616  0.0269
18341TIP3   OH276437   2.523   2.652  13.735  0.2143 -0.6077  0.4926
18341TIP3    H176438   2.535   2.639  13.829 -0.1995  0.3211  0.6802
18341TIP3    H276439   2.567   2.734  13.716 -0.7499 -0.1564  0.1137
18342TIP3   OH276440   5.492   6.429   5.566 -0.2762 -0.0457 -0.5794
18342TIP3    H176441   5.541   6.362   5.614 -0.7845 -1.0082 -1.3850
18342TIP3    H276442   5.546   6.448   5.490 -0.7124 -0.4464 -0.9938
18343TIP3   OH276443   1.382   5.724  13.278  0.3367  0.2425  0.8191
18343TIP3    H176444   1.403   5.636  13.246 -0.3472  0.6165 -0.7527
18343TIP3    H276445   1.465   5.771  13.273  0.0413  0.6583 -1.7826
18344TIP3   OH276446   4.419   4.396   5.700 -0.1174 -0.4740  0.5328
18344TIP3    H176447   4.338   4.375   5.748 -0.7415 -1.2046 -0.7847
18344TIP3    H276448   4.485   4.405   5.768 -1.0815 -0.9446  1.5699
18345TIP3   OH276449   3.716   1.611  13.494  0.0891  0.3377 -0.0713
18345TIP3    H176450   3.725   1.654  13.410 -1.6611 -0.5136 -0.7398
18345TIP3    H276451   3.635   1.646  13.531 -0.2732 -0.8346  0.2897
18346TIP3   OH276452   0.429   1.208  14.977  0.1445  0.3663  0.1241
18346TIP3    H176453   0.334   1.209  14.962 -0.0893 -0.2525  1.4431
18346TIP3    H276454   0.464   1.265  14.908 -1.2014  0.8135 -0.2333
18347TIP3   OH276455   2.182   2.668  10.708  0.0261 -0.6544 -0.0730
18347TIP3    H176456   2.147   2.582  10.733 -1.7715  0.3414  1.1079
18347TIP3    H276457   2.266   2.674  10.754 -0.0472 -1.5886  0.2106
18348TIP3   OH276458   1.582   3.412  15.134 -0.0313  0.3567 -0.6591
18348TIP3    H176459   1.654   3.449  15.185 -1.5467 -1.8987  3.5776
18348TIP3    H276460   1.618   3.334  15.093  0.8665  1.4611 -2.0618
18349TIP3   OH276461   4.727   0.234  13.534  0.0375 -0.2266 -0.1494
18349TIP3    H176462   4.681   0.317  13.522 -1.1641 -1.0109 -1.3138
18349TIP3    H276463   4.745   0.230  13.628 -2.7787 -0.0725  0.5019
18350TIP3   OH276464   0.312   1.201  11.286  0.1391  0.2569 -0.3635
18350TIP3    H176465   0.368   1.270  11.322  0.8453 -0.4161 -0.1183
18350TIP3    H276466   0.368   1.157  11.222 -0.2805 -0.1084 -0.4806
18351TIP3   OH276467   4.007   1.060   1.189  0.2879 -0.1565 -0.1851
18351TIP3    H176468   4.046   0.974   1.172 -0.0865 -0.3453 -0.1013
18351TIP3    H276469   3.995   1.063   1.284 -3.1503 -1.5703 -0.4250
18352TIP3   OH276470   1.676   5.392   3.591 -0.2831 -0.2503 -0.5932
18352TIP3    H176471   1.728   5.468   3.619  1.6273 -1.8583  0.4737
18352TIP3    H276472   1.682   5.330   3.664  0.6732 -2.5773 -2.4967
18353TIP3   OH276473   4.538   0.376  11.545  0.4011 -0.9839  1.0450
18353TIP3    H176474   4.593   0.454  11.555  1.4221 -1.3424 -1.1504
18353TIP3    H276475   4.595   0.303  11.570 -0.4594 -1.1023  2.8064
18354TIP3   OH276476   4.944   2.830   2.700 -0.3322  0.2111  0.0246
18354TIP3    H176477   4.862   2.862   2.662  0.2009  0.8284 -0.6313
18354TIP3    H276478   4.957   2.744   2.658 -0.7250  0.0313  0.2628
18355TIP3   OH276479   0.955   4.456   4.804 -0.2619 -0.4140 -0.5192
18355TIP3    H176480   0.976   4.485   4.716 -1.0652 -3.0080 -1.6652
18355TIP3    H276481   0.870   4.413   4.796 -0.8087  0.0796  1.7333
18356TIP3   OH276482   1.143   1.613  14.954  0.5115  0.0122  0.5771
18356TIP3    H176483   1.227   1.567  14.960  0.9965  0.8540  0.4669
18356TIP3    H276484   1.082   1.547  14.922  1.3574 -0.3483 -0.3529
18357TIP3   OH276485   0.216   4.647   2.151  0.3088  0.5651 -0.5133
18357TIP3    H176486   0.178   4.559   2.155 -1.7852  1.4562  1.9080
18357TIP3    H276487   0.145   4.703   2.120  0.6326  1.8127  0.8719
18358TIP3   OH276488   1.263   6.316   2.034  0.1871 -0.2265 -0.4505
18358TIP3    H176489   1.277   6.404   1.999 -0.8430 -0.2753 -1.0222
18358TIP3    H276490   1.293   6.321   2.124 -1.7640  1.3004  0.1859
18359TIP3   OH276491   5.136   3.771   2.122  0.2092  0.1247  0.1614
18359TIP3    H176492   5.203   3.751   2.057  2.1996  0.5757  1.9528
18359TIP3    H276493   5.130   3.693   2.176 -0.9683 -0.0190 -0.1469
18360TIP3   OH276494   1.143   5.273  16.401  0.1156 -0.1017 -0.1617
18360TIP3    H176495   1.191   5.352  16.427 -0.1147  0.6062 -1.7415
18360TIP3    H276496   1.057   5.282  16.441  0.6063 -0.3612  0.9858
18361TIP3   OH276497   4.376   5.173   5.044  0.3639 -0.2724  0.4047
18361TIP3    H176498   4.455   5.133   5.080  0.3111 -1.6241 -0.8650
18361TIP3    H276499   4.306   5.147   5.104  0.7183  0.0323  0.9503
18362TIP3   OH276500   0.899   1.275   0.340  0.1905 -0.3765  0.3298
18362TIP3    H176501   0.858   1.304   0.421  2.2783 -0.7769  1.6035
18362TIP3    H276502   0.980   1.325   0.335  0.8213 -1.4487 -0.7232
18363TIP3   OH276503   0.114   5.085  11.346  0.4198 -0.1716 -0.4014
18363TIP3    H176504   0.051   5.141  11.303  0.4992  0.1277 -0.1316
18363TIP3    H276505   0.119   5.007  11.291 -0.6292 -0.4588 -0.1152
18364TIP3   OH276506   5.029   2.255  12.890 -0.6063  0.1478  0.5496
18364TIP3    H176507   4.963   2.254  12.821  0.1296 -0.5044 -0.1792
18364TIP3    H276508   5.012   2.176  12.941  0.0510 -0.4335 -0.0999
18365TIP3   OH276509   1.973   4.593  14.935 -0.4063  0.4660  0.1923
18365TIP3    H176510   1.934   4.670  14.893 -0.2333  0.0019 -0.8378
18365TIP3    H276511   2.066   4.615  14.944 -0.0154 -0.2835 -1.6954
18366TIP3   OH276512   0.503   3.046   3.254  0.0137 -0.4154 -0.0796
18366TIP3    H176513   0.460   3.071   3.172 -1.2665  1.5601  1.1046
18366TIP3    H276514   0.592   3.080   3.247  0.4370 -1.6791 -1.2552
18367TIP3   OH276515   6.141   0.515   0.280  0.0670  0.3529 -0.3016
18367TIP3    H176516   6.118   0.578   0.212  1.8308 -1.5595 -2.8650
18367TIP3    H276517   6.236   0.506   0.273 -0.2413 -4.7015 -2.3305
18368TIP3   OH276518   1.318   3.471  13.437 -0.3252  0.0526 -0.0043
18368TIP3    H176519   1.287   3.529  13.506  0.2908 -0.6221  0.8536
18368TIP3    H276520   1.374   3.526  13.382  1.3519 -0.0018  1.5646
18369TIP3   OH276521   3.691   2.510  13.041  0.1337 -0.7703  0.8639
18369TIP3    H176522   3.621   2.466  13.090  0.4832 -1.6036  0.6385
18369TIP3    H276523   3.694   2.598  13.077 -1.2782 -0.6035  0.6348
18370TIP3   OH276524   4.215   0.861   0.484  0.3407  0.0478  0.1123
18370TIP3    H176525   4.127   0.830   0.504  0.9131 -1.2295  0.7709
18370TIP3    H276526   4.272   0.806   0.537  1.4741  1.6645  0.6395
18371TIP3   OH276527   2.423   4.242   2.325 -0.1314  0.8259  0.4333
18371TIP3    H176528   2.517   4.241   2.307  0.0480 -0.0751  1.3118
18371TIP3    H276529   2.413   4.185   2.401 -1.2938  1.5791  0.8704
18372TIP3   OH276530   2.985   2.344   1.906  0.4464 -0.3104 -0.1203
18372TIP3    H176531   2.915   2.375   1.964  0.5100  1.0943 -0.7543
18372TIP3    H276532   2.965   2.382   1.821  1.4675 -0.6786 -0.5470
18373TIP3   OH276533   2.584   1.371  13.434 -0.0174  0.6225  0.7100
18373TIP3    H176534   2.613   1.281  13.446  0.7519  0.7803  0.0742
18373TIP3    H276535   2.598   1.413  13.520  0.5787  0.3985  0.7262
18374TIP3   OH276536   3.241   2.888  12.764  0.2294 -0.0627 -0.1714
18374TIP3    H176537   3.312   2.852  12.711  0.1889 -0.0156 -0.2571
18374TIP3    H276538   3.220   2.819  12.826  1.3201  0.4335  0.8018
18375TIP3   OH276539   5.197   0.986  11.519 -0.8721 -0.1486  0.0021
18375TIP3    H176540   5.277   1.022  11.558  0.3113 -1.4606 -1.0634
18375TIP3    H276541   5.226   0.905  11.477 -2.6672 -0.3417 -0.9625
18376TIP3   OH276542   6.392   2.943  11.825 -0.6007  0.2358  0.4395
18376TIP3    H176543   6.317   2.965  11.769 -0.5376 -0.1821  0.1870
18376TIP3    H276544   6.378   2.995  11.905 -0.4761  1.1545 -0.1133
18377TIP3   OH276545   5.605   3.310   5.266 -0.6601  0.9514 -0.2048
18377TIP3    H176546   5.551   3.256   5.209  1.5198  0.3559 -1.8762
18377TIP3    H276547   5.659   3.248   5.314  1.3496  1.5103 -1.5984
18378TIP3   OH276548   3.871   0.116   3.212  0.3038 -0.3364  0.3530
18378TIP3    H176549   3.831   0.120   3.125  0.9343 -1.9391 -0.0385
18378TIP3    H276550   3.806   0.154   3.271 -1.0497 -1.2755 -0.5082
18379TIP3   OH276551   2.065   4.292   1.971  0.2061  0.0973  0.3348
18379TIP3    H176552   2.082   4.358   2.039 -0.4486 -0.2340  0.8307
18379TIP3    H276553   2.001   4.233   2.011  0.2178 -0.4088 -0.3834
18380TIP3   OH276554   0.352   2.018  13.433  0.0676  0.4619  0.2642
18380TIP3    H176555   0.401   1.992  13.510  0.0341 -0.6752 -0.0811
18380TIP3    H276556   0.273   1.964  13.435  1.5546 -2.1372 -2.2635
18381TIP3   OH276557   5.316   4.217  15.751  0.4411  0.0096  0.8897
18381TIP3    H176558   5.268   4.176  15.823  0.9937  1.9962  2.4823
18381TIP3    H276559   5.405   4.183  15.758 -0.2050 -2.2889 -0.9507
18382TIP3   OH276560   4.717   3.558   4.958 -0.0481  0.5977 -0.1987
18382TIP3    H176561   4.789   3.495   4.963  0.7648  1.5285  0.0098
18382TIP3    H276562   4.698   3.565   4.865  0.8740  1.1515 -0.3608
18383TIP3   OH276563   4.484   0.165   3.789 -0.5130  0.1884  0.0885
18383TIP3    H176564   4.443   0.251   3.786  2.0873  1.7408  2.9966
18383TIP3    H276565   4.555   0.170   3.725 -0.6722  0.0069 -0.1040
18384TIP3   OH276566   1.390   6.021  12.740  1.1013  0.2703 -0.2660
18384TIP3    H176567   1.429   6.069  12.813  1.1098  0.2453 -0.2548
18384TIP3    H276568   1.303   6.060  12.731  1.1648  0.3930 -0.3545
18385TIP3   OH276569   0.790   4.532  10.577  0.3475  0.1745 -0.3168
18385TIP3    H176570   0.740   4.475  10.519  2.2768 -0.0722 -1.8279
18385TIP3    H276571   0.858   4.476  10.614 -2.2282 -0.3825  4.3599
18386TIP3   OH276572   0.568   0.310  12.888 -0.1390  0.4576 -0.1648
18386TIP3    H176573   0.498   0.292  12.825  0.0339  0.7750 -0.4482
18386TIP3    H276574   0.649   0.293  12.840 -0.0110  0.2979  0.0990
18387TIP3   OH276575   1.060   1.141   4.426  0.6656  0.0738  0.7746
18387TIP3    H176576   1.082   1.214   4.368 -0.1080  0.3928  0.8717
18387TIP3    H276577   1.138   1.085   4.425  1.1702  0.7712  0.5042
18388TIP3   OH276578   2.069   4.068   0.675  0.3177 -0.6501 -0.5134
18388TIP3    H176579   2.064   4.137   0.741  1.9176  0.2117 -1.2357
18388TIP3    H276580   1.988   4.018   0.686 -0.2073  0.4650  0.9835
18389TIP3   OH276581   0.260   6.194  15.101  0.1353  0.3817  0.7240
18389TIP3    H176582   0.183   6.243  15.129  1.3984  2.2784  1.0227
18389TIP3    H276583   0.250   6.186  15.006 -0.8751 -0.2250  0.8713
18390TIP3   OH276584   2.693   4.653  14.836 -0.7523  0.2426  0.2451
18390TIP3    H176585   2.746   4.702  14.899 -2.4149  1.6701  0.6208
18390TIP3    H276586   2.719   4.689  14.751 -0.7723  0.6173  0.3930
18391TIP3   OH276587   5.446   3.807   0.127 -0.6984 -0.1540  0.1887
18391TIP3    H176588   5.509   3.878   0.112  0.3699 -1.2058 -0.5083
18391TIP3    H276589   5.364   3.852   0.148  0.7164  1.2846  3.2800
18392TIP3   OH276590   6.574   1.904   3.699  0.3860 -0.1886 -0.1929
18392TIP3    H176591   6.514   1.916   3.773 -0.0427  0.8464 -0.6798
18392TIP3    H276592   6.660   1.924   3.735  0.5577 -2.2318  0.6521
18393TIP3   OH276593   0.165   6.605  15.071 -0.3005 -0.1511  0.3371
18393TIP3    H176594   0.208   6.575  14.991 -1.7440 -0.8329 -0.2355
18393TIP3    H276595   0.126   6.526  15.108 -0.5216  0.3323  1.1657
18394TIP3   OH276596   3.282   5.294   0.585  0.1416 -0.5930 -0.5500
18394TIP3    H176597   3.373   5.305   0.614  0.4478 -1.1028 -1.2944
18394TIP3    H276598   3.282   5.322   0.494 -0.6300  0.1613 -0.3312
18395TIP3   OH276599   1.223   1.383  16.004  0.0960  0.0414 -0.3132
18395TIP3    H176600   1.192   1.449  16.066 -0.3088 -0.2016 -0.2504
18395TIP3    H276601   1.318   1.396  16.000  0.1077  0.1663  0.2367
18396TIP3   OH276602   1.214   3.680  13.591 -0.7946 -0.4115  0.0665
18396TIP3    H176603   1.123   3.658  13.611 -1.6712  1.0442 -2.0240
18396TIP3    H276604   1.237   3.749  13.654 -1.4393 -0.1468  0.0168
18397TIP3   OH276605   5.256   4.712  12.217  0.5803  0.2038 -0.0650
18397TIP3    H176606   5.235   4.618  12.221  2.4186 -0.2175  2.2962
18397TIP3    H276607   5.237   4.737  12.127  0.8289 -2.6674 -1.0298
18398TIP3   OH276608   4.053   3.576  14.001 -0.1126 -0.0513 -0.3319
18398TIP3    H176609   4.123   3.512  13.994  0.0868  0.2567 -1.2485
18398TIP3    H276610   4.084   3.638  14.068 -0.3644 -0.9564  0.6523
18399TIP3   OH276611   5.367   0.149   5.952 -0.1004 -0.0528 -0.1085
18399TIP3    H176612   5.275   0.128   5.969 -0.5154  0.0581 -1.9657
18399TIP3    H276613   5.381   0.232   5.998 -0.8231 -0.2461  0.4880
18400TIP3   OH276614   3.886   5.208   2.644  0.1856 -0.0677  0.2272
18400TIP3    H176615   3.861   5.281   2.701 -0.6883 -0.6043  0.5491
18400TIP3    H276616   3.806   5.158   2.632  0.5509 -0.4382 -0.8039
18401TIP3   OH276617   0.613   5.009   4.143 -0.1637 -0.1499  0.6192
18401TIP3    H176618   0.534   4.969   4.105 -0.9483 -0.2651  2.2832
18401TIP3    H276619   0.580   5.066   4.213  1.2038  0.2281  0.9861
18402TIP3   OH276620   5.955   3.359   1.873 -0.2099  0.2001 -0.0766
18402TIP3    H176621   6.008   3.281   1.884 -0.4315  0.1167  0.4198
18402TIP3    H276622   6.013   3.431   1.898  0.0434  0.2124 -0.6849
18403TIP3   OH276623   3.325   5.965   2.591  0.0894  0.1823 -0.2262
18403TIP3    H176624   3.304   5.874   2.568 -0.7675  0.0614  0.9271
18403TIP3    H276625   3.278   6.017   2.526 -0.5036 -0.1866 -0.1027
18404TIP3   OH276626   0.375   1.610  12.298 -0.4763  0.1797 -0.1199
18404TIP3    H176627   0.464   1.594  12.328 -0.1561  2.2579  0.2222
18404TIP3    H276628   0.320   1.560  12.359  0.3953  0.1804  0.6910
18405TIP3   OH276629   0.357   1.219   3.310  0.4396  0.4427 -0.0634
18405TIP3    H176630   0.440   1.180   3.283  0.2678  0.0084  0.0173
18405TIP3    H276631   0.304   1.220   3.229  0.4509  0.5243 -0.0695
18406TIP3   OH276632   1.890   2.751  16.984  0.4503  0.3068 -0.3391
18406TIP3    H176633   1.860   2.791  16.902 -0.0337 -1.8769 -1.2800
18406TIP3    H276634   1.831   2.677  16.998  1.5945 -0.3776  1.0711
18407TIP3   OH276635   0.725   0.050  11.139 -0.1664  0.1367  0.0765
18407TIP3    H176636   0.733  -0.000  11.058  2.5593 -0.8076  0.8328
18407TIP3    H276637   0.809   0.038  11.184 -2.1550 -1.0919  4.0185
18408TIP3   OH276638   5.633   3.121   2.336 -0.5523  0.3440  0.2956
18408TIP3    H176639   5.569   3.093   2.401 -0.4154  0.4493  0.4754
18408TIP3    H276640   5.664   3.040   2.296 -0.9152  0.3030  0.0972
18409TIP3   OH276641   5.695   1.885   0.312  0.8913 -0.0736  0.4182
18409TIP3    H176642   5.721   1.925   0.229  0.0475 -0.3985 -0.0062
18409TIP3    H276643   5.763   1.820   0.329  1.7210  0.8043  0.6014
18410TIP3   OH276644   3.577   4.338  14.222 -0.4893  0.1949  1.3003
18410TIP3    H176645   3.557   4.411  14.282 -0.3738  1.0387  0.3312
18410TIP3    H276646   3.673   4.336  14.218 -0.3836 -1.5484  3.1446
18411TIP3   OH276647   0.458   3.646  12.336  0.3279  0.3162  0.4888
18411TIP3    H176648   0.365   3.668  12.347 -0.5435 -1.2917 -2.5343
18411TIP3    H276649   0.459   3.551  12.330  2.0915  0.3509 -0.2172
18412TIP3   OH276650   4.611   4.044   2.511 -0.3302 -0.0537 -0.0173
18412TIP3    H176651   4.601   4.060   2.417 -0.4088  0.1161  0.0203
18412TIP3    H276652   4.542   4.095   2.552  0.2185  0.5405  0.1893
18413TIP3   OH276653   2.776   1.683   3.819 -0.7644  0.2002  0.2578
18413TIP3    H176654   2.872   1.684   3.822 -0.7186  0.4525 -0.8740
18413TIP3    H276655   2.751   1.612   3.878  0.0618  0.9038  1.5208
18414TIP3   OH276656   4.293   3.730   2.777  0.3522 -0.0646  0.5652
18414TIP3    H176657   4.202   3.757   2.787  0.7900  1.5109  0.6495
18414TIP3    H276658   4.297   3.689   2.691 -0.2629  0.7128  0.1533
18415TIP3   OH276659   4.285   5.763   1.637  0.4593  0.4257 -0.1112
18415TIP3    H176660   4.328   5.788   1.719  1.2771  0.2904 -0.4909
18415TIP3    H276661   4.357   5.740   1.578 -0.1588 -0.4987 -0.5373
18416TIP3   OH276662   4.638   6.276  11.520  0.5803  0.1316 -0.5879
18416TIP3    H176663   4.721   6.309  11.553  0.2834 -0.0935  0.4101
18416TIP3    H276664   4.654   6.184  11.500  0.8958  0.3913 -1.5754
18417TIP3   OH276665   2.149   0.261   0.680  0.1507 -0.5815  0.8887
18417TIP3    H176666   2.217   0.199   0.652  0.8438  0.5487 -0.0090
18417TIP3    H276667   2.110   0.292   0.598 -0.3350  0.0059  1.3357
18418TIP3   OH276668   2.291   1.149  11.322 -0.0344 -0.3888 -0.6863
18418TIP3    H176669   2.377   1.191  11.324 -1.7996  3.6760 -1.0740
18418TIP3    H276670   2.285   1.112  11.233  0.6592  0.8678 -1.2903
18419TIP3   OH276671   4.951   0.783  14.251 -0.0008  0.2425  0.0566
18419TIP3    H176672   4.952   0.724  14.175  1.3650 -1.0346  1.0187
18419TIP3    H276673   4.940   0.725  14.326  2.4189  1.0436  1.1304
18420TIP3   OH276674   1.058   2.792  12.755 -0.2882 -0.1658  0.5842
18420TIP3    H176675   1.134   2.779  12.698 -0.1024 -0.2529  0.8459
18420TIP3    H276676   1.091   2.773  12.843 -0.6190 -0.2180  0.6985
18421TIP3   OH276677   3.822   2.719   0.211  0.0445 -0.1012 -0.0409
18421TIP3    H176678   3.836   2.670   0.130 -1.1358  2.1864 -1.7503
18421TIP3    H276679   3.826   2.653   0.281 -0.2346 -2.3786 -2.0643
18422TIP3   OH276680   3.387   2.249  13.993 -0.0995  0.1540 -0.2176
18422TIP3    H176681   3.396   2.158  14.023 -2.2500  0.1904  0.7991
18422TIP3    H276682   3.449   2.257  13.922  0.1138 -2.1544 -0.3885
18423TIP3   OH276683   2.357   1.493   5.711 -0.1495 -0.7475 -0.1631
18423TIP3    H176684   2.438   1.492   5.660 -0.1244  0.1714 -0.1546
18423TIP3    H276685   2.290   1.459   5.652  0.0491 -0.5454 -0.5069
18424TIP3   OH276686   3.490   6.639   1.779 -0.4947  0.8833  1.0351
18424TIP3    H176687   3.408   6.662   1.735  0.1731  0.4096 -0.5075
18424TIP3    H276688   3.462   6.587   1.854 -1.5645 -1.4792 -0.8545
18425TIP3   OH276689   6.542   1.361  16.295  0.0921 -0.0157  0.0358
18425TIP3    H176690   6.449   1.365  16.271  0.2628  0.6231 -0.5580
18425TIP3    H276691   6.541   1.339  16.388 -0.7063  1.3273  0.3875
18426TIP3   OH276692   6.239   2.000   0.907  0.3632  0.1337  0.0669
18426TIP3    H176693   6.228   1.938   0.834  3.9933 -1.7666  0.9032
18426TIP3    H276694   6.315   2.053   0.883  0.5386  0.6737  1.6995
18427TIP3   OH276695   4.746   4.179  14.784  0.4578 -0.1893 -0.2792
18427TIP3    H176696   4.775   4.238  14.854 -1.1078 -0.9411  1.0557
18427TIP3    H276697   4.652   4.193  14.778  0.3100 -1.3831 -1.0593
18428TIP3   OH276698   2.922   2.041   0.157  0.1665  0.0586  0.1077
18428TIP3    H176699   2.964   1.993   0.228 -2.4620 -0.9062  1.1316
18428TIP3    H276700   2.991   2.053   0.091  1.7527 -2.1865  1.2517
18429TIP3   OH276701   5.997   4.156   2.208  0.2469 -0.9804  0.4180
18429TIP3    H176702   6.017   4.247   2.228 -0.0426 -1.0268  0.9578
18429TIP3    H276703   5.990   4.113   2.294  2.1839 -1.9302  0.1584
18430TIP3   OH276704   6.203   0.795  12.162 -0.5640  0.5924  0.2780
18430TIP3    H176705   6.181   0.709  12.127 -1.1778  0.1637  1.6487
18430TIP3    H276706   6.293   0.811  12.133 -0.9332  0.1328 -1.1791
18431TIP3   OH276707   1.919   1.189  13.693 -0.6736  0.3865  0.5549
18431TIP3    H176708   1.932   1.100  13.725 -0.4783  0.0462 -0.4473
18431TIP3    H276709   2.007   1.224  13.681 -0.7361  0.3656  0.0064
18432TIP3   OH276710   1.809   1.796   2.915 -0.1517  0.2935 -0.2247
18432TIP3    H176711   1.900   1.816   2.938 -0.4112  0.7535  0.4514
18432TIP3    H276712   1.761   1.876   2.937 -0.8350 -0.2028  0.1239
18433TIP3   OH276713   3.599   2.990  11.299  0.0416 -0.5689 -0.2190
18433TIP3    H176714   3.649   3.046  11.239 -1.1598  0.4517 -0.3218
18433TIP3    H276715   3.562   2.922  11.243 -2.4847  1.3265 -1.0936
18434TIP3   OH276716   2.639   6.232   3.563 -0.4108 -0.1305 -0.1797
18434TIP3    H176717   2.720   6.246   3.515  0.0700 -0.0770  0.6203
18434TIP3    H276718   2.656   6.269   3.650 -1.6002  0.6843 -0.2652
18435TIP3   OH276719   1.664   4.135   1.627 -0.5104  0.2406 -0.2803
18435TIP3    H176720   1.695   4.066   1.568  0.0995  0.7029 -0.5024
18435TIP3    H276721   1.582   4.100   1.663 -1.0388  0.0497 -1.6029
18436TIP3   OH276722   0.262   1.464   2.079 -0.6225  0.9336  0.2733
18436TIP3    H176723   0.284   1.372   2.094 -0.9796  0.4522 -1.8316
18436TIP3    H276724   0.320   1.513   2.138  1.2851 -0.5551 -0.2495
18437TIP3   OH276725   4.235   2.862  14.624 -0.1226  0.2725 -0.5839
18437TIP3    H176726   4.245   2.954  14.599  0.6366  0.7181  1.2078
18437TIP3    H276727   4.313   2.843  14.677 -1.2377 -0.8329  0.7299
18438TIP3   OH276728   5.831   1.357  12.806 -0.6062  0.1810  0.0215
18438TIP3    H176729   5.880   1.354  12.725  0.2767  0.3969  0.5335
18438TIP3    H276730   5.785   1.442  12.804  0.7060  0.9290  0.4648
18439TIP3   OH276731   3.500   4.470   2.720  0.4134 -0.4048  0.3137
18439TIP3    H176732   3.561   4.397   2.732 -0.0293 -0.9304 -0.5439
18439TIP3    H276733   3.424   4.447   2.773  0.4841 -0.3137  0.4552
18440TIP3   OH276734   3.414   1.405  11.752 -0.7348  0.3127  0.7010
18440TIP3    H176735   3.445   1.456  11.677 -0.9525 -0.7765 -0.1506
18440TIP3    H276736   3.352   1.463  11.796 -1.3344  0.6250 -0.5187
18441TIP3   OH276737   2.768   0.434  13.672 -0.4562  0.4208 -0.1615
18441TIP3    H176738   2.777   0.510  13.614  1.2257  1.0586  0.8693
18441TIP3    H276739   2.845   0.438  13.729  0.1690 -2.5651 -0.6370
18442TIP3   OH276740   2.313   5.176  13.217  0.1029  0.6797 -0.4085
18442TIP3    H176741   2.283   5.086  13.230  0.1931  0.3533 -2.1759
18442TIP3    H276742   2.235   5.223  13.189  0.6161  0.4542 -2.3346
18443TIP3   OH276743   0.938   2.779  14.456 -0.2091 -0.1292 -0.1499
18443TIP3    H176744   0.921   2.850  14.394 -2.3881 -1.1480 -0.8144
18443TIP3    H276745   1.027   2.750  14.435 -0.5449  0.1669 -2.1965
18444TIP3   OH276746   4.968   0.882  10.799 -0.5162  0.0220 -0.5930
18444TIP3    H176747   4.873   0.891  10.801 -0.5484  0.1267  2.2098
18444TIP3    H276748   4.986   0.806  10.855  1.1096  1.7993  1.4882
18445TIP3   OH276749   1.277   3.101  16.620  0.1854  0.2525  0.1522
18445TIP3    H176750   1.200   3.050  16.643  0.9818 -1.0700 -0.0042
18445TIP3    H276751   1.267   3.120  16.527 -0.3674  0.8633  0.3255
18446TIP3   OH276752   4.700   1.862  15.120 -0.3398 -0.1475  0.1617
18446TIP3    H176753   4.702   1.850  15.215  1.4135 -1.5187  0.0019
18446TIP3    H276754   4.791   1.874  15.095 -0.9498  2.7138 -1.1234
18447TIP3   OH276755   4.867   2.122   6.459 -0.0897 -0.1313 -0.4437
18447TIP3    H176756   4.862   2.216   6.441  0.2841 -0.0084  0.0689
18447TIP3    H276757   4.826   2.081   6.383  0.0359  0.4332 -0.8223
18448TIP3   OH276758   1.118   5.923  16.189  0.1038 -0.3200 -0.2159
18448TIP3    H176759   1.134   5.933  16.283  1.4229 -0.5890 -0.3906
18448TIP3    H276760   1.085   5.834  16.179  0.3320 -0.4233 -0.0469
18449TIP3   OH276761   3.914   4.140   4.740 -0.3549  0.1742  0.6317
18449TIP3    H176762   3.936   4.053   4.707  0.3880  0.5499  0.1055
18449TIP3    H276763   3.821   4.151   4.720  0.1083  0.4871 -1.6278
18450TIP3   OH276764   2.815   2.082   1.421  0.3493 -0.1178 -0.2090
18450TIP3    H176765   2.835   1.994   1.389 -0.1252  0.4538 -2.2383
18450TIP3    H276766   2.757   2.119   1.355 -2.7194  0.3761  2.5171
18451TIP3   OH276767   3.682   4.285   2.197 -0.0370 -0.3724 -0.1293
18451TIP3    H176768   3.671   4.194   2.168 -0.4508 -0.3279 -0.1155
18451TIP3    H276769   3.649   4.285   2.287  0.1834 -0.2571 -0.0475
18452TIP3   OH276770   0.814   1.781  16.505 -0.0957  0.3795 -0.7213
18452TIP3    H176771   0.744   1.727  16.540 -1.3315  1.2864 -1.7024
18452TIP3    H276772   0.770   1.857  16.468  1.5115  1.5936 -0.2737
18453TIP3   OH276773   1.800   4.666   4.451 -0.7357 -0.1288  0.5298
18453TIP3    H176774   1.790   4.670   4.356 -1.5190 -0.2730  0.6007
18453TIP3    H276775   1.711   4.670   4.485 -0.4681 -0.1703  1.2579
18454TIP3   OH276776   3.284   2.515   2.271  0.4169  0.0557  0.2072
18454TIP3    H176777   3.358   2.540   2.216  0.8518 -0.5003  0.5294
18454TIP3    H276778   3.213   2.573   2.244  1.1375  0.9986  0.3129
18455TIP3   OH276779   0.855   1.924   0.565  0.2158 -0.2359  1.1951
18455TIP3    H176780   0.835   1.997   0.506  1.1697  0.1243  1.2994
18455TIP3    H276781   0.804   1.851   0.531 -0.5451  0.4127  0.9268
18456TIP3   OH276782   6.679   5.847   5.377  0.3649 -0.0416 -0.1812
18456TIP3    H176783   6.680   5.874   5.468  0.2415  0.2556 -0.2659
18456TIP3    H276784   6.746   5.778   5.371  0.8701  0.4299 -0.0203
18457TIP3   OH276785   4.127   1.951  13.838 -0.1541 -0.1124 -0.6017
18457TIP3    H176786   4.135   1.859  13.813  0.0793 -0.3387  0.2941
18457TIP3    H276787   4.202   1.994  13.796 -0.2433 -0.3285 -0.9925
18458TIP3   OH276788   1.211   2.377   4.490  0.2097  0.0161 -0.5266
18458TIP3    H176789   1.116   2.365   4.496 -0.3133  1.5039 -3.6073
18458TIP3    H276790   1.243   2.295   4.451  0.1286 -0.2692 -0.0040
18459TIP3   OH276791   2.144   3.837  11.713 -0.2913 -0.1279 -0.4854
18459TIP3    H176792   2.120   3.747  11.733 -0.9745  0.1998  0.1739
18459TIP3    H276793   2.179   3.833  11.623 -0.7938 -0.9567 -0.6483
18460TIP3   OH276794   5.729   2.139   1.734 -0.2839  0.4250  0.1088
18460TIP3    H176795   5.781   2.105   1.661 -0.0730 -0.0678  0.4841
18460TIP3    H276796   5.748   2.080   1.807 -0.3396  1.0336  0.6215
18461TIP3   OH276797   2.889   1.738  14.387  0.1942  0.0718 -1.3120
18461TIP3    H176798   2.905   1.643  14.389  0.0039  0.0050  1.4025
18461TIP3    H276799   2.958   1.773  14.331  1.2609 -1.5290 -1.0839
18462TIP3   OH276800   6.450   5.441  10.499 -0.0238 -0.0294 -0.4433
18462TIP3    H176801   6.413   5.393  10.425 -3.5642  1.5669  0.0891
18462TIP3    H276802   6.416   5.530  10.489  0.1802  0.4866  2.5924
18463TIP3   OH276803   0.837   3.427   4.457  0.5059 -0.1922  0.1282
18463TIP3    H176804   0.832   3.500   4.518  2.5911  0.4483 -0.3633
18463TIP3    H276805   0.874   3.465   4.377 -2.5620 -0.9074 -1.7966
18464TIP3   OH276806   0.257   0.159  12.594  0.5548 -0.2055  0.2267
18464TIP3    H176807   0.194   0.108  12.645 -1.1212  0.2763 -1.2557
18464TIP3    H276808   0.343   0.125  12.621 -0.3811 -2.0322  1.1095
18465TIP3   OH276809   3.543   2.064  15.366 -0.1452 -0.3291  0.1575
18465TIP3    H176810   3.497   2.039  15.446 -1.0611 -3.0864 -1.0925
18465TIP3    H276811   3.520   2.156  15.352 -0.4741  0.0443  2.6609
18466TIP3   OH276812   2.824   3.267   3.539 -0.6040 -0.2272  0.8680
18466TIP3    H176813   2.896   3.244   3.597 -0.0176 -0.0123  0.2488
18466TIP3    H276814   2.772   3.330   3.588  0.3127  0.5375  0.8813
18467TIP3   OH276815   4.816   1.150   0.597 -0.4702  0.4801  0.0216
18467TIP3    H176816   4.799   1.191   0.512  0.7948  1.5407  0.2493
18467TIP3    H276817   4.813   1.056   0.579  1.4578  0.6579 -1.5953
18468TIP3   OH276818   4.086   6.146  12.447  0.3485 -0.3123 -0.1662
18468TIP3    H176819   4.145   6.180  12.380 -0.7359 -1.8535 -2.0106
18468TIP3    H276820   4.079   6.053  12.427 -1.9562 -0.3454  0.5664
18469TIP3   OH276821   0.469   6.645   5.261 -0.3966 -0.3801  0.3829
18469TIP3    H176822   0.385   6.651   5.216  0.1520 -2.0136 -0.9678
18469TIP3    H276823   0.447   6.645   5.354 -1.7457  0.8601  0.0892
18470TIP3   OH276824   2.844   3.866   4.405  0.3325 -0.0110 -0.3928
18470TIP3    H176825   2.822   3.944   4.456 -0.1836  0.0044 -0.6314
18470TIP3    H276826   2.924   3.832   4.446 -0.7315 -0.7026  1.2309
18471TIP3   OH276827   4.731   2.278  12.987  0.4685 -0.0009  0.7345
18471TIP3    H176828   4.770   2.192  12.999 -0.0139 -0.4835 -0.9286
18471TIP3    H276829   4.779   2.316  12.913 -1.5565 -0.2681 -0.7963
18472TIP3   OH276830   5.719   1.919   1.905 -0.3490 -0.3018  0.2737
18472TIP3    H176831   5.642   1.956   1.947  0.4888  0.6114  1.0355
18472TIP3    H276832   5.723   1.829   1.937 -0.6827 -0.1272  0.8212
18473TIP3   OH276833   3.458   6.013  13.929 -0.6059 -0.2473 -0.3159
18473TIP3    H176834   3.551   5.992  13.932 -0.8214 -1.4154  2.4991
18473TIP3    H276835   3.419   5.952  13.993 -3.3829 -0.1776 -1.8017
18474TIP3   OH276836   3.715   2.497  14.865 -0.5082 -0.3784 -0.4353
18474TIP3    H176837   3.646   2.508  14.930 -1.6670 -1.1507 -1.4917
18474TIP3    H276838   3.765   2.421  14.896 -0.4319 -0.1205  0.0789
18475TIP3   OH276839   1.635   5.391  14.148  0.3472 -0.4565 -0.3132
18475TIP3    H176840   1.648   5.319  14.087  0.4900  0.2920 -1.1813
18475TIP3    H276841   1.708   5.384  14.210 -0.1921 -1.6438  0.2343
18476TIP3   OH276842   6.012   1.443   4.786  0.2515  0.2085 -0.5295
18476TIP3    H176843   6.085   1.415   4.840  0.2937  1.0444 -0.1300
18476TIP3    H276844   5.997   1.534   4.812 -1.2279 -0.0863 -0.2724
18477TIP3   OH276845   0.083   0.455   1.853 -0.4806 -0.0367 -0.1695
18477TIP3    H176846   0.015   0.454   1.921  1.4049 -1.3742  1.8327
18477TIP3    H276847   0.164   0.477   1.900  0.8041 -0.3617 -2.1141
18478TIP3   OH276848   6.122   6.317  11.596  0.0424  0.2332 -0.2873
18478TIP3    H176849   6.136   6.411  11.585  0.1114  0.5462  1.9679
18478TIP3    H276850   6.183   6.291  11.665  1.8902 -2.0582 -2.5929
18479TIP3   OH276851   0.226   3.571  12.139  0.2955  0.0679 -0.1232
18479TIP3    H176852   0.287   3.502  12.114 -1.5730 -1.0968 -1.8057
18479TIP3    H276853   0.242   3.586  12.232  1.8595 -1.4707 -0.1155
18480TIP3   OH276854   2.893   1.434   2.576  0.3476  0.0983  0.3511
18480TIP3    H176855   2.906   1.510   2.633 -1.5313  0.4956  0.3389
18480TIP3    H276856   2.975   1.386   2.579  1.2246  1.5930  1.1821
18481TIP3   OH276857   3.679   1.544  12.683  0.4790 -0.3779 -0.3510
18481TIP3    H176858   3.722   1.501  12.757  2.0892 -1.3253 -1.7602
18481TIP3    H276859   3.678   1.636  12.707  1.6582 -0.5655  0.5467
18482TIP3   OH276860   3.609   3.646   0.334 -0.1137 -0.1067 -0.0050
18482TIP3    H176861   3.645   3.640   0.246  0.5405  0.5949  0.2043
18482TIP3    H276862   3.655   3.720   0.374 -0.2603 -0.5313  0.9874
18483TIP3   OH276863   6.319   1.606   3.714  0.2853 -0.8013 -0.1329
18483TIP3    H176864   6.343   1.598   3.621  0.2772 -0.0618 -0.1993
18483TIP3    H276865   6.401   1.591   3.761  0.7423  0.8632 -0.3322
18484TIP3   OH276866   6.754   5.879   1.959  0.6540 -0.5310  0.3757
18484TIP3    H176867   6.713   5.819   1.896 -1.0073  0.2653  0.6370
18484TIP3    H276868   6.711   5.860   2.042  2.4326 -1.1804  1.1915
18485TIP3   OH276869   2.162   0.616   5.720 -0.0507  0.5515  0.2065
18485TIP3    H176870   2.201   0.697   5.754  0.9671  0.2550 -0.1966
18485TIP3    H276871   2.101   0.645   5.652 -0.9332  1.0605  1.1851
18486TIP3   OH276872   0.180   0.460  16.178 -0.3147 -0.0657 -0.3898
18486TIP3    H176873   0.202   0.422  16.093 -0.4652 -0.6854 -0.1607
18486TIP3    H276874   0.119   0.398  16.217  1.7218 -1.1657  1.2783
18487TIP3   OH276875   5.644   6.763   3.218  0.1289 -0.5390 -0.2759
18487TIP3    H176876   5.594   6.797   3.144  0.2490  4.0534  1.4532
18487TIP3    H276877   5.720   6.821   3.225  0.7278 -1.5165  2.7345
18488TIP3   OH276878   3.283   0.695   3.702  0.1668  0.4172  0.0422
18488TIP3    H176879   3.299   0.623   3.641  1.1334  1.5149 -1.0698
18488TIP3    H276880   3.270   0.771   3.646 -0.8502  1.1268  1.1886
18489TIP3   OH276881   2.431   3.335  14.776  0.3590 -0.3422  0.6148
18489TIP3    H176882   2.414   3.273  14.705 -0.0088 -1.4410  1.6320
18489TIP3    H276883   2.502   3.296  14.826  0.9045  0.6334  0.6277
18490TIP3   OH276884   2.053   6.206   4.221  0.0395  0.2594  0.2368
18490TIP3    H176885   1.994   6.131   4.214 -0.0291  0.3134  0.2365
18490TIP3    H276886   2.037   6.256   4.141  1.1462 -0.4927 -0.4876
18491TIP3   OH276887   4.940   1.559  16.886  0.1418 -0.2886  0.0436
18491TIP3    H176888   4.924   1.645  16.850 -0.5221 -1.5977 -3.0647
18491TIP3    H276889   5.029   1.564  16.921  0.1215  1.5958 -0.0668
18492TIP3   OH276890   1.729   6.137   0.672 -0.3860 -0.3315 -0.1635
18492TIP3    H176891   1.803   6.187   0.706  1.4700 -3.9954  1.7362
18492TIP3    H276892   1.660   6.149   0.736 -0.9973  1.8713 -1.1546
18493TIP3   OH276893   4.158   0.882   4.825 -0.4205  0.5967 -0.5610
18493TIP3    H176894   4.091   0.890   4.757  0.5698  2.3313 -1.4024
18493TIP3    H276895   4.210   0.962   4.816 -0.0650  0.7404  2.0463
18494TIP3   OH276896   2.613   1.822  16.556  0.4356  0.2127 -0.7197
18494TIP3    H176897   2.518   1.811  16.558  0.5062 -0.6863  1.5203
18494TIP3    H276898   2.627   1.904  16.510 -1.5260  1.0350  0.0283
18495TIP3   OH276899   1.569   3.431  12.600  0.4947 -0.0475  0.1352
18495TIP3    H176900   1.550   3.405  12.510  0.7568  2.1364 -0.6295
18495TIP3    H276901   1.495   3.399  12.651  0.0296 -0.7861 -0.9592
18496TIP3   OH276902   1.775   3.540   1.432  0.1876  0.4246  0.5251
18496TIP3    H176903   1.842   3.600   1.463  0.2977 -0.6564  2.5271
18496TIP3    H276904   1.695   3.592   1.431  0.5974  1.0682  0.4485
18497TIP3   OH276905   1.818   6.342   2.254 -1.0149  0.1146  0.3946
18497TIP3    H176906   1.814   6.336   2.158  0.4660 -1.5474  0.3696
18497TIP3    H276907   1.872   6.419   2.271  0.8974 -1.0201 -0.2367
18498TIP3   OH276908   2.889   6.609  15.127  0.3537  0.2947 -0.7307
18498TIP3    H176909   2.833   6.588  15.053  0.2936 -3.5478  0.1828
18498TIP3    H276910   2.840   6.673  15.178 -1.3941  0.0264 -2.0041
18499TIP3   OH276911   2.461   2.694   3.337 -0.6979 -0.1196  0.5691
18499TIP3    H176912   2.399   2.761   3.364 -0.8754 -0.0902  0.1067
18499TIP3    H276913   2.532   2.742   3.294 -1.0404 -0.2457 -0.1672
18500TIP3   OH276914   0.866   2.726   2.851  0.3868 -0.8528  0.2005
18500TIP3    H176915   0.942   2.781   2.831  0.9455 -0.9086  1.9636
18500TIP3    H276916   0.901   2.655   2.905 -0.6599 -1.8370 -0.3589
18501TIP3   OH276917   5.236   0.879   0.722 -0.2415 -0.4394 -0.3220
18501TIP3    H176918   5.205   0.790   0.703 -1.8279  0.2243 -1.0253
18501TIP3    H276919   5.178   0.936   0.672  0.7238  1.0110  0.1448
18502TIP3   OH276920   2.487   5.032  13.527 -0.1945  0.6047  0.1155
18502TIP3    H176921   2.572   5.073  13.513  0.0783 -0.1598 -0.5704
18502TIP3    H276922   2.505   4.938  13.521 -0.8818  0.3826  1.1643
18503TIP3   OH276923   5.690   2.611   0.885  0.3464 -0.1293 -0.0609
18503TIP3    H176924   5.680   2.595   0.979  0.5188  0.8869  0.1434
18503TIP3    H276925   5.757   2.548   0.857 -1.2893 -1.9938  0.0128
18504TIP3   OH276926   5.509   4.724  11.895  0.4442 -0.3085  0.8255
18504TIP3    H176927   5.559   4.717  11.814  0.8714 -1.2618  1.1570
18504TIP3    H276928   5.513   4.637  11.934 -1.2000 -0.3322  1.0336
18505TIP3   OH276929   5.799   3.455  11.873  0.3027 -0.4665  0.4719
18505TIP3    H176930   5.749   3.381  11.839 -0.8484 -0.2144  1.5261
18505TIP3    H276931   5.883   3.450  11.828  0.0863 -2.1375  0.1794
18506TIP3   OH276932   1.911   6.631  12.686  0.3784 -0.1850  0.5360
18506TIP3    H176933   2.002   6.630  12.716  0.1076 -2.1982  1.4900
18506TIP3    H276934   1.905   6.557  12.627 -0.0313  1.5606 -1.7289
18507TIP3   OH276935   2.643   0.816  17.109 -0.6422 -0.1268  0.4258
18507TIP3    H176936   2.623   0.802  17.201  0.7636  2.1524  1.1500
18507TIP3    H276937   2.598   0.745  17.064 -0.4479 -1.9938  2.9412
18508TIP3   OH276938   6.392   3.949   0.468  0.2749 -0.0207 -0.5902
18508TIP3    H176939   6.382   3.941   0.373  1.7446 -2.2931 -0.6363
18508TIP3    H276940   6.302   3.943   0.502 -0.6056  3.3702 -1.8252
18509TIP3   OH276941   3.210   0.906  11.803  0.6605  0.2119  0.3319
18509TIP3    H176942   3.139   0.851  11.772  2.0717 -0.9749 -0.9054
18509TIP3    H276943   3.207   0.897  11.899  0.6666 -1.8046  0.1847
18510TIP3   OH276944   3.741   6.704   3.467  0.0861 -0.1749  0.0070
18510TIP3    H176945   3.777   6.737   3.385 -1.4849  2.5269  0.3131
18510TIP3    H276946   3.794   6.744   3.535  0.0721 -0.7387  0.3570
18511TIP3   OH276947   5.134   6.258   4.217 -0.2408  0.1076  0.3097
18511TIP3    H176948   5.073   6.275   4.146 -0.3774  1.3518  0.7096
18511TIP3    H276949   5.085   6.202   4.277 -0.7066  0.4205  0.2275
18512TIP3   OH276950   0.414   3.019   2.266  0.4138  0.8011  0.1886
18512TIP3    H176951   0.415   3.041   2.359 -0.0151  1.0241  0.1418
18512TIP3    H276952   0.443   3.099   2.222 -0.2628  0.9937  0.0766
18513TIP3   OH276953   1.286   0.373   3.581 -0.1927 -0.0379 -0.8430
18513TIP3    H176954   1.216   0.361   3.516 -0.5563 -0.7976 -0.3391
18513TIP3    H276955   1.316   0.284   3.600 -1.8969 -0.1479  1.9319
18514TIP3   OH276956   5.723   4.857   2.813 -0.1112  0.2255 -0.6928
18514TIP3    H176957   5.639   4.813   2.797  0.5894 -1.1226 -0.7680
18514TIP3    H276958   5.782   4.787   2.840  0.4532  1.4779  1.5621
18515TIP3   OH276959   2.150   0.511   0.822 -0.1131 -0.0052 -0.5594
18515TIP3    H176960   2.147   0.422   0.786  0.4146  0.4095 -1.6407
18515TIP3    H276961   2.077   0.512   0.885  1.2502 -1.9139  1.2130
18516TIP3   OH276962   4.708   5.366   0.923 -0.3086  0.1729  0.0752
18516TIP3    H176963   4.735   5.451   0.889  3.4493 -1.2930 -1.1309
18516TIP3    H276964   4.749   5.360   1.009  0.5562 -0.8409 -0.3771
18517TIP3   OH276965   4.610   2.331  11.060 -0.4021  0.2160 -0.2082
18517TIP3    H176966   4.672   2.322  10.987  0.2664 -0.6764  0.4486
18517TIP3    H276967   4.524   2.329  11.018 -0.0265 -0.1137 -0.9983
18518TIP3   OH276968   4.342   2.155  12.543  0.5569  0.6860 -0.1518
18518TIP3    H176969   4.325   2.061  12.538  1.6488  0.4859 -0.4832
18518TIP3    H276970   4.369   2.169  12.634  1.8808  0.3784 -0.4677
18519TIP3   OH276971   1.468   1.073  11.335 -0.2627  0.0320  0.1201
18519TIP3    H176972   1.560   1.047  11.341 -0.6751 -1.6601 -0.4290
18519TIP3    H276973   1.451   1.083  11.242 -0.4969  0.9398  0.2500
18520TIP3   OH276974   4.423   4.016  11.405  0.5450 -0.1290  0.0029
18520TIP3    H176975   4.363   3.997  11.333 -0.3550 -0.0336  0.7151
18520TIP3    H276976   4.500   4.053  11.362  1.8205 -3.9016 -1.3379
18521TIP3   OH276977   6.180   1.254   1.344  0.3736 -0.2416 -0.1302
18521TIP3    H176978   6.192   1.308   1.266 -0.4762  0.1475 -0.0144
18521TIP3    H276979   6.238   1.293   1.409 -2.2575  2.4417  0.8447
18522TIP3   OH276980   3.663   1.421   4.389 -0.4213 -0.1543 -0.2220
18522TIP3    H176981   3.697   1.480   4.456 -0.7908 -0.9560  0.6990
18522TIP3    H276982   3.740   1.376   4.355 -0.3050 -0.3786  0.3109
18523TIP3   OH276983   0.489   6.386   0.999 -0.3393  0.5125  0.1187
18523TIP3    H176984   0.470   6.348   0.914 -0.2182  0.2612  0.2038
18523TIP3    H276985   0.562   6.334   1.034 -1.8472 -0.8493  1.3649
18524TIP3   OH276986   1.969   5.873   1.361 -0.8820 -0.3268  0.2044
18524TIP3    H176987   1.914   5.904   1.289  0.3209 -1.9565 -1.5313
18524TIP3    H276988   1.933   5.787   1.384  0.0250 -0.7601  0.0486
18525TIP3   OH276989   0.265   6.495  12.132  0.0600  0.3116  0.2401
18525TIP3    H176990   0.276   6.501  12.037  0.6731  0.8075  0.3324
18525TIP3    H276991   0.230   6.407  12.146 -0.1514  0.2766 -0.4531
18526TIP3   OH276992   1.842   1.960   1.121 -0.1327 -0.5596 -0.0849
18526TIP3    H176993   1.751   1.964   1.149 -0.0393 -0.9818  0.2934
18526TIP3    H276994   1.890   2.012   1.186 -0.2989  1.0426 -1.1904
18527TIP3   OH276995   3.835   6.663   2.527  0.0273  0.2891 -0.2841
18527TIP3    H176996   3.766   6.600   2.547  0.3644  0.1380  0.4741
18527TIP3    H276997   3.859   6.645   2.436  0.1877 -0.7502 -0.0494
18528TIP3   OH276998   3.378   1.391  16.798 -0.3203 -0.4658  0.0406
18528TIP3    H176999   3.450   1.454  16.795 -0.2659 -0.5274  0.0508
18528TIP3    H277000   3.353   1.386  16.890 -1.5390  0.9168 -0.1755
18529TIP3   OH277001   0.359   2.098   3.099  0.4329  0.3718 -0.5950
18529TIP3    H177002   0.314   2.078   3.181 -1.8073 -0.5336 -1.9389
18529TIP3    H277003   0.424   2.028   3.089  1.0254  0.7401  0.5854
18530TIP3   OH277004   1.818   2.300   4.924 -0.5882 -0.4509  0.6556
18530TIP3    H177005   1.803   2.389   4.957 -0.5419 -1.0242  2.3519
18530TIP3    H277006   1.809   2.244   5.002  0.7125 -1.7904 -0.0996
18531TIP3   OH277007   5.518   4.795  13.226  0.0705 -0.0685 -0.1300
18531TIP3    H177008   5.574   4.806  13.149  1.9909 -0.6655  1.0855
18531TIP3    H277009   5.508   4.700  13.235  0.3838 -0.0356  0.6725
18532TIP3   OH277010   5.795   4.272   1.108 -0.1147  0.6444  0.0308
18532TIP3    H177011   5.795   4.185   1.069  0.5224  1.1122 -1.0470
18532TIP3    H277012   5.710   4.309   1.084 -1.8241 -0.7937  3.2000
18533TIP3   OH277013   1.610   4.978  13.780  0.0747 -0.3499 -0.0030
18533TIP3    H177014   1.606   5.068  13.813  2.0789 -0.6873  1.3439
18533TIP3    H277015   1.556   4.928  13.842  0.5278 -0.3502  0.4018
18534TIP3   OH277016   5.518   5.935  16.797 -0.3179 -0.0393  0.2777
18534TIP3    H177017   5.484   5.858  16.841 -1.2422 -0.4878 -1.1599
18534TIP3    H277018   5.496   6.008  16.855  1.2670 -0.8858  2.0403
18535TIP3   OH277019   1.224   5.529   3.427 -0.2453 -0.5349 -0.1121
18535TIP3    H177020   1.270   5.529   3.510 -0.2590  0.8552 -0.0712
18535TIP3    H277021   1.250   5.612   3.386 -0.2690 -1.1765 -1.4737
18536TIP3   OH277022   4.694   0.386  13.779 -0.1402  0.3240  0.4860
18536TIP3    H177023   4.615   0.333  13.772  0.2327 -0.2452  0.5498
18536TIP3    H277024   4.720   0.379  13.870  0.1319  0.3015  0.4074
18537TIP3   OH277025   3.104   0.695   6.261  0.4426  0.2758  0.2310
18537TIP3    H177026   3.147   0.778   6.243  0.7130  0.1185  0.1418
18537TIP3    H277027   3.171   0.629   6.244 -0.1094 -0.0274 -0.8090
18538TIP3   OH277028   5.042   3.052   1.924  0.1874 -0.2497  0.2115
18538TIP3    H177029   5.028   2.994   1.849  1.9681 -0.3209 -0.1167
18538TIP3    H277030   4.958   3.095   1.938 -0.6408 -1.5049 -0.7404
18539TIP3   OH277031   6.353   3.401  13.936  0.0234 -0.1942  0.8394
18539TIP3    H177032   6.368   3.362  13.850 -2.0380  1.4695 -0.3703
18539TIP3    H277033   6.401   3.484  13.933 -0.4601  0.0977  1.0939
18540TIP3   OH277034   5.988   6.465  16.317 -0.4263  0.3177  0.3754
18540TIP3    H177035   5.959   6.444  16.406 -0.5614  1.6935  0.6823
18540TIP3    H277036   5.911   6.448  16.262 -0.0243 -1.5817  0.3206
18541TIP3   OH277037   5.807   2.455  11.693 -0.3230 -0.0646 -0.8473
18541TIP3    H177038   5.746   2.390  11.659  0.3873 -0.3231 -1.6614
18541TIP3    H277039   5.795   2.453  11.788 -0.7652 -0.9161 -0.9166
18542TIP3   OH277040   1.959   3.683  13.402 -0.1564  0.6012  0.3090
18542TIP3    H177041   1.901   3.752  13.433 -1.6871 -1.1835  1.6161
18542TIP3    H277042   1.979   3.630  13.479 -1.5612 -2.1905 -1.0769
18543TIP3   OH277043   6.320   3.559   6.137  0.4259 -0.5083 -0.4009
18543TIP3    H177044   6.394   3.537   6.081  0.0785  0.1967 -1.1662
18543TIP3    H277045   6.318   3.655   6.138  0.1162 -0.5181  0.4029
18544TIP3   OH277046   3.545   5.312  13.203  0.1652 -0.5462 -0.1392
18544TIP3    H177047   3.490   5.342  13.131  0.5626  0.1180 -0.1743
18544TIP3    H277048   3.626   5.283  13.161  0.7734  0.7237  0.0878
18545TIP3   OH277049   4.835   1.136  15.944 -0.5092  0.2134  0.2631
18545TIP3    H177050   4.888   1.116  15.866 -2.7994  0.9142 -1.5786
18545TIP3    H277051   4.834   1.231  15.949 -1.5796  0.2109  0.2559
18546TIP3   OH277052   5.314   4.756  12.899  0.0830  0.6911 -0.0805
18546TIP3    H177053   5.347   4.796  12.819 -0.3077  0.5384 -0.3243
18546TIP3    H277054   5.286   4.829  12.954  0.5573  0.8066  0.0128
18547TIP3   OH277055   1.307   1.691   4.910 -0.5887 -0.4928  0.4199
18547TIP3    H177056   1.399   1.690   4.883 -0.5083 -1.1837  0.6926
18547TIP3    H277057   1.289   1.782   4.931 -0.2283 -0.1960 -0.5222
18548TIP3   OH277058   6.335   5.273   2.230 -0.3934  0.3469 -0.2448
18548TIP3    H177059   6.417   5.225   2.218 -0.1066  0.7675  0.0033
18548TIP3    H277060   6.362   5.359   2.262 -0.9348  0.4761 -0.1230
18549TIP3   OH277061   3.310   2.007   2.502 -0.3645  0.1858 -0.4220
18549TIP3    H177062   3.363   2.063   2.445  0.5965  1.7480  1.8578
18549TIP3    H277063   3.232   2.060   2.520 -0.0882  0.2332  0.6613
18550TIP3   OH277064   5.135   3.728   3.000 -0.0861  0.2716  0.0380
18550TIP3    H177065   5.171   3.816   3.008  0.5236 -0.0289  0.6568
18550TIP3    H277066   5.105   3.706   3.088 -4.0271  1.4084 -0.8038
18551TIP3   OH277067   1.206   2.218   4.249  0.1085 -0.0889  0.6129
18551TIP3    H177068   1.124   2.191   4.207 -0.6788 -0.7052  2.4257
18551TIP3    H277069   1.274   2.183   4.193 -0.9003 -1.5147  0.2126
18552TIP3   OH277070   1.271   1.127   1.182  0.1468 -0.0291  0.2331
18552TIP3    H177071   1.176   1.124   1.166 -0.1813  2.6036  1.1821
18552TIP3    H277072   1.310   1.088   1.104 -1.6838  0.7136 -1.1200
18553TIP3   OH277073   6.579   0.366   3.544  0.0387  0.0140  0.2609
18553TIP3    H177074   6.618   0.300   3.487  1.2793 -0.1950  1.3126
18553TIP3    H277075   6.651   0.424   3.567 -0.9228  1.4726 -0.2349
18554TIP3   OH277076   3.252   3.263   0.598 -0.0471 -0.4109 -0.3398
18554TIP3    H177077   3.276   3.249   0.690  1.0134  0.6348 -0.4453
18554TIP3    H277078   3.175   3.207   0.585 -2.7607  2.3197  2.2743
18555TIP3   OH277079   2.116   4.557   5.384  0.2136  0.2394 -0.2903
18555TIP3    H177080   2.077   4.628   5.334  1.2136  0.7182 -0.4132
18555TIP3    H277081   2.067   4.479   5.357  0.5620  0.5273 -1.8241
18556TIP3   OH277082   1.773   1.041  15.081 -0.3009 -0.5843 -0.1358
18556TIP3    H177083   1.750   0.972  15.143 -0.6570  0.9177  1.4911
18556TIP3    H277084   1.738   1.121  15.120  0.3741  0.5782 -1.7919
18557TIP3   OH277085   2.969   3.273  14.256 -0.2722  0.2276  0.0861
18557TIP3    H177086   2.993   3.201  14.197  1.0297  0.2295  0.5710
18557TIP3    H277087   2.874   3.277  14.252 -0.2929 -0.7227 -0.8941
18558TIP3   OH277088   6.329   0.510  15.380  0.0330  0.6688  0.2053
18558TIP3    H177089   6.424   0.512  15.395  0.5067  0.4109 -2.2596
18558TIP3    H277090   6.312   0.420  15.350 -0.6729  1.1596 -0.9374
18559TIP3   OH277091   4.317   6.201  12.799  0.0016  0.3418 -0.2220
18559TIP3    H177092   4.352   6.285  12.826 -3.0850  1.0284  2.3130
18559TIP3    H277093   4.315   6.205  12.704  1.0238  2.6616 -0.2024
18560TIP3   OH277094   0.031   1.902   4.608 -0.2975 -0.3070 -0.0206
18560TIP3    H177095   0.006   1.914   4.699 -0.5250  0.0942 -0.1365
18560TIP3    H277096  -0.024   1.831   4.577 -3.1047  2.0912 -0.9618
18561TIP3   OH277097   1.391   5.671   4.120 -0.9107  0.1700  0.8081
18561TIP3    H177098   1.384   5.665   4.215 -0.1997 -1.0829  0.8094
18561TIP3    H277099   1.315   5.723   4.093 -0.5435  1.4394  2.1327
18562TIP3   OH277100   5.685   5.796   4.196 -0.3005  0.8671  0.7999
18562TIP3    H177101   5.732   5.842   4.127 -0.1105  0.0809  0.4005
18562TIP3    H277102   5.593   5.818   4.181 -0.2670  0.6498  0.2586
18563TIP3   OH277103   0.289   0.957  10.321 -0.0683 -0.1415 -0.5833
18563TIP3    H177104   0.315   1.048  10.314 -1.0712  0.3001  0.8276
18563TIP3    H277105   0.360   0.914  10.369 -0.2266  0.2281 -0.0075
18564TIP3   OH277106   1.382   6.463   4.562  0.5062 -0.1257 -0.0238
18564TIP3    H177107   1.313   6.501   4.616 -0.5850 -0.1225 -1.3783
18564TIP3    H277108   1.437   6.537   4.535 -0.3669  0.2233 -0.8927
18565TIP3   OH277109   4.347   5.440  13.292  0.2323 -0.1884  0.1807
18565TIP3    H177110   4.301   5.356  13.292 -0.7621  0.3433  1.0475
18565TIP3    H277111   4.340   5.471  13.202  0.0840 -0.7507 -0.0038
18566TIP3   OH277112   6.281   3.835  12.414  0.3058  0.1297  0.5172
18566TIP3    H177113   6.219   3.819  12.485  0.7369 -1.1298  0.6283
18566TIP3    H277114   6.269   3.927  12.392 -1.2173  0.0413  0.9007
18567TIP3   OH277115   0.934   1.705  15.967 -1.5757 -0.0203  0.3012
18567TIP3    H177116   1.028   1.712  15.985 -1.2279 -1.0798 -0.9150
18567TIP3    H277117   0.892   1.745  16.043 -0.1474  0.1615  1.0343
18568TIP3   OH277118   1.756   1.505   5.929  0.2443  0.2431 -0.0768
18568TIP3    H177119   1.693   1.439   5.899  0.9793 -0.6369  0.2346
18568TIP3    H277120   1.714   1.589   5.911 -1.4097 -0.3105  0.9887
18569TIP3   OH277121   1.943   5.752   2.556  0.1174  0.0109  0.1046
18569TIP3    H177122   1.918   5.742   2.464  0.1456  0.5454  0.0387
18569TIP3    H277123   1.876   5.703   2.604  0.5598 -0.9594 -0.2429
18570TIP3   OH277124   2.202   5.428  11.563 -0.7730  0.0692 -0.7869
18570TIP3    H177125   2.157   5.511  11.550  0.0424  0.6018 -0.3139
18570TIP3    H277126   2.140   5.362  11.532 -1.2929  0.8720 -1.5129
18571TIP3   OH277127   0.530   6.445  12.236  0.0365 -0.0747  0.2707
18571TIP3    H177128   0.436   6.434  12.218 -0.1375 -0.7784  1.5054
18571TIP3    H277129   0.564   6.355  12.235  0.2094 -0.0726  2.2666
18572TIP3   OH277130   4.861   2.856   0.173  0.5677 -0.4710  0.1035
18572TIP3    H177131   4.905   2.851   0.258  0.6100  1.4300  0.2540
18572TIP3    H277132   4.826   2.946   0.170 -1.0157 -1.0711 -1.1254
18573TIP3   OH277133   3.162   5.315   3.735 -0.0399 -0.6654 -0.4920
18573TIP3    H177134   3.112   5.372   3.794  0.4318 -0.3261 -0.4108
18573TIP3    H277135   3.103   5.242   3.717 -1.3109  0.6207 -1.9026
18574TIP3   OH277136   6.121   5.339  13.336  0.3835 -0.0953 -0.2788
18574TIP3    H177137   6.030   5.325  13.309 -0.1373  0.4316  1.0798
18574TIP3    H277138   6.152   5.252  13.361  1.0003 -0.6574 -2.7830
18575TIP3   OH277139   4.490   3.471  12.664  0.1757 -0.4951  0.6066
18575TIP3    H177140   4.463   3.485  12.573  2.1021 -1.6792 -0.2079
18575TIP3    H277141   4.476   3.556  12.706  1.0082  0.6415 -1.2826
18576TIP3   OH277142   5.104   3.238  12.649 -0.6448 -0.1084  0.7507
18576TIP3    H177143   5.087   3.321  12.693  1.8069 -0.4671  2.6059
18576TIP3    H277144   5.117   3.175  12.721  0.0215 -1.5208 -0.5534
18577TIP3   OH277145   0.013   6.100  13.971 -0.7242  0.0219  0.6248
18577TIP3    H177146   0.059   6.038  14.028  1.7194 -0.4840 -1.6713
18577TIP3    H277147  -0.052   6.046  13.926 -0.7577 -0.1847  0.9146
18578TIP3   OH277148   4.553   1.483   0.602  0.3540 -0.4907 -0.3732
18578TIP3    H177149   4.551   1.400   0.650 -0.6166 -0.0338  0.4296
18578TIP3    H277150   4.463   1.516   0.608  0.2948 -0.2041 -2.1733
18579TIP3   OH277151   2.412   0.076  14.106  0.0974 -0.5152  0.1380
18579TIP3    H177152   2.453  -0.010  14.107  3.4556  0.9472 -0.1519
18579TIP3    H277153   2.456   0.125  14.176 -1.3861  1.1277  0.0050
18580TIP3   OH277154   1.365   4.804  12.150 -0.4798 -0.4953  0.0538
18580TIP3    H177155   1.357   4.841  12.062 -1.2844 -0.8192 -0.0214
18580TIP3    H277156   1.298   4.849  12.201 -0.7514 -1.0698  0.2215
18581TIP3   OH277157   5.040   4.072   0.613  0.0359 -0.4950  0.0220
18581TIP3    H177158   5.079   4.008   0.554 -2.7267 -1.6048 -0.7469
18581TIP3    H277159   5.076   4.156   0.584  1.0326 -1.3199 -1.2408
18582TIP3   OH277160   1.928   1.822  11.588  0.5521 -0.3538 -0.6351
18582TIP3    H177161   1.881   1.892  11.541 -1.7643 -2.3513 -1.5086
18582TIP3    H277162   1.998   1.797  11.528  0.8188  0.5685 -0.7264
18583TIP3   OH277163   1.637   2.061   2.709 -0.6441  0.4796  0.1147
18583TIP3    H177164   1.560   2.082   2.657 -0.8133 -1.0079 -0.2875
18583TIP3    H277165   1.698   2.132   2.691 -1.7620  1.4701  0.1371
18584TIP3   OH277166   0.548   3.146  15.021 -0.4884 -1.3142 -0.0315
18584TIP3    H177167   0.463   3.137  15.064 -0.6181 -0.6260 -0.1479
18584TIP3    H277168   0.532   3.205  14.948  0.1981 -0.7715  0.2471
18585TIP3   OH277169   6.152   6.191   1.197  0.4736  0.3982 -0.1174
18585TIP3    H177170   6.078   6.251   1.189  0.6255  0.4066 -1.9044
18585TIP3    H277171   6.131   6.136   1.273 -1.7019 -0.0595 -0.9711
18586TIP3   OH277172   0.871   1.201  12.764  0.1548 -0.2343 -0.3266
18586TIP3    H177173   0.937   1.270  12.760  0.9832 -1.0493 -2.0741
18586TIP3    H277174   0.862   1.181  12.857 -0.9803  2.9744  0.3603
18587TIP3   OH277175   5.274   0.929   4.605  0.6601 -0.7089  0.4144
18587TIP3    H177176   5.248   0.855   4.660  0.1306 -0.3388  0.6652
18587TIP3    H277177   5.300   0.997   4.667 -1.3635  0.2513  0.3015
18588TIP3   OH277178   4.330   6.715  15.164  0.3259 -0.0725  0.2229
18588TIP3    H177179   4.372   6.647  15.112 -0.4326  1.1243 -2.0615
18588TIP3    H277180   4.398   6.741  15.227  2.5578  0.7337 -2.3334
18589TIP3   OH277181   2.154   2.715   5.441 -0.4685 -0.4276 -0.1137
18589TIP3    H177182   2.092   2.757   5.501  0.2151 -1.1885  1.1918
18589TIP3    H277183   2.100   2.654   5.391 -0.9398 -0.3717  0.3117
18590TIP3   OH277184   1.664   5.407  17.191  0.1546 -0.1982 -0.3247
18590TIP3    H177185   1.651   5.324  17.146  0.9427  0.7261 -2.4043
18590TIP3    H277186   1.576   5.444  17.201 -0.0434 -0.4569 -1.0808
18591TIP3   OH277187   3.750   6.382   3.741  0.6555 -0.4541  0.2643
18591TIP3    H177188   3.661   6.408   3.764  1.2874  2.7731 -0.3628
18591TIP3    H277189   3.803   6.407   3.816  1.3313  0.0873 -0.3703
18592TIP3   OH277190   5.115   4.893  16.756  0.3745  0.2804  0.2231
18592TIP3    H177191   5.205   4.878  16.726  0.1347  0.5640 -0.6744
18592TIP3    H277192   5.102   4.987  16.746 -0.1614  0.1774 -0.0644
18593TIP3   OH277193   2.096   0.569  13.602  0.8252 -0.3653  0.6240
18593TIP3    H177194   2.075   0.494  13.657  2.1704  0.0969  1.8181
18593TIP3    H277195   2.171   0.611  13.645  1.3063  0.5743 -1.0362
18594TIP3   OH277196   1.855   5.697  15.070  0.3246 -0.3442 -0.1426
18594TIP3    H177197   1.781   5.638  15.083 -0.4049  0.7642  0.8247
18594TIP3    H277198   1.929   5.651  15.109 -0.0852 -0.9305 -0.0419
18595TIP3   OH277199   5.451   3.945   2.104 -0.3470 -0.1730  0.0616
18595TIP3    H177200   5.415   3.871   2.053 -1.2551 -0.8955  1.6894
18595TIP3    H277201   5.455   3.912   2.193 -1.0272  1.8463  0.8891
18596TIP3   OH277202   2.644   5.587  12.807  0.0869 -0.0101  0.0093
18596TIP3    H177203   2.663   5.511  12.751 -0.2925 -0.7228  0.8179
18596TIP3    H277204   2.566   5.561  12.857  0.7967  0.3231  1.3397
18597TIP3   OH277205   4.775   1.938  12.373  0.2411  0.2511  0.4253
18597TIP3    H177206   4.841   2.005  12.355 -0.2109  1.0351  1.5651
18597TIP3    H277207   4.751   1.951  12.465 -1.2625 -0.2128  0.1363
18598TIP3   OH277208   0.850   0.569  12.844  0.0997  0.5055  0.0350
18598TIP3    H177209   0.905   0.551  12.920 -0.5675  2.3032  1.0208
18598TIP3    H277210   0.885   0.513  12.775  0.6806 -1.2533  1.6592
18599TIP3   OH277211   4.731   5.641   1.061  0.0101 -0.3688 -0.4332
18599TIP3    H177212   4.720   5.732   1.089 -0.1716 -0.5531  0.0948
18599TIP3    H277213   4.718   5.644   0.966 -0.4979  0.0749 -0.3570
18600TIP3   OH277214   0.785   0.250  12.726  0.5842  0.1563  0.0744
18600TIP3    H177215   0.842   0.313  12.682  0.4255  0.1966 -0.0702
18600TIP3    H277216   0.773   0.180  12.662  0.8134 -0.0540  0.2574
18601TIP3   OH277217   1.780   2.866   3.876 -0.4589 -0.2952 -0.1738
18601TIP3    H177218   1.866   2.871   3.916  0.1560 -0.8194 -1.3710
18601TIP3    H277219   1.789   2.910   3.792 -1.1414 -1.0029 -0.6476
18602TIP3   OH277220   4.943   3.853  10.812  0.5698 -0.1809 -0.0379
18602TIP3    H177221   4.941   3.764  10.779  0.9094 -0.8658  1.6621
18602TIP3    H277222   4.868   3.896  10.772 -0.4406 -1.6544  0.2095
18603TIP3   OH277223   4.847   2.067   6.151 -0.0913 -0.1908  0.1342
18603TIP3    H177224   4.815   2.062   6.060 -0.9278 -1.2584  0.4516
18603TIP3    H277225   4.826   1.981   6.187 -0.5051  0.4917  1.5807
18604TIP3   OH277226   2.611   0.289  10.979  0.2966 -0.3147 -0.0776
18604TIP3    H177227   2.683   0.335  11.021  0.6385  2.0472 -2.9596
18604TIP3    H277228   2.534   0.343  10.996 -0.6290 -2.1267  1.8568
18605TIP3   OH277229   4.241   0.691   3.075 -0.1563 -0.0440  0.0562
18605TIP3    H177230   4.254   0.761   3.011 -1.1172  0.1541  0.0659
18605TIP3    H277231   4.325   0.644   3.075  0.5961  1.2448  0.2509
18606TIP3   OH277232   6.198   5.573  13.480 -0.0667  0.3192  0.1252
18606TIP3    H177233   6.181   5.514  13.406  0.1053  0.1790  0.1975
18606TIP3    H277234   6.286   5.549  13.510 -1.0271 -1.2612  1.8924
18607TIP3   OH277235   5.954   1.195   2.273 -0.0157 -0.8708  0.1794
18607TIP3    H177236   5.951   1.157   2.186  1.8113  1.7437 -1.1541
18607TIP3    H277237   5.907   1.278   2.265  1.7188  0.2737  1.1176
18608TIP3   OH277238   3.392   6.428   6.156  0.3649 -0.4561 -0.7855
18608TIP3    H177239   3.362   6.455   6.069 -0.3044 -0.2216 -0.4961
18608TIP3    H277240   3.392   6.333   6.154 -1.7889 -0.5170 -0.3778
18609TIP3   OH277241   4.745   6.657   3.141  0.1050  0.1330 -0.2648
18609TIP3    H177242   4.793   6.604   3.078 -0.7427 -1.2584  0.2033
18609TIP3    H277243   4.676   6.599   3.173 -0.3950  1.2882  0.8434
18610TIP3   OH277244   3.633   1.520   0.110 -0.1828  0.2897 -0.4056
18610TIP3    H177245   3.578   1.484   0.179 -1.6693  0.4498 -1.4744
18610TIP3    H277246   3.703   1.455   0.100 -2.7422 -2.4366 -2.2363
18611TIP3   OH277247   0.188   1.881  17.317 -0.7331  0.3761  0.2863
18611TIP3    H177248   0.106   1.920  17.285  0.3855  2.4327 -0.2940
18611TIP3    H277249   0.160   1.815  17.380 -2.8453  1.2770  0.3954
18612TIP3   OH277250   4.251   3.500   4.272 -0.6977 -0.3856 -0.0939
18612TIP3    H177251   4.192   3.439   4.228 -1.3898 -0.2775  0.6788
18612TIP3    H277252   4.196   3.547   4.333 -0.1698  1.0494 -0.6883
18613TIP3   OH277253   6.751   2.417  15.715  0.1619 -0.1903 -0.1461
18613TIP3    H177254   6.806   2.395  15.790 -0.2548 -0.9342 -0.0563
18613TIP3    H277255   6.662   2.394  15.742 -0.1075  0.3686 -0.5425
18614TIP3   OH277256   3.843   1.918   2.475  0.2176 -0.4349  0.0036
18614TIP3    H177257   3.863   1.903   2.383 -0.0839  0.9361 -0.3023
18614TIP3    H277258   3.925   1.899   2.521 -0.1016 -2.8475 -0.3172
18615TIP3   OH277259   5.496   2.983   4.683  0.1157 -0.1227  0.0818
18615TIP3    H177260   5.423   3.017   4.631  0.3810 -1.0122 -0.9141
18615TIP3    H277261   5.516   3.053   4.746 -1.2430  0.3399  0.0261
18616TIP3   OH277262   5.869   0.820  15.949  0.2837 -0.3394  0.2480
18616TIP3    H177263   5.816   0.898  15.965 -0.1339 -0.5957  0.1662
18616TIP3    H277264   5.902   0.830  15.860 -1.6300 -1.2758 -0.6428
18617TIP3   OH277265   2.040   1.816  15.127 -0.2447 -0.1982 -0.0391
18617TIP3    H177266   2.113   1.865  15.089  0.2219 -0.7016  0.1789
18617TIP3    H277267   2.046   1.833  15.221  0.0273 -0.7837  0.0602
18618TIP3   OH277268   0.574   4.853   3.293 -0.1152  0.1262  0.2263
18618TIP3    H177269   0.540   4.839   3.382 -2.6882  1.1638 -0.4893
18618TIP3    H277270   0.596   4.766   3.262  1.4585 -0.1983  2.0636
18619TIP3   OH277271   2.701   5.376   3.353  0.2416 -0.1975  0.2497
18619TIP3    H177272   2.645   5.449   3.381  0.9314  0.5383 -0.2255
18619TIP3    H277273   2.787   5.398   3.389  0.8725  0.1650 -1.4186
18620TIP3   OH277274   0.539   3.704  16.450  0.3966  0.4516  0.6607
18620TIP3    H177275   0.592   3.784  16.452  0.4194  0.4308  1.2270
18620TIP3    H277276   0.587   3.642  16.505 -0.0297  0.3173  0.8901
18621TIP3   OH277277   0.611   4.562   2.532  0.3965 -0.0965 -0.2462
18621TIP3    H177278   0.687   4.619   2.534  0.0346  0.3792  0.7864
18621TIP3    H277279   0.645   4.477   2.506  1.4924 -0.1701  1.2911
18622TIP3   OH277280   5.639   4.211   2.260  0.6792 -0.2344 -0.4507
18622TIP3    H177281   5.635   4.305   2.278  3.3435 -0.2063  0.3542
18622TIP3    H277282   5.547   4.185   2.250 -0.2407  2.1128  1.0374
18623TIP3   OH277283   0.149   5.657   1.057 -0.1924 -0.2230 -0.1155
18623TIP3    H177284   0.129   5.564   1.067  0.1813 -0.2218  0.6752
18623TIP3    H277285   0.202   5.661   0.977  1.5878 -0.9841  0.9585
18624TIP3   OH277286   3.233   4.909   5.313  0.4399  0.4767 -0.1413
18624TIP3    H177287   3.287   4.960   5.374  0.4099 -1.5424  1.6955
18624TIP3    H277288   3.284   4.831   5.294 -1.0430 -0.6295  0.2001
18625TIP3   OH277289   0.588   1.957  14.890  0.2651  0.2247  0.0843
18625TIP3    H177290   0.495   1.947  14.872  0.5605 -1.3005 -0.7889
18625TIP3    H277291   0.592   1.983  14.982 -1.0079  0.3698  0.1199
18626TIP3   OH277292   2.373   3.650   5.986 -0.4796  0.0409  0.0825
18626TIP3    H177293   2.468   3.636   5.985 -0.4196  0.4125 -1.1979
18626TIP3    H277294   2.347   3.633   6.077  0.9721  1.0395  0.7114
18627TIP3   OH277295   5.026   2.285  16.805  0.1739  0.3850  0.2839
18627TIP3    H177296   4.940   2.282  16.763  0.4076  1.2236 -0.2788
18627TIP3    H277297   5.008   2.276  16.899 -0.6233  1.5898  0.2621
18628TIP3   OH277298   5.108   6.575  16.320 -0.5668 -0.1424  0.0468
18628TIP3    H177299   5.097   6.492  16.272  3.1247 -0.7048 -0.0807
18628TIP3    H277300   5.085   6.642  16.256 -0.4760 -0.9866 -0.9047
18629TIP3   OH277301   0.091   0.792  17.308 -0.2818 -0.9027  0.2040
18629TIP3    H177302   0.165   0.827  17.357 -0.2201 -0.5471 -0.1364
18629TIP3    H277303   0.091   0.698  17.327 -0.7125 -0.6510  1.4751
18630TIP3   OH277304   4.472   3.377  16.672 -0.7999 -0.5580  0.0026
18630TIP3    H177305   4.472   3.298  16.726 -0.2268  0.5742  1.7527
18630TIP3    H277306   4.554   3.372  16.622 -0.7320 -1.0380  0.1596
18631TIP3   OH277307   0.509   6.172  16.009 -0.0082 -0.7207 -0.1672
18631TIP3    H177308   0.425   6.172  16.056  1.1189  0.2651  1.9972
18631TIP3    H277309   0.522   6.081  15.982 -2.4181 -0.6509 -1.8864
18632TIP3   OH277310   4.514   2.567   5.930 -0.6418 -0.0953  0.0287
18632TIP3    H177311   4.434   2.585   5.880 -1.4743  2.5644  2.0720
18632TIP3    H277312   4.540   2.479   5.903 -2.2448  0.3269 -3.3084
18633TIP3   OH277313   1.477   1.602   4.549  0.5413  0.4100 -0.3978
18633TIP3    H177314   1.463   1.695   4.565  0.9880  0.3543  0.3528
18633TIP3    H277315   1.397   1.573   4.505 -0.0698  0.9115  0.3564
18634TIP3   OH277316   3.566   3.723   4.643 -0.0589 -0.7230  0.0645
18634TIP3    H177317   3.565   3.815   4.615 -3.5164 -1.0176 -1.2454
18634TIP3    H277318   3.599   3.726   4.733 -0.9456  1.9646  0.3941
18635TIP3   OH277319   4.088   5.726  12.878  0.0936 -0.3085 -0.2736
18635TIP3    H177320   4.027   5.794  12.907 -0.6507 -1.6274  1.4435
18635TIP3    H277321   4.032   5.657  12.842  0.5228 -1.4968  1.2447
18636TIP3   OH277322   2.539   1.976   2.771  0.0802  0.8119  0.3420
18636TIP3    H177323   2.485   1.947   2.698  0.7131  0.0437  0.1758
18636TIP3    H277324   2.477   1.988   2.843 -0.2138 -1.0266  0.4400
18637TIP3   OH277325   4.722   5.790   0.604 -0.7429  0.3748 -0.8520
18637TIP3    H177326   4.663   5.732   0.557 -0.1988 -0.7903 -0.1482
18637TIP3    H277327   4.782   5.823   0.537 -1.1971  0.3022 -1.2972
18638TIP3   OH277328   1.242   1.042   3.686  0.4233  0.1664  0.4552
18638TIP3    H177329   1.284   1.007   3.607 -1.4606 -1.1705 -0.0323
18638TIP3    H277330   1.177   1.104   3.654  0.7762  0.8763  1.0785
18639TIP3   OH277331   2.926   2.439  17.308  0.4224  0.3814 -0.7182
18639TIP3    H177332   2.872   2.517  17.322  2.7311  2.3368 -1.9266
18639TIP3    H277333   2.946   2.440  17.215  0.4517 -1.7476 -0.7707
18640TIP3   OH277334   4.817   0.875   3.613 -0.1484  0.5183  0.5224
18640TIP3    H177335   4.769   0.940   3.664  0.1970  1.2667 -0.0751
18640TIP3    H277336   4.762   0.860   3.536  1.0425  2.2687 -0.7658
18641TIP3   OH277337   5.604   1.257   1.145 -0.1725 -0.1840  0.4287
18641TIP3    H177338   5.651   1.173   1.144  1.3861  0.6202 -1.8182
18641TIP3    H277339   5.657   1.314   1.201  0.5203  0.1649 -0.5556
18642TIP3   OH277340   3.965   4.315   4.519 -0.2581  0.2753  0.5827
18642TIP3    H177341   3.952   4.261   4.597 -2.4215  0.7601  0.6281
18642TIP3    H277342   3.918   4.270   4.450  1.6374 -0.1464 -0.5156
18643TIP3   OH277343   1.250   1.100   0.791 -0.0265  0.0726  0.6297
18643TIP3    H177344   1.337   1.067   0.815 -0.3673 -1.0741  0.3780
18643TIP3    H277345   1.254   1.110   0.696 -0.4353 -0.8852  0.4933
18644TIP3   OH277346   3.120   6.199   6.028 -0.2007  0.0820 -0.0838
18644TIP3    H177347   3.189   6.263   6.009  0.0610 -0.0604  0.3535
18644TIP3    H277348   3.060   6.204   5.954 -0.0085  0.6028 -0.2056
18645TIP3   OH277349   4.851   2.654  12.316 -0.7665  0.4679  0.3711
18645TIP3    H177350   4.834   2.629  12.225  0.2319 -1.5511  0.6997
18645TIP3    H277351   4.935   2.701  12.313  0.0962 -1.0235  0.4280
18646TIP3   OH277352   2.325   5.015   4.026 -0.2038  0.1499 -0.4538
18646TIP3    H177353   2.254   5.076   4.003  0.2272  0.9136  0.1791
18646TIP3    H277354   2.390   5.027   3.957  0.0517  0.7149 -0.1282
18647TIP3   OH277355   4.365   3.126  15.142 -0.6324 -0.3325 -0.6609
18647TIP3    H177356   4.278   3.105  15.176 -0.6063 -0.3446 -0.6006
18647TIP3    H277357   4.365   3.091  15.053 -0.7449 -0.1876 -0.7173
18648TIP3   OH277358   3.671   5.932  11.550 -0.6781 -0.5338 -0.6558
18648TIP3    H177359   3.670   5.908  11.643 -1.5033  0.5846 -0.3531
18648TIP3    H277360   3.718   5.860  11.507  0.6652 -0.5537  0.7575
18649TIP3   OH277361   0.369   1.531  13.379  0.4860 -0.5474  0.5137
18649TIP3    H177362   0.281   1.550  13.411 -0.5251 -1.8145 -1.3470
18649TIP3    H277363   0.359   1.453  13.324  2.4993  0.1261 -0.9441
18650TIP3   OH277364   3.967   1.360   6.696  0.1449  0.0978 -0.0281
18650TIP3    H177365   4.063   1.360   6.691  0.1085 -0.1546 -0.9151
18650TIP3    H277366   3.944   1.452   6.711  0.4609  0.4521 -1.5619
18651TIP3   OH277367   5.962   4.981   0.226 -0.7466  0.0675  0.2752
18651TIP3    H177368   6.011   4.980   0.144 -0.0572  0.7584  0.6674
18651TIP3    H277369   5.908   5.060   0.221  0.1116  0.7115  0.9423
18652TIP3   OH277370   1.654   2.210   4.594  0.0677 -0.5903 -0.6677
18652TIP3    H177371   1.607   2.160   4.660  0.5436 -1.5862 -1.0703
18652TIP3    H277372   1.736   2.236   4.636 -0.4288  0.3813 -0.2644
18653TIP3   OH277373   3.055   2.529   0.559  0.3795 -0.2965  0.4652
18653TIP3    H177374   3.121   2.464   0.585 -0.2594 -0.8589  0.7229
18653TIP3    H277375   3.101   2.588   0.499  0.7257 -1.5787 -0.5780
18654TIP3   OH277376   0.818   0.940  17.061  0.0373  0.5389 -0.4639
18654TIP3    H177377   0.841   1.032  17.051 -0.6792  0.9942  1.5483
18654TIP3    H277378   0.724   0.940  17.079 -0.0141 -0.5986 -0.6626
18655TIP3   OH277379   5.165   1.817  14.089 -0.0753 -0.1504  0.3052
18655TIP3    H177380   5.107   1.893  14.096  0.9746  0.7777 -0.7766
18655TIP3    H277381   5.149   1.767  14.170 -0.1785  1.6428  1.4450
18656TIP3   OH277382   4.391   4.451  12.866  0.1875 -0.4277  0.2876
18656TIP3    H177383   4.357   4.405  12.789  0.0316  0.1343  0.0130
18656TIP3    H277384   4.483   4.467  12.845  0.1875 -0.4226  0.2917
18657TIP3   OH277385   3.484   0.111   4.887  0.5651  0.2542  0.4169
18657TIP3    H177386   3.404   0.163   4.897  1.1069  0.9237  1.4621
18657TIP3    H277387   3.516   0.099   4.977  0.0604 -2.5721  0.3181
18658TIP3   OH277388   3.572   5.946  11.233 -0.2583  0.3222  0.2180
18658TIP3    H177389   3.622   5.869  11.258 -0.1236 -0.1331 -1.3566
18658TIP3    H277390   3.531   5.923  11.150 -1.0251  1.5942  0.2135
18659TIP3   OH277391   1.327   4.506   6.114 -0.2848 -0.3068  0.6466
18659TIP3    H177392   1.280   4.589   6.105 -0.0793 -0.1732  0.8206
18659TIP3    H277393   1.269   4.451   6.166 -1.3404 -0.9681 -1.1551
18660TIP3   OH277394   0.661   4.314  12.348  0.4752  0.9587  0.6164
18660TIP3    H177395   0.721   4.316  12.274  1.1721  1.7143  1.1827
18660TIP3    H277396   0.598   4.245  12.327  1.5858  0.1000  0.0397
18661TIP3   OH277397   6.350   5.199   1.631 -0.7011 -0.0967 -0.0365
18661TIP3    H177398   6.375   5.196   1.539  1.4147  0.1410  0.4736
18661TIP3    H277399   6.300   5.280   1.640 -2.3260 -0.9169 -1.2422
18662TIP3   OH277400   4.526   1.324   1.167 -0.0103 -0.0592  0.3196
18662TIP3    H177401   4.552   1.357   1.253  0.2917 -0.1234  0.2535
18662TIP3    H277402   4.583   1.371   1.106 -0.3528  0.1248  0.1418
18663TIP3   OH277403   2.812   1.158   4.219 -0.5655  0.1119 -0.1366
18663TIP3    H177404   2.770   1.152   4.305 -2.0483  1.1546 -0.7483
18663TIP3    H277405   2.855   1.244   4.220  1.0135 -0.6470  0.2155
18664TIP3   OH277406   5.771   3.541  16.425  0.4483 -0.2614 -0.6491
18664TIP3    H177407   5.686   3.586  16.422 -0.1718 -1.4115 -0.6701
18664TIP3    H277408   5.752   3.453  16.394  0.9078 -1.7158  2.8287
18665TIP3   OH277409   0.999   3.625  15.873  0.2436 -0.4839  0.0088
18665TIP3    H177410   0.965   3.567  15.941 -0.0891 -0.7031 -0.3436
18665TIP3    H277411   0.933   3.693  15.865 -0.8249 -1.6503 -1.6451
18666TIP3   OH277412   2.438   4.779   0.056 -0.1454 -0.3400  0.0948
18666TIP3    H177413   2.443   4.840  -0.017  0.0302  0.4769  0.7716
18666TIP3    H277414   2.488   4.821   0.126 -0.0792 -1.2294  0.6009
18667TIP3   OH277415   3.557   1.553  14.663 -0.4496 -0.9313  0.0209
18667TIP3    H177416   3.587   1.623  14.605  0.0949 -1.7667 -0.7181
18667TIP3    H277417   3.499   1.500  14.608  0.9924 -2.4050 -0.1313
18668TIP3   OH277418   6.073   5.254  15.450  0.5697 -0.2904 -0.4711
18668TIP3    H177419   6.050   5.254  15.543  1.3966 -1.6944 -0.2374
18668TIP3    H277420   6.147   5.314  15.444 -0.8073  1.4933 -0.6339
18669TIP3   OH277421   3.856   4.976  15.377 -0.0993 -0.4442  0.2530
18669TIP3    H177422   3.764   5.002  15.369  0.1127  1.1090  2.0736
18669TIP3    H277423   3.853   4.881  15.384 -1.6529 -0.3800  0.9700
18670TIP3   OH277424   0.681   6.193   1.897  0.7322  0.0541 -0.7921
18670TIP3    H177425   0.743   6.171   1.827  0.1055 -0.5311 -1.1705
18670TIP3    H277426   0.702   6.283   1.920  1.7385 -0.1380 -0.9012
18671TIP3   OH277427   6.392   1.594  13.732  0.2326  0.2576  0.1429
18671TIP3    H177428   6.310   1.562  13.693  1.9213 -0.4217 -3.2317
18671TIP3    H277429   6.383   1.689  13.732  0.0951  0.2958 -2.0452
18672TIP3   OH277430   3.348   3.783  12.379  0.2577  0.2308  0.3389
18672TIP3    H177431   3.324   3.827  12.297 -0.0416  0.3662  0.5000
18672TIP3    H277432   3.367   3.855  12.439  4.0579  0.2693 -0.5932
18673TIP3   OH277433   6.570   1.197   1.772  0.0985  0.3264  0.1409
18673TIP3    H177434   6.539   1.262   1.835 -0.8664 -1.4714  1.6297
18673TIP3    H277435   6.524   1.116   1.796  1.8396 -1.1288 -1.0979
18674TIP3   OH277436   4.510   2.183   5.741  0.3203  1.1380  0.0540
18674TIP3    H177437   4.519   2.090   5.764  0.1013  0.5929 -1.8800
18674TIP3    H277438   4.422   2.206   5.773  0.2513  0.5919  0.2771
18675TIP3   OH277439   6.619   5.205   2.177 -0.4655  0.9286 -0.3211
18675TIP3    H177440   6.659   5.281   2.219  1.2821 -0.6324  0.9933
18675TIP3    H277441   6.692   5.157   2.140 -1.2660 -1.1522  0.6573
18676TIP3   OH277442   5.557   2.291  14.745 -0.0802 -0.1766  1.0977
18676TIP3    H177443   5.534   2.203  14.714  0.4939  0.1298 -0.2895
18676TIP3    H277444   5.624   2.321  14.683  0.1748  1.0033  1.9142
18677TIP3   OH277445   4.116   5.531   0.586  0.0843  0.1538 -0.2004
18677TIP3    H177446   4.069   5.575   0.657 -0.0949 -0.2147 -0.0912
18677TIP3    H277447   4.181   5.477   0.629 -0.1978 -0.2740 -0.3018
18678TIP3   OH277448   2.835   6.211  14.982 -0.1205  0.2080  0.0379
18678TIP3    H177449   2.777   6.273  14.938 -1.6568  0.1103  1.8106
18678TIP3    H277450   2.854   6.251  15.066 -1.6497 -1.8939  1.4830
18679TIP3   OH277451   4.705   3.635  13.619 -0.0710  0.5810  0.2146
18679TIP3    H177452   4.774   3.698  13.639  0.0246  0.7528 -0.6513
18679TIP3    H277453   4.735   3.554  13.661 -1.1838  1.5374  3.1785
18680TIP3   OH277454   5.409   3.855   4.834 -0.1883  0.2593 -0.0452
18680TIP3    H177455   5.421   3.915   4.760  0.8854 -0.4183 -0.4437
18680TIP3    H277456   5.375   3.775   4.795  3.2863 -1.2235 -0.3520
18681TIP3   OH277457   2.028   5.552  13.481 -0.1226  0.3210 -0.1845
18681TIP3    H177458   2.089   5.623  13.501  1.2954 -1.2069  1.2187
18681TIP3    H277459   1.943   5.596  13.474  1.0027  2.4479 -1.7072
18682TIP3   OH277460   1.591   6.390   1.005 -0.0524 -0.6438  0.7047
18682TIP3    H177461   1.557   6.425   0.923  0.3677 -3.2220 -0.6684
18682TIP3    H277462   1.516   6.390   1.064 -0.3646  1.2262  0.3540
18683TIP3   OH277463   5.588   6.270  12.434 -0.0761  0.2350 -0.2446
18683TIP3    H177464   5.637   6.230  12.363  0.5460  1.3921 -0.4920
18683TIP3    H277465   5.556   6.196  12.486  0.3139 -0.5890 -1.1532
18684TIP3   OH277466   1.435   0.973   2.547  0.1597 -0.7624  0.2876
18684TIP3    H177467   1.449   1.065   2.569 -0.9310 -0.8889  1.6425
18684TIP3    H277468   1.490   0.924   2.609  0.1495 -1.0439  0.0787
18685TIP3   OH277469   6.512   1.588  15.030 -0.1680 -0.4291  0.4908
18685TIP3    H177470   6.442   1.584  14.964  0.6752 -0.8280 -0.4148
18685TIP3    H277471   6.587   1.548  14.987  0.9469  0.9869  1.0182
18686TIP3   OH277472   2.831   3.573  16.082 -0.3870  0.0927  0.5551
18686TIP3    H177473   2.889   3.539  16.014 -1.8410  1.5571 -1.5387
18686TIP3    H277474   2.858   3.527  16.162  1.1692 -1.9715 -1.0462
18687TIP3   OH277475   0.666   6.387   1.313 -0.0553  0.2212  0.3878
18687TIP3    H177476   0.648   6.304   1.270 -0.2686 -0.1981  1.2690
18687TIP3    H277477   0.583   6.412   1.353 -0.0943  1.0570 -0.1888
18688TIP3   OH277478   0.576   2.855  12.004 -0.0249 -0.1398  0.2852
18688TIP3    H177479   0.503   2.793  12.002 -0.2775  0.1676 -0.5638
18688TIP3    H277480   0.567   2.904  11.923  1.3973 -0.3914 -0.0351
18689TIP3   OH277481   0.755   0.088  14.740 -0.1683  0.2210 -1.0824
18689TIP3    H177482   0.795   0.075  14.654 -0.0921  1.2544 -1.2183
18689TIP3    H277483   0.829   0.093  14.801 -0.2492 -1.4875 -0.7806
18690TIP3   OH277484   6.728   3.791   5.528 -0.2814 -0.4407 -0.2584
18690TIP3    H177485   6.710   3.733   5.602  0.0453  0.0867  0.2457
18690TIP3    H277486   6.643   3.829   5.506 -0.3743 -0.5736 -0.1288
18691TIP3   OH277487   3.538   2.097   4.285 -0.1747  0.2069  0.2870
18691TIP3    H177488   3.604   2.070   4.221 -0.7134 -1.1472  0.2772
18691TIP3    H277489   3.542   2.030   4.353  0.8460  1.9417  2.0637
18692TIP3   OH277490   2.842   3.547  12.015 -0.6715  0.3275  0.0774
18692TIP3    H177491   2.910   3.481  12.019 -0.1845  0.8493  0.5664
18692TIP3    H277492   2.828   3.562  11.922 -1.4450 -1.1229 -0.0631
18693TIP3   OH277493   3.556   1.197   2.427  0.1664  0.1990  0.3393
18693TIP3    H177494   3.610   1.184   2.505 -0.4828  0.5520  0.8526
18693TIP3    H277495   3.610   1.164   2.355  0.5957 -0.5340  0.9859
18694TIP3   OH277496   2.929   1.490  17.063 -0.5201  0.0680 -0.0477
18694TIP3    H177497   2.942   1.412  17.010 -1.4713 -1.7521  2.2117
18694TIP3    H277498   2.839   1.517  17.044  0.1657  1.3464 -1.6599
18695TIP3   OH277499   5.994   6.568   0.780 -0.0591 -0.4436  0.5910
18695TIP3    H177500   6.035   6.632   0.838 -0.7955 -0.1758  0.8274
18695TIP3    H277501   6.005   6.605   0.692 -2.2116  1.0503  0.8652
18696TIP3   OH277502   0.734   0.052   1.143  0.0760  0.2767  0.6805
18696TIP3    H177503   0.673   0.009   1.202  1.2479 -1.5161  0.6772
18696TIP3    H277504   0.727   0.003   1.061 -2.3569  3.4094 -1.1835
18697TIP3   OH277505   1.718   4.913   2.131  0.7224  0.0289  0.3242
18697TIP3    H177506   1.755   4.999   2.114  1.3408 -0.3506 -0.3169
18697TIP3    H277507   1.627   4.930   2.155  0.8992  0.8699  0.4191
18698TIP3   OH277508   3.010   6.467   2.033 -0.3144 -0.2428  0.1929
18698TIP3    H177509   3.017   6.548   1.983 -1.5095 -0.9939 -1.2777
18698TIP3    H277510   2.925   6.472   2.076 -0.2307 -0.5518  0.4036
18699TIP3   OH277511   0.715   1.198   1.111 -0.3941 -0.2990  0.0249
18699TIP3    H177512   0.636   1.183   1.059 -1.2407 -2.2079  1.7042
18699TIP3    H277513   0.685   1.244   1.189  0.5181  0.7474 -0.2112
18700TIP3   OH277514   0.157   5.318  15.774 -0.0966 -0.2623 -0.2575
18700TIP3    H177515   0.214   5.247  15.746  1.9734  1.1941 -0.0275
18700TIP3    H277516   0.218   5.387  15.802 -1.9891  1.4839 -0.2191
18701TIP3   OH277517   5.659   2.561  16.708 -0.3965  0.1663 -0.2084
18701TIP3    H177518   5.682   2.495  16.774 -0.1769  0.0915 -0.3599
18701TIP3    H277519   5.693   2.526  16.626 -0.3476  0.4332 -0.3030
18702TIP3   OH277520   1.268   5.536  16.416 -0.0551  0.3294 -0.2399
18702TIP3    H177521   1.335   5.573  16.359 -0.4624 -0.0436 -0.9786
18702TIP3    H277522   1.248   5.606  16.479  0.8796  0.5045 -0.1302
18703TIP3   OH277523   5.837   4.540   0.994  0.5626 -0.2147 -0.2364
18703TIP3    H177524   5.807   4.540   1.085  0.3998  0.2911 -0.2885
18703TIP3    H277525   5.933   4.537   1.001  0.5231 -1.8526 -0.0714
18704TIP3   OH277526   0.577   5.244  16.577 -0.4325 -0.2384 -0.2650
18704TIP3    H177527   0.649   5.223  16.518 -0.6014  0.1154 -0.6061
18704TIP3    H277528   0.586   5.338  16.592 -0.6443 -0.2494 -0.0725
18705TIP3   OH277529   4.031   5.226  13.894  0.3540  0.4242  0.2898
18705TIP3    H177530   4.098   5.165  13.863  0.5582  0.4280  0.7235
18705TIP3    H277531   3.950   5.175  13.892  0.7603 -0.3839  2.1497
18706TIP3   OH277532   1.003   1.165  13.181  0.3813  0.1108 -0.0368
18706TIP3    H177533   0.953   1.114  13.244  0.2819 -0.7424 -0.7761
18706TIP3    H277534   1.004   1.110  13.102  0.0297  1.3720 -0.9478
18707TIP3   OH277535   1.131   3.045  11.832 -0.0009 -0.8857 -0.0852
18707TIP3    H177536   1.213   3.090  11.849  0.8061 -2.1077 -0.6095
18707TIP3    H277537   1.095   3.025  11.919  0.7786 -1.2689  0.1520
18708TIP3   OH277538   6.316   3.040  16.222 -0.9632 -1.0338 -0.4634
18708TIP3    H177539   6.259   3.040  16.298  1.2194 -0.5949  1.2728
18708TIP3    H277540   6.299   2.956  16.179 -0.8691 -2.1840  1.6167
18709TIP3   OH277541   2.945   2.503   2.557  0.0891  0.3303  0.4630
18709TIP3    H177542   2.999   2.573   2.593  1.4847 -0.1577 -0.6213
18709TIP3    H277543   3.007   2.436   2.529 -0.9699  0.1558 -1.6963
18710TIP3   OH277544   6.112   4.931   5.806 -0.2374  0.2806  0.2842
18710TIP3    H177545   6.044   4.938   5.874 -0.1712  0.1348  0.3679
18710TIP3    H277546   6.119   5.019   5.769  1.2660  0.9284  1.9561
18711TIP3   OH277547   1.000   1.487  16.983  0.2393 -0.0600 -0.1330
18711TIP3    H177548   0.925   1.519  17.035  0.8906  1.4167 -0.0514
18711TIP3    H277549   0.964   1.475  16.895 -0.4327 -0.7741  0.2216
18712TIP3   OH277550   3.216   2.914   5.374  0.0099  0.0438  0.5527
18712TIP3    H177551   3.177   2.933   5.460  0.9666 -0.3068  1.0887
18712TIP3    H277552   3.146   2.929   5.311 -0.9530 -0.4814  1.4696
18713TIP3   OH277553   6.010   3.652  14.774  0.4433  0.2418 -0.6228
18713TIP3    H177554   6.070   3.656  14.699  0.7694 -0.2666 -0.3959
18713TIP3    H277555   5.995   3.559  14.787 -0.3520  0.3683 -0.6369
18714TIP3   OH277556   4.419   0.385  17.145 -0.3829 -0.0344  0.2650
18714TIP3    H177557   4.362   0.402  17.220 -1.7091  0.6525 -0.8540
18714TIP3    H277558   4.416   0.465  17.093  0.4742 -0.5067 -0.5591
18715TIP3   OH277559   2.280   1.105  14.447  0.5833  0.2648  0.1762
18715TIP3    H177560   2.335   1.049  14.393  1.0169  0.7176  0.1271
18715TIP3    H277561   2.248   1.172  14.387  1.3920  1.0009  0.5367
18716TIP3   OH277562   2.874   4.871   3.992  0.2852  0.1266  0.6634
18716TIP3    H177563   2.904   4.785   3.963  1.0368 -1.1014  4.4958
18716TIP3    H277564   2.901   4.876   4.084  0.3910  4.5615  0.5937
18717TIP3   OH277565   6.247   0.348   4.781 -0.7970  0.1622 -0.1644
18717TIP3    H177566   6.173   0.406   4.764 -1.9191 -1.6837 -2.1820
18717TIP3    H277567   6.211   0.260   4.771  1.4437 -0.8199 -0.1881
18718TIP3   OH277568   3.498   3.888  13.825 -0.0260  1.1071 -0.2268
18718TIP3    H177569   3.449   3.807  13.839  2.0613  0.1680  2.6263
18718TIP3    H277570   3.511   3.893  13.730  0.3756 -2.3004 -0.4658
18719TIP3   OH277571   4.961   3.697  12.207  0.4134 -0.1770  0.5075
18719TIP3    H177572   4.882   3.716  12.157  0.6194 -1.4196 -0.3372
18719TIP3    H277573   4.965   3.602  12.210  0.6732 -0.1331  2.5064
18720TIP3   OH277574   4.233   0.835  15.419  0.5287  0.2877 -0.0647
18720TIP3    H177575   4.316   0.862  15.458  0.5937  0.3672 -0.2601
18720TIP3    H277576   4.229   0.881  15.336 -0.0692  0.9064  0.2931
18721TIP3   OH277577   4.969   2.143  10.571  0.0709 -0.4643  0.1981
18721TIP3    H177578   5.031   2.070  10.575  0.8966  0.2394  0.7368
18721TIP3    H277579   5.012   2.213  10.619 -0.7608  0.3485 -0.2098
18722TIP3   OH277580   3.542   0.339   1.535  0.1287 -0.5712 -0.2949
18722TIP3    H177581   3.574   0.292   1.458  0.9055 -0.4094 -0.0780
18722TIP3    H277582   3.528   0.270   1.600 -1.9731 -0.9053 -1.0246
18723TIP3   OH277583   6.509   2.133  13.583 -0.1545 -0.1033 -0.1800
18723TIP3    H177584   6.551   2.219  13.583 -0.8721  0.2655  0.5691
18723TIP3    H277585   6.479   2.120  13.493 -0.7300  0.7795 -0.1236
18724TIP3   OH277586   4.027   1.891  14.754  0.4652 -0.4768 -0.0090
18724TIP3    H177587   4.120   1.877  14.769  0.7095 -1.4681 -2.1834
18724TIP3    H277588   3.985   1.810  14.782  0.1678  0.1169  1.3529
18725TIP3   OH277589   3.758   0.216  15.066 -0.0079 -0.4692  0.7202
18725TIP3    H177590   3.716   0.151  15.123  1.0541 -1.0426  0.8876
18725TIP3    H277591   3.716   0.203  14.981  1.0902 -2.3586  0.3894
18726TIP3   OH277592   0.737   2.758  12.836 -0.1964 -0.1517 -0.1356
18726TIP3    H177593   0.816   2.743  12.784  1.2653  0.9817  1.6395
18726TIP3    H277594   0.743   2.695  12.908 -0.2833  0.6727  0.6232
18727TIP3   OH277595   2.246   3.843   2.044  0.2267 -0.4223 -0.3327
18727TIP3    H177596   2.235   3.750   2.026  2.1087 -0.6729 -0.4114
18727TIP3    H277597   2.161   3.882   2.025 -0.8531 -2.2423  0.5623
18728TIP3   OH277598   0.966   0.195  12.448  0.1314  0.0708 -0.4356
18728TIP3    H177599   0.903   0.123  12.449  0.8097 -0.5391 -0.1296
18728TIP3    H277600   0.915   0.272  12.472 -0.4407 -0.4621  0.1320
18729TIP3   OH277601   6.176   2.429   0.969  0.1112 -0.3303 -0.2997
18729TIP3    H177602   6.242   2.406   0.904  1.6157  0.8216  0.7451
18729TIP3    H277603   6.212   2.396   1.052 -0.0390  1.3507  0.4606
18730TIP3   OH277604   4.893   5.011   6.209  0.5390 -0.1441 -0.7926
18730TIP3    H177605   4.950   5.054   6.273  0.3211  1.5958 -1.7156
18730TIP3    H277606   4.804   5.028   6.240  0.4491  0.1528 -1.2043
18731TIP3   OH277607   1.155   5.132   3.431 -0.0263  0.5545 -0.3912
18731TIP3    H177608   1.154   5.042   3.464 -0.4868  0.7208  0.0653
18731TIP3    H277609   1.173   5.185   3.508 -1.5621  0.9853 -0.2859
18732TIP3   OH277610   6.467   5.238   4.420  0.3050 -0.3632 -0.4295
18732TIP3    H177611   6.536   5.299   4.393  0.6464  0.7167  2.5252
18732TIP3    H277612   6.408   5.291   4.474  0.1015 -2.4136  1.4996
18733TIP3   OH277613   2.939   6.714   1.248  0.0680  0.1465  0.0213
18733TIP3    H177614   2.889   6.767   1.187 -1.3202 -0.5172  0.5423
18733TIP3    H277615   2.958   6.633   1.200  2.6216  1.2215 -0.9531
18734TIP3   OH277616   4.106   6.114   3.813 -0.1672 -0.1928 -0.6734
18734TIP3    H177617   4.138   6.078   3.895 -2.0264  0.4151  0.3660
18734TIP3    H277618   4.182   6.111   3.754  0.6962 -2.3513  0.4645
18735TIP3   OH277619   1.055   3.005   4.372  0.2871 -0.6043 -0.1982
18735TIP3    H177620   1.126   3.069   4.384  0.7691 -1.3206  0.9339
18735TIP3    H277621   1.100   2.927   4.339 -0.0154 -0.9879  0.3039
18736TIP3   OH277622   1.602   3.123   1.089  0.5462 -0.5524  0.2496
18736TIP3    H177623   1.691   3.087   1.090  1.1062  0.7645  0.4010
18736TIP3    H277624   1.589   3.157   1.177 -0.8775 -2.4410  0.8206
18737TIP3   OH277625   6.387   5.877  15.723 -0.3442  0.3792  0.1136
18737TIP3    H177626   6.465   5.911  15.766 -0.2548 -2.1534  2.1989
18737TIP3    H277627   6.314   5.922  15.766 -0.1489 -0.1639  1.0343
18738TIP3   OH277628   6.256   1.949  13.300 -0.1866  0.7962 -0.9952
18738TIP3    H177629   6.186   2.015  13.303 -0.4699  0.4686  1.0613
18738TIP3    H277630   6.336   2.000  13.286 -0.6537  1.3183 -1.8663
18739TIP3   OH277631   1.788   0.075  14.123 -0.2604  0.2870 -0.1808
18739TIP3    H177632   1.758  -0.011  14.095  0.1700 -0.0281  0.2881
18739TIP3    H277633   1.834   0.110  14.047  0.5444 -0.3814 -0.0223
18740TIP3   OH277634   3.205   6.657   1.734 -0.1335  0.1090  0.4310
18740TIP3    H177635   3.163   6.694   1.812  0.1405 -1.5293  1.3980
18740TIP3    H277636   3.141   6.671   1.664 -0.6746  0.9925  1.0754
18741TIP3   OH277637   0.440   1.802   4.362 -0.3600 -0.0900 -0.4805
18741TIP3    H177638   0.467   1.832   4.449 -2.0393  0.9427 -0.2817
18741TIP3    H277639   0.509   1.834   4.304 -0.7766  1.9964  0.0889
18742TIP3   OH277640   3.883   4.462   6.845 -0.5860  0.7444  0.3456
18742TIP3    H177641   3.816   4.408   6.888 -1.8036 -0.9813 -3.2624
18742TIP3    H277642   3.965   4.415   6.860 -1.4814 -1.7764 -1.8720
18743TIP3   OH277643   6.574   0.752   6.030 -0.0881 -0.5155 -0.4351
18743TIP3    H177644   6.610   0.693   6.096 -0.3373  1.1735  1.3132
18743TIP3    H277645   6.649   0.803   5.999 -0.2119 -0.2251 -0.2669
18744TIP3   OH277646   0.229   2.608  14.591  0.6227 -0.1569  0.1133
18744TIP3    H177647   0.277   2.606  14.508 -0.7688  3.9942 -1.0621
18744TIP3    H277648   0.137   2.604  14.565  0.0908  2.7610  1.1243
18745TIP3   OH277649   1.296   1.883   7.020  0.1898  0.1993 -0.0885
18745TIP3    H177650   1.301   1.965   6.971  1.6295 -0.9970 -2.0504
18745TIP3    H277651   1.253   1.822   6.961  2.3544 -1.4107 -0.1151
18746TIP3   OH277652   2.177   1.409  13.259  0.1604  0.2027 -0.1510
18746TIP3    H177653   2.228   1.398  13.179 -0.9006  0.0463 -0.8306
18746TIP3    H277654   2.177   1.322  13.299 -0.6108 -0.1228 -0.8137
18747TIP3   OH277655   1.548   5.815  17.065  0.0009  0.0532 -0.1069
18747TIP3    H177656   1.591   5.872  17.129 -0.2290 -0.9034  0.9363
18747TIP3    H277657   1.480   5.870  17.026  0.6717  0.8936 -0.1263
18748TIP3   OH277658   3.040   0.084   6.022 -0.3743 -0.1885 -0.3133
18748TIP3    H177659   3.089   0.148   6.073  1.4944 -1.6304 -0.1809
18748TIP3    H277660   3.077   0.090   5.934 -3.6074  2.3227 -1.7154
18749TIP3   OH277661   4.136   3.807   4.265  0.2652 -0.1912 -0.5663
18749TIP3    H177662   4.145   3.900   4.288 -2.0850 -0.3315  1.4000
18749TIP3    H277663   4.093   3.807   4.180  1.3602  0.4814 -1.1400
18750TIP3   OH277664   0.060   0.436   4.227 -0.1275 -0.7682 -0.0715
18750TIP3    H177665  -0.033   0.412   4.225 -0.7689  1.4478  0.1862
18750TIP3    H277666   0.060   0.532   4.223  2.1723 -0.7150 -0.2033
18751TIP3   OH277667   0.666   6.448  13.541  0.1205  0.1531  0.0560
18751TIP3    H177668   0.586   6.492  13.568 -0.8579  0.1477 -2.5086
18751TIP3    H277669   0.637   6.383  13.476  1.9467 -1.5608  0.8334
18752TIP3   OH277670   3.020   0.532   5.615 -0.3349 -0.7152  0.1263
18752TIP3    H177671   3.032   0.439   5.594 -0.6525 -0.7729  0.1960
18752TIP3    H277672   2.998   0.533   5.708  0.2488 -0.5221  0.2636
18753TIP3   OH277673   2.646   3.700   5.239  0.2828  0.7058  0.1974
18753TIP3    H177674   2.586   3.686   5.312 -0.5680  2.1881 -0.1809
18753TIP3    H277675   2.600   3.663   5.164  0.6799  0.1638  0.2158
18754TIP3   OH277676   3.171   4.009  15.481  0.2807  0.3066 -0.2023
18754TIP3    H177677   3.128   4.094  15.469 -0.1195  0.3021  1.0502
18754TIP3    H277678   3.111   3.960  15.538  0.8952 -0.5228 -0.2518
18755TIP3   OH277679   4.729   0.946  15.295  0.5141  0.0451  0.3088
18755TIP3    H177680   4.695   0.866  15.253  1.3207 -0.0064 -0.2640
18755TIP3    H277681   4.758   0.917  15.382 -1.8242  0.2899  1.2528
18756TIP3   OH277682   0.469   4.667   0.008 -0.6753  0.5136 -0.3126
18756TIP3    H177683   0.403   4.706   0.064  0.5859  2.5293 -0.1086
18756TIP3    H277684   0.522   4.613   0.067  0.4347  2.3484  0.4838
18757TIP3   OH277685   6.744   6.364  14.298  0.5273 -0.3441  0.0182
18757TIP3    H177686   6.685   6.297  14.263  0.9263 -0.4933 -0.3686
18757TIP3    H277687   6.804   6.317  14.356  0.4109 -0.2234  0.2404
18758TIP3   OH277688   4.202   6.411   1.717  0.2569 -0.2896  0.7718
18758TIP3    H177689   4.152   6.330   1.723 -0.9109  0.2517 -0.9869
18758TIP3    H277690   4.153   6.473   1.771 -1.4076  0.3926 -1.3833
18759TIP3   OH277691   4.550   6.019  12.655 -0.1955  0.5515 -0.3429
18759TIP3    H177692   4.490   6.061  12.593  0.4122  1.1056 -0.5687
18759TIP3    H277693   4.512   6.035  12.741 -0.6873  0.3658 -0.5213
18760TIP3   OH277694   3.186   4.558  15.554 -0.6800 -0.1730 -0.8922
18760TIP3    H177695   3.157   4.648  15.567  1.4834  0.3116  1.4010
18760TIP3    H277696   3.134   4.507  15.616  1.0670  0.2397  1.0113
18761TIP3   OH277697   3.753   4.230   5.960  0.5661 -0.1403  0.1387
18761TIP3    H177698   3.713   4.172   5.895  1.6985 -0.3589 -0.3859
18761TIP3    H277699   3.809   4.172   6.012  0.7245  0.2755  0.4388
18762TIP3   OH277700   3.987   2.812  16.942 -0.0109  0.3125  0.4810
18762TIP3    H177701   4.039   2.869  16.886 -0.0710 -1.6922 -1.7986
18762TIP3    H277702   4.047   2.741  16.966 -0.3375  0.5154  2.0095
18763TIP3   OH277703   2.436   0.578  13.495  0.5273  0.4695  0.3888
18763TIP3    H177704   2.392   0.609  13.574  0.5124  0.1961  0.4873
18763TIP3    H277705   2.376   0.598  13.424  0.4382  0.5026  0.4739
18764TIP3   OH277706   6.050   2.704  17.189  0.0295 -0.5638 -0.4709
18764TIP3    H177707   6.007   2.779  17.148 -1.0336 -1.1728 -0.5075
18764TIP3    H277708   5.981   2.660  17.238  0.9709 -0.6592  0.8289
18765TIP3   OH277709   5.853   3.482   0.800  0.6060  0.7077 -0.0675
18765TIP3    H177710   5.947   3.473   0.815  0.3931 -1.6834  0.1203
18765TIP3    H277711   5.847   3.535   0.720  2.0424  1.9722  0.6055
18766TIP3   OH277712   4.817   0.426  12.308 -0.4942 -0.4155 -0.1887
18766TIP3    H177713   4.895   0.382  12.343  0.3427  0.9043 -0.3234
18766TIP3    H277714   4.849   0.476  12.234 -1.2196  1.1020  0.4775
18767TIP3   OH277715   6.770   0.923   5.150 -0.3037 -0.2963  0.5213
18767TIP3    H177716   6.816   0.840   5.142 -1.0002 -0.7870  1.3891
18767TIP3    H277717   6.708   0.909   5.222 -0.7661  0.8171  0.3596
18768TIP3   OH277718   5.270   0.807  14.015  0.0710  0.3838 -0.4339
18768TIP3    H177719   5.223   0.871  14.068 -0.4071  0.9932 -1.5493
18768TIP3    H277720   5.278   0.730  14.071 -0.5008  0.9674  0.4737
18769TIP3   OH277721   3.097   0.739  12.661 -0.8907  0.4327  0.5597
18769TIP3    H177722   3.041   0.698  12.596  2.0570 -1.0654 -1.2293
18769TIP3    H277723   3.051   0.728  12.744 -3.3187 -0.3946 -0.8221
18770TIP3   OH277724   1.322   1.830   2.314  0.7627  0.1376 -0.1231
18770TIP3    H177725   1.343   1.911   2.266  0.5507  0.1506 -0.1928
18770TIP3    H277726   1.319   1.857   2.406  1.3046  0.0868 -0.0836
18771TIP3   OH277727   6.342   0.040  11.679  0.0169 -0.2283 -0.2618
18771TIP3    H177728   6.424   0.054  11.632  1.8693 -4.3806  1.3077
18771TIP3    H277729   6.298  -0.030  11.631 -1.0946 -0.2150  0.6938
18772TIP3   OH277730   6.145   1.662   0.212  0.1564 -0.2397  0.4356
18772TIP3    H177731   6.132   1.671   0.118 -0.4418  1.0554  0.6169
18772TIP3    H277732   6.216   1.723   0.232 -1.5031  1.5461  1.1867
18773TIP3   OH277733   3.417   6.707  12.602 -0.8113 -0.2322 -0.7817
18773TIP3    H177734   3.437   6.687  12.510  1.5309  1.0412 -0.6386
18773TIP3    H277735   3.361   6.784  12.598  0.9100  1.0742 -1.2046
18774TIP3   OH277736   6.640   6.113   1.889 -0.0213 -0.3417 -0.2098
18774TIP3    H177737   6.587   6.068   1.824 -0.1095  0.1037 -0.4479
18774TIP3    H277738   6.699   6.046   1.923 -0.7051 -0.8307  0.0272
18775TIP3   OH277739   1.102   0.056  16.070 -0.1492  0.1530  0.2963
18775TIP3    H177740   1.047   0.124  16.032 -0.1449 -0.4066 -0.7383
18775TIP3    H277741   1.097  -0.017  16.008 -0.0813 -0.7590  1.3309
18776TIP3   OH277742   4.461   5.037  14.017 -0.2815 -0.7393  0.2233
18776TIP3    H177743   4.501   5.110  14.065 -0.6216  0.1630 -0.8483
18776TIP3    H277744   4.535   4.980  13.997 -0.0192 -0.7424  1.1173
18777TIP3   OH277745   2.954   5.323  13.205  0.5173 -0.3488  0.3418
18777TIP3    H177746   2.874   5.273  13.189 -0.0213  0.5244  0.2343
18777TIP3    H277747   2.924   5.414  13.212  1.1325 -0.2515  2.9318
18778TIP3   OH277748   5.161   5.133   5.241  0.3113  0.0321 -0.2329
18778TIP3    H177749   5.195   5.219   5.266  1.2872 -0.7994  1.4913
18778TIP3    H277750   5.131   5.094   5.323 -2.2735 -0.4078 -1.3014
18779TIP3   OH277751   3.300   1.658  11.830 -0.0372 -0.2325 -0.3423
18779TIP3    H177752   3.351   1.725  11.876 -1.6231  1.3796 -0.8283
18779TIP3    H277753   3.274   1.699  11.748 -1.5879 -1.2133 -0.3909
18780TIP3   OH277754   0.518   2.825   6.848 -0.2310 -0.1431  0.0426
18780TIP3    H177755   0.591   2.850   6.905  1.4369  3.1182 -3.1805
18780TIP3    H277756   0.557   2.770   6.781 -1.2088 -0.1869 -0.5110
18781TIP3   OH277757   5.425   2.838   1.074 -0.1879 -0.0586  0.3932
18781TIP3    H177758   5.467   2.813   0.992 -0.3975  2.1459 -0.4568
18781TIP3    H277759   5.332   2.841   1.053 -0.1995  1.0290  0.5226
18782TIP3   OH277760   4.835   5.523   0.456  0.6820 -0.1696 -0.3851
18782TIP3    H177761   4.812   5.573   0.378  0.0016  0.8462  0.4432
18782TIP3    H277762   4.808   5.434   0.436  0.2960  0.1217 -1.2174
18783TIP3   OH277763   0.192   3.912   1.095 -0.2534 -0.8929  0.0773
18783TIP3    H177764   0.103   3.884   1.075 -0.5324  0.0840 -0.1290
18783TIP3    H277765   0.218   3.859   1.171 -1.0363 -1.1386  0.1806
18784TIP3   OH277766   0.565   5.221   5.296  0.0722  0.1777 -0.7728
18784TIP3    H177767   0.654   5.205   5.264  0.7496  2.1669 -0.0754
18784TIP3    H277768   0.520   5.264   5.222 -0.6266 -1.5936 -1.4260
18785TIP3   OH277769   6.565   4.243   3.211 -0.4786  0.2326 -0.4571
18785TIP3    H177770   6.495   4.297   3.248  0.9551  1.4288  0.6267
18785TIP3    H277771   6.544   4.237   3.118 -0.4422  3.1261 -0.7294
18786TIP3   OH277772   4.476   2.409   1.255  0.7119 -0.5001 -0.0232
18786TIP3    H177773   4.503   2.482   1.198  0.5132 -2.1267 -2.3550
18786TIP3    H277774   4.527   2.421   1.335  3.0627  0.4903 -1.5461
18787TIP3   OH277775   3.144   5.244   4.106 -0.8116  1.1073 -0.2228
18787TIP3    H177776   3.218   5.289   4.066 -0.5577  1.4436  0.5994
18787TIP3    H277777   3.161   5.249   4.200  0.2781 -2.4697 -0.0764
18788TIP3   OH277778   3.049   1.068   0.288 -0.1537  0.3261  0.0614
18788TIP3    H177779   3.063   1.102   0.377 -0.6769 -0.2688  0.3804
18788TIP3    H277780   3.027   1.145   0.236 -0.2428  0.6265  0.5346
18789TIP3   OH277781   2.416   0.935  12.608 -0.3159  0.3536  0.3992
18789TIP3    H177782   2.454   0.856  12.644  0.4067  0.6906  0.3847
18789TIP3    H277783   2.340   0.953  12.664 -0.5134 -0.3607  0.3762
18790TIP3   OH277784   2.664   6.687  11.292 -0.1825  0.4220 -0.2257
18790TIP3    H177785   2.735   6.677  11.229 -0.2259  1.0495 -0.3799
18790TIP3    H277786   2.592   6.724  11.241 -1.4330 -2.2994 -0.6249
18791TIP3   OH277787   2.799   4.734   1.975  0.3374  0.2104 -0.1916
18791TIP3    H177788   2.716   4.726   2.022  0.5846  1.6460  0.5385
18791TIP3    H277789   2.863   4.694   2.033  0.5480  1.4589  0.4780
18792TIP3   OH277790   4.821   0.179  15.699  0.2830  0.1417  0.2909
18792TIP3    H177791   4.915   0.194  15.713  0.2362  1.7714 -0.8968
18792TIP3    H277792   4.817   0.121  15.623  0.3236  0.0654  0.3467
18793TIP3   OH277793   4.695   4.215  13.210 -0.0419  0.1010  0.7208
18793TIP3    H177794   4.700   4.288  13.149  1.8025 -1.7911 -1.6070
18793TIP3    H277795   4.603   4.188  13.208 -0.2168  0.7344 -0.4326
18794TIP3   OH277796   2.493   1.484  13.193  0.1164  0.5423  0.4020
18794TIP3    H177797   2.553   1.559  13.199  2.3758 -1.1287  0.0638
18794TIP3    H277798   2.511   1.432  13.271 -1.8391  0.5711  0.9316
18795TIP3   OH277799   1.118   5.897   4.770  0.0075  0.3908  0.3337
18795TIP3    H177800   1.057   5.969   4.783 -0.8384 -0.3576  0.6101
18795TIP3    H277801   1.063   5.823   4.745  0.9887  0.2170 -1.5659
18796TIP3   OH277802   6.582   0.036   5.161 -0.7688 -0.9187  0.3838
18796TIP3    H177803   6.491   0.064   5.168 -0.4715  0.6099 -1.1007
18796TIP3    H277804   6.611   0.071   5.077  1.6629  0.0054  1.5342
18797TIP3   OH277805   6.015   5.342   4.539 -0.8491 -0.2513 -0.2473
18797TIP3    H177806   6.052   5.254   4.543 -0.9006 -0.2514  0.2309
18797TIP3    H277807   6.063   5.385   4.468 -1.8435 -1.1297 -1.5023
18798TIP3   OH277808   2.970   5.138  15.747  0.2186  1.2647 -0.0305
18798TIP3    H177809   3.027   5.212  15.766  1.6456  0.3577 -0.6382
18798TIP3    H277810   3.014   5.063  15.786 -0.6327  0.5640 -0.3826
18799TIP3   OH277811   0.415   4.203   2.496 -0.2763 -0.1266  0.1633
18799TIP3    H177812   0.413   4.107   2.496  1.8714 -0.2329 -0.7007
18799TIP3    H277813   0.362   4.228   2.571 -1.9244 -1.9330 -0.3141
18800TIP3   OH277814   3.895   6.622   2.248 -0.1888 -0.0967  0.4095
18800TIP3    H177815   3.910   6.529   2.264  0.2035  0.0624  0.9780
18800TIP3    H277816   3.966   6.648   2.188  0.3677  0.0855  1.1334
18801TIP3   OH277817   1.411   4.520   0.817  0.3697 -0.2616  0.5200
18801TIP3    H177818   1.328   4.562   0.839  0.6287  0.1495  0.7267
18801TIP3    H277819   1.461   4.587   0.769 -0.2099 -1.1659 -1.4362
18802TIP3   OH277820   2.129   3.233  12.282  0.2571  0.2749 -0.1738
18802TIP3    H177821   2.083   3.291  12.343  0.8542 -0.0035  0.5586
18802TIP3    H277822   2.182   3.176  12.338  0.4338 -0.3240 -0.9332
18803TIP3   OH277823   0.801   2.854  16.634  0.2408 -0.4500  0.0935
18803TIP3    H177824   0.770   2.855  16.544  1.1055 -2.2137 -0.2792
18803TIP3    H277825   0.722   2.838  16.686 -0.2212  0.3084 -0.3632
18804TIP3   OH277826   2.343   0.604  11.168 -0.0526 -0.2482  0.2471
18804TIP3    H177827   2.285   0.634  11.239 -0.9310 -0.5172 -0.3423
18804TIP3    H277828   2.406   0.546  11.212  1.8078  2.4351  1.4711
18805TIP3   OH277829   1.797   1.494   5.514  0.2829  1.1656  1.3086
18805TIP3    H177830   1.850   1.529   5.443  1.0553  0.3575  1.4700
18805TIP3    H277831   1.709   1.529   5.498  0.6207  1.6315  0.4169
18806TIP3   OH277832   0.798   4.582   6.010 -0.4485  0.2414  0.4535
18806TIP3    H177833   0.763   4.658   6.056 -2.8178 -0.9239  0.7235
18806TIP3    H277834   0.749   4.508   6.046  0.3582 -1.1642 -1.2154
18807TIP3   OH277835   0.232   2.368   4.326 -0.1910 -0.0072  0.2515
18807TIP3    H177836   0.268   2.372   4.415  0.2165  0.8746  0.0518
18807TIP3    H277837   0.282   2.299   4.283  0.3124  0.2692  0.3954
18808TIP3   OH277838   1.305   6.034   0.012  0.2378 -0.0746  0.0297
18808TIP3    H177839   1.398   6.030  -0.006  0.0946 -0.4346 -0.6572
18808TIP3    H277840   1.297   6.006   0.104  0.8057  0.0621  0.1195
18809TIP3   OH277841   0.569   6.345   0.536 -0.0971  0.0170 -0.2566
18809TIP3    H177842   0.663   6.349   0.553 -0.1306  0.0901 -0.0906
18809TIP3    H277843   0.529   6.340   0.622 -0.3050  1.2659 -0.2656
18810TIP3   OH277844   3.016   2.748   4.953  0.3777 -0.5640  0.0388
18810TIP3    H177845   2.937   2.693   4.948 -1.3242  1.6787  0.4746
18810TIP3    H277846   3.015   2.798   4.871  0.3209  0.7130  0.7829
18811TIP3   OH277847   1.176   6.224   1.093 -0.3950 -0.1424  0.4481
18811TIP3    H177848   1.104   6.230   1.155 -0.4137  2.0741  0.3037
18811TIP3    H277849   1.133   6.213   1.008 -0.4185 -1.6077  0.6182
18812TIP3   OH277850   0.509   5.989   2.477 -0.4659 -0.4320 -0.2356
18812TIP3    H177851   0.513   5.926   2.404 -1.1438 -1.8638  0.9021
18812TIP3    H277852   0.586   5.969   2.530  1.1816  1.9777 -1.5491
18813TIP3   OH277853   6.121   0.397  10.171 -0.1470 -0.1656 -0.5002
18813TIP3    H177854   6.193   0.335  10.168  2.3190  2.4086  0.8934
18813TIP3    H277855   6.087   0.391  10.260  1.1703  1.4808  0.1640
18814TIP3   OH277856   2.977   3.856  15.642  0.3301  0.0015  0.3178
18814TIP3    H177857   3.029   3.786  15.682  0.6123 -0.2526 -0.4572
18814TIP3    H277858   2.889   3.820  15.636  0.5546 -0.4569 -0.4312
18815TIP3   OH277859   5.109   6.215   0.751 -0.6161  0.2993  0.1519
18815TIP3    H177860   5.109   6.191   0.658  0.4690 -0.1422  0.2568
18815TIP3    H277861   5.022   6.190   0.782 -1.1745  0.9203 -0.8577
18816TIP3   OH277862   4.810   4.159   5.517  0.3084  0.5531 -0.1450
18816TIP3    H177863   4.722   4.127   5.534 -0.0396  2.0674  1.0949
18816TIP3    H277864   4.814   4.170   5.422  0.6004 -3.4074 -0.7443
18817TIP3   OH277865   5.260   0.293   4.424 -0.1110 -0.5634  0.2337
18817TIP3    H177866   5.206   0.273   4.347 -2.1940 -0.1401  1.4858
18817TIP3    H277867   5.226   0.236   4.492  0.9015 -0.1069  1.1483
18818TIP3   OH277868   0.280   2.729   2.278 -0.1360 -0.0576  0.9031
18818TIP3    H177869   0.205   2.789   2.285  1.1414  1.7179  0.1368
18818TIP3    H277870   0.356   2.784   2.296  1.0660 -1.5679  0.5817
18819TIP3   OH277871   0.435   0.250  15.531 -0.3531 -0.0401  0.4474
18819TIP3    H177872   0.401   0.173  15.577  0.8902 -1.3074 -0.6553
18819TIP3    H277873   0.467   0.216  15.448 -1.7356  2.0458 -1.0379
18820TIP3   OH277874   4.504   3.750   1.347 -0.3087 -0.2021  0.1598
18820TIP3    H177875   4.599   3.741   1.348 -0.2796 -0.3065 -1.2119
18820TIP3    H277876   4.485   3.809   1.420  0.6829 -1.1044  1.1864
18821TIP3   OH277877   2.151   0.058  14.365  0.2139  0.0361  0.3910
18821TIP3    H177878   2.107  -0.002  14.305  1.8324 -1.4730  0.6033
18821TIP3    H277879   2.140   0.144  14.327 -0.1152 -0.6979 -1.2439
18822TIP3   OH277880   6.007   0.659   3.464  0.8486  0.2853 -0.4153
18822TIP3    H177881   6.056   0.584   3.429 -0.5412 -0.5415 -0.6602
18822TIP3    H277882   5.920   0.623   3.484  0.4991  1.5921  0.4939
18823TIP3   OH277883   4.962   0.556  13.304  0.4040  0.1048 -0.3866
18823TIP3    H177884   4.948   0.651  13.305  2.0811  0.4607 -2.2222
18823TIP3    H277885   5.016   0.539  13.381  1.0239  0.8438 -0.6470
18824TIP3   OH277886   2.863   5.130   3.590  0.0350  0.3259  0.6099
18824TIP3    H177887   2.770   5.140   3.568  0.1942  1.0181  0.2417
18824TIP3    H277888   2.863   5.080   3.671 -0.6550  0.1428  0.5058
18825TIP3   OH277889   0.550   1.346  11.306 -0.6904 -0.1513  0.2642
18825TIP3    H177890   0.537   1.440  11.294  1.0243  0.3545  1.8722
18825TIP3    H277891   0.595   1.318  11.226  0.2062  0.7493  0.4294
18826TIP3   OH277892   0.576   4.569  14.887 -0.1606  0.2217  0.2573
18826TIP3    H177893   0.482   4.590  14.895 -1.1955 -3.9982  1.8576
18826TIP3    H277894   0.592   4.565  14.793 -2.4721 -1.8502 -0.1385
18827TIP3   OH277895   5.398   0.420  11.906 -0.4633  0.4590  0.2069
18827TIP3    H177896   5.391   0.325  11.920 -0.3047  0.3231 -0.5720
18827TIP3    H277897   5.419   0.428  11.813  2.1623  1.1348  0.7860
18828TIP3   OH277898   1.634   6.152   4.977 -0.0083 -0.0978 -0.0005
18828TIP3    H177899   1.690   6.196   4.913 -0.2029  0.2519  0.0672
18828TIP3    H277900   1.678   6.166   5.061  0.6395 -1.1900 -0.1349
18829TIP3   OH277901   3.261   0.435   5.285  0.1366  0.2978  0.2311
18829TIP3    H177902   3.181   0.423   5.235  1.0536 -0.7865 -1.0442
18829TIP3    H277903   3.332   0.420   5.222  1.3475  0.0896  1.5716
18830TIP3   OH277904   1.559   0.114  12.441  1.1613 -0.0925 -0.3624
18830TIP3    H177905   1.612   0.132  12.519 -1.3933  1.1079  1.2388
18830TIP3    H277906   1.523   0.199  12.416 -0.2670 -0.8828 -1.1317
18831TIP3   OH277907   1.423   4.656  16.787 -0.0253 -0.6583 -0.5201
18831TIP3    H177908   1.420   4.561  16.787 -0.4312 -0.6718  1.3383
18831TIP3    H277909   1.491   4.677  16.722 -0.5000 -2.1504 -1.5624
18832TIP3   OH277910   5.410   3.016  12.887  0.2194 -0.1845 -0.7124
18832TIP3    H177911   5.332   3.032  12.940  0.0682 -1.7857 -0.4121
18832TIP3    H277912   5.444   3.104  12.868  0.9430  0.4864  2.9732
18833TIP3   OH277913   1.315   3.638  12.734 -0.8353  0.0718  0.3568
18833TIP3    H177914   1.408   3.656  12.718 -0.5156  0.4458  2.3735
18833TIP3    H277915   1.298   3.558  12.686 -0.0739  1.1711 -1.8862
18834TIP3   OH277916   5.062   2.062   2.552  0.0226  0.0218 -0.3221
18834TIP3    H177917   5.096   1.997   2.490 -0.1931 -0.2983 -0.1052
18834TIP3    H277918   5.139   2.089   2.603 -0.1547 -1.2646  0.6889
18835TIP3   OH277919   0.266   0.117   3.464 -0.1107 -0.4872 -0.3478
18835TIP3    H177920   0.250   0.150   3.552  1.7433  0.6822 -0.3890
18835TIP3    H277921   0.204   0.163   3.408 -1.0726 -0.9921  0.2689
18836TIP3   OH277922   1.021   6.095   3.288 -0.0749  0.0636  0.3747
18836TIP3    H177923   1.004   6.005   3.317 -2.7902  1.0476  2.3099
18836TIP3    H277924   1.025   6.089   3.193 -0.3228 -2.0780  0.4413
18837TIP3   OH277925   5.148   1.195   4.135 -0.4854 -0.2981 -0.1835
18837TIP3    H177926   5.194   1.114   4.115 -1.9777 -0.6961 -2.4227
18837TIP3    H277927   5.212   1.264   4.116  0.1408 -0.8996 -0.3088
18838TIP3   OH277928   5.636   0.534  16.138 -0.5216  0.1318 -0.6147
18838TIP3    H177929   5.708   0.575  16.188 -0.8259 -1.0061  0.8132
18838TIP3    H277930   5.645   0.570  16.050  0.7937  1.2786 -0.0500
18839TIP3   OH277931   2.465   5.412   0.598  0.1066  0.6373  0.5123
18839TIP3    H177932   2.415   5.334   0.573  0.0703 -0.1567  2.8158
18839TIP3    H277933   2.404   5.464   0.649  0.4556  1.6843 -0.1105
18840TIP3   OH277934   4.421   3.701  17.075 -0.0984 -0.3758  0.1200
18840TIP3    H177935   4.465   3.623  17.042 -0.6494  0.1594 -2.0169
18840TIP3    H277936   4.418   3.761  17.000 -1.0457  1.0990  1.2749
18841TIP3   OH277937   3.422   1.834  12.029 -0.2706 -0.2513 -0.0068
18841TIP3    H177938   3.350   1.863  12.085  1.7761  0.3579  2.4807
18841TIP3    H277939   3.481   1.910  12.024 -0.0675 -0.4871 -2.5616
18842TIP3   OH277940   4.993   1.728  17.274  0.1137  0.3428  0.1801
18842TIP3    H177941   5.005   1.635  17.253  0.3965  0.3336  0.3823
18842TIP3    H277942   5.008   1.733  17.368 -2.3885  0.1817  0.6444
18843TIP3   OH277943   1.164   3.931  14.760 -0.3480  0.3147  0.1438
18843TIP3    H177944   1.244   3.887  14.790 -0.8660 -0.7225  0.0302
18843TIP3    H277945   1.129   3.874  14.692 -1.3598  0.6107  0.4033
18844TIP3   OH277946   5.293   5.168  14.525  0.2710  0.0181  0.3944
18844TIP3    H177947   5.234   5.093  14.525 -1.5620  1.3349 -1.7101
18844TIP3    H277948   5.321   5.176  14.616 -0.6411 -2.2732  0.9669
18845TIP3   OH277949   1.880   6.264  12.849 -0.5527 -0.0562 -0.0319
18845TIP3    H177950   1.967   6.224  12.861 -0.6288 -0.5771 -1.1618
18845TIP3    H277951   1.824   6.192  12.822 -1.2335  0.3773  0.2045
18846TIP3   OH277952   4.852   2.128  15.346 -0.1408  0.4087 -0.4186
18846TIP3    H177953   4.756   2.123  15.344 -0.0909 -0.6543 -0.8553
18846TIP3    H277954   4.871   2.199  15.407 -1.2073  0.6273 -0.3183
18847TIP3   OH277955   3.155   3.198  10.953  0.0908 -0.2630 -0.5676
18847TIP3    H177956   3.124   3.112  10.925  0.9803 -0.7118 -0.2154
18847TIP3    H277957   3.220   3.222  10.887  1.8841 -1.1320  0.7889
18848TIP3   OH277958   5.932   4.757   1.882  0.0282 -0.1646  0.4110
18848TIP3    H177959   5.871   4.689   1.907  0.1361 -0.1925  0.5942
18848TIP3    H277960   5.887   4.839   1.903  0.2312 -0.1905  0.9608
18849TIP3   OH277961   6.543   6.005  12.219 -0.0703 -0.0692 -0.0068
18849TIP3    H177962   6.479   5.934  12.231 -0.2106  0.0122 -0.2742
18849TIP3    H277963   6.536   6.028  12.127 -0.3455  0.5952  0.1757
18850TIP3   OH277964   0.932   6.075  12.929 -0.1395 -0.0259  0.2542
18850TIP3    H177965   0.893   6.136  12.866  0.1286  0.1787  0.2846
18850TIP3    H277966   0.873   6.077  13.004 -1.4687 -1.6478 -0.6899
18851TIP3   OH277967   1.712   6.122  13.286  0.0207  0.1120 -0.0884
18851TIP3    H177968   1.625   6.156  13.305  0.3304  0.5590  0.6023
18851TIP3    H277969   1.760   6.198  13.251  0.0731 -0.1848 -0.6832
18852TIP3   OH277970   1.224   2.034   4.559  0.7256 -0.0797  0.3500
18852TIP3    H177971   1.139   2.067   4.531  1.0405  1.1316  0.7593
18852TIP3    H277972   1.260   1.992   4.480 -0.1499 -0.4332  0.1219
18853TIP3   OH277973   5.601   5.959  11.879 -0.1193 -0.8405 -0.4488
18853TIP3    H177974   5.546   5.880  11.874  0.8698 -1.5598 -0.1884
18853TIP3    H277975   5.541   6.028  11.909 -1.2513 -1.2327 -1.6953
18854TIP3   OH277976   1.862   0.650  15.007  0.1441  0.1292 -0.4108
18854TIP3    H177977   1.822   0.614  14.928  0.0280 -1.8745  0.5098
18854TIP3    H277978   1.797   0.634  15.075  1.5388 -1.1404  0.6790
18855TIP3   OH277979   0.364   5.449   0.370  0.8320  0.9256 -0.8098
18855TIP3    H177980   0.302   5.411   0.308 -0.4471  0.7083  0.5328
18855TIP3    H277981   0.317   5.524   0.408  0.5739 -0.3509  1.5998
18856TIP3   OH277982   2.532   0.300   1.747 -0.2857 -0.4076 -0.4410
18856TIP3    H177983   2.550   0.262   1.661  1.0854 -0.3295 -0.2005
18856TIP3    H277984   2.565   0.236   1.810 -0.1613  0.0928  0.0109
18857TIP3   OH277985   5.164   3.300   5.723 -0.4332 -0.3222  0.3343
18857TIP3    H177986   5.147   3.276   5.632  0.0298  0.4207  0.0365
18857TIP3    H277987   5.079   3.291   5.767 -0.8062 -0.0585 -0.3186
18858TIP3   OH277988   1.044   1.609  13.486 -0.1977 -0.1713 -0.1288
18858TIP3    H177989   1.057   1.679  13.550  0.4808  1.5118 -1.9792
18858TIP3    H277990   0.949   1.605  13.474 -0.2866 -0.0609  0.5019
18859TIP3   OH277991   4.466   5.130  12.560 -0.1053 -0.0701  0.1838
18859TIP3    H177992   4.436   5.054  12.510 -1.5811 -0.2088  1.2203
18859TIP3    H277993   4.450   5.106  12.651 -1.5150  1.8498  0.4886
18860TIP3   OH277994   6.404   4.979  17.016 -0.7276 -0.4342  0.1857
18860TIP3    H177995   6.455   4.922  17.073  2.4396  0.5823 -1.4040
18860TIP3    H277996   6.382   4.925  16.941 -0.0143 -0.2919 -0.1315
18861TIP3   OH277997   1.378   4.424  15.749  0.2044 -0.2140 -0.2036
18861TIP3    H177998   1.379   4.520  15.751  2.5793 -0.1677  1.9841
18861TIP3    H277999   1.296   4.400  15.791  1.1524  0.9826  2.5458
18862TIP3   OH278000   3.100   3.637   0.868  0.1757 -0.1074 -0.2196
18862TIP3    H178001   3.102   3.704   0.800 -0.7078  0.3919  0.2254
18862TIP3    H278002   3.192   3.612   0.880  0.2875 -1.0516 -2.3927
18863TIP3   OH278003   0.381   4.450   2.677 -0.4583  0.2011  0.6362
18863TIP3    H178004   0.469   4.455   2.640 -0.0978  0.2039  1.4777
18863TIP3    H278005   0.323   4.477   2.606  0.2203  0.2131  0.0842
18864TIP3   OH278006   3.771   0.376   5.444  0.5012  0.0727 -0.3571
18864TIP3    H178007   3.862   0.406   5.443  0.1141  1.3970  1.0702
18864TIP3    H278008   3.720   0.455   5.460 -0.8166 -0.8636  0.2190
18865TIP3   OH278009   4.636   2.453   1.470 -0.0776  0.4384 -0.4828
18865TIP3    H178010   4.670   2.363   1.467 -0.1313  0.3670  0.6746
18865TIP3    H278011   4.714   2.508   1.481 -0.1356  0.4561 -0.1655
18866TIP3   OH278012   1.327   0.986   6.431  0.5737 -0.1693 -0.1123
18866TIP3    H178013   1.268   0.911   6.438 -0.2495  0.4583 -0.0775
18866TIP3    H278014   1.364   0.996   6.518  0.6804 -0.5306 -0.1147
18867TIP3   OH278015   3.994   3.162  12.319 -0.0437  0.7032 -0.4676
18867TIP3    H178016   3.938   3.221  12.368  0.4665  0.3628  0.5448
18867TIP3    H278017   4.042   3.113  12.385 -0.3572 -0.7617 -1.2819
18868TIP3   OH278018   2.867   3.579  12.639 -0.1856  0.4048  0.0753
18868TIP3    H178019   2.926   3.504  12.639 -1.7222 -0.9133  1.9773
18868TIP3    H278020   2.803   3.559  12.571 -1.0286 -0.4306  1.0834
18869TIP3   OH278021   3.806   1.063   5.701  0.3947 -0.5837  0.6852
18869TIP3    H178022   3.808   1.097   5.791 -1.1937 -1.1899  0.9713
18869TIP3    H278023   3.714   1.068   5.675  0.8717 -0.1070 -1.0528
18870TIP3   OH278024   5.998   5.680  14.393 -0.1403 -0.4821  0.0335
18870TIP3    H178025   5.964   5.624  14.323  0.4627 -1.6800  0.6648
18870TIP3    H278026   6.091   5.658  14.398 -0.3496 -1.1269  1.8298
18871TIP3   OH278027   5.145   3.385   3.161  1.0470 -0.4601  0.2747
18871TIP3    H178028   5.209   3.356   3.226 -0.0179 -1.6239  0.8343
18871TIP3    H278029   5.199   3.414   3.087  2.3160  1.4509  1.8365
18872TIP3   OH278030   3.053   4.053   4.829 -0.2953 -0.8938 -0.2876
18872TIP3    H178031   3.102   3.980   4.866  1.6409  0.5569  0.2098
18872TIP3    H278032   3.043   4.032   4.736  1.7381 -1.0668 -0.5092
18873TIP3   OH278033   5.034   1.983   6.632 -0.2373  0.6898 -0.1327
18873TIP3    H178034   4.990   1.923   6.692  2.2176 -1.3412 -0.2159
18873TIP3    H278035   4.962   2.026   6.585 -2.1445 -0.8971  1.1340
18874TIP3   OH278036   0.180   6.465  12.590 -0.0630  0.0879 -0.3041
18874TIP3    H178037   0.086   6.479  12.595 -0.3087 -0.9240 -1.4987
18874TIP3    H278038   0.218   6.539  12.637 -1.4251  1.1043 -0.7322
18875TIP3   OH278039   5.561   4.406  11.778  0.0424 -0.0445 -0.6318
18875TIP3    H178040   5.488   4.414  11.717  0.2769  0.8224 -0.8115
18875TIP3    H278041   5.588   4.315  11.772 -0.9757 -0.3559 -0.6158
18876TIP3   OH278042   3.461   0.094   2.556  0.3475  0.1287  0.4337
18876TIP3    H178043   3.523   0.062   2.621  0.1334  0.7285  0.9365
18876TIP3    H278044   3.437   0.016   2.506 -0.4794 -0.5903  1.8960
18877TIP3   OH278045   4.150   3.187   3.560  0.1239  0.6574 -0.0839
18877TIP3    H178046   4.115   3.271   3.532 -0.3289  1.4427  2.5752
18877TIP3    H278047   4.241   3.206   3.585 -0.1914  0.5545  1.2016
18878TIP3   OH278048   1.094   5.823   5.158 -0.4168 -0.5463  0.2572
18878TIP3    H178049   1.009   5.867   5.153  0.1659  0.5315 -0.8211
18878TIP3    H278050   1.105   5.784   5.071  0.8065  0.5601 -0.1146
18879TIP3   OH278051   0.864   1.751   1.181  0.2429  0.1016 -0.1066
18879TIP3    H178052   0.869   1.778   1.090 -4.6714 -0.6989 -0.9058
18879TIP3    H278053   0.837   1.830   1.228  1.6450  0.2313  0.5445
18880TIP3   OH278054   6.684   3.236   0.006  0.4260 -0.2319 -0.1683
18880TIP3    H178055   6.682   3.259   0.099  2.7038  0.5225 -0.2416
18880TIP3    H278056   6.639   3.309  -0.037 -1.8302 -1.2309  0.3932
18881TIP3   OH278057   3.299   3.282   3.852 -0.2992  0.4960  0.3758
18881TIP3    H178058   3.387   3.306   3.880 -0.0882 -0.6880  0.8024
18881TIP3    H278059   3.280   3.342   3.780  2.0871 -1.1018 -1.8103
18882TIP3   OH278060   4.052   6.651  13.905  0.7412  0.2507  1.3498
18882TIP3    H178061   4.135   6.691  13.929  1.3189 -1.3919  2.2708
18882TIP3    H278062   4.075   6.564  13.871 -0.6242 -0.7810  2.8732
18883TIP3   OH278063   0.652   0.006  11.615  0.0360 -0.1459  0.0154
18883TIP3    H178064   0.618   0.039  11.698  0.0064  0.7140 -0.3205
18883TIP3    H278065   0.605   0.057  11.548 -1.0186 -1.8398 -0.5959
18884TIP3   OH278066   5.375   6.096   3.013  0.2552  0.6154  0.3870
18884TIP3    H178067   5.287   6.093   3.050 -0.2406  3.3832 -0.2976
18884TIP3    H278068   5.368   6.158   2.941  2.2195 -1.1154 -1.4168
18885TIP3   OH278069   0.441   0.405  17.103  0.3433 -0.0091  0.2667
18885TIP3    H178070   0.533   0.408  17.077  0.5951 -0.4536  1.0812
18885TIP3    H278071   0.436   0.460  17.181 -0.1924  0.4200 -0.0525
18886TIP3   OH278072   6.654   5.669  11.265 -0.2047 -0.1494  0.8504
18886TIP3    H178073   6.671   5.578  11.241  0.5031  0.4988 -1.3553
18886TIP3    H278074   6.683   5.675  11.356  0.7745 -1.8663  0.7080
18887TIP3   OH278075   1.334   3.832   4.140  0.2009  0.0119 -0.2517
18887TIP3    H178076   1.428   3.818   4.147  0.2549  0.6580  0.4554
18887TIP3    H278077   1.323   3.886   4.062  0.2918 -1.0756 -1.0395
18888TIP3   OH278078   1.224   3.090  14.065  0.5015 -0.1285 -0.0917
18888TIP3    H178079   1.196   3.162  14.122  2.1402 -0.7011  1.5057
18888TIP3    H278080   1.174   3.104  13.984  0.9703  2.9843  0.0206
18889TIP3   OH278081   1.401   5.164   0.996 -0.4052  0.1406  0.1471
18889TIP3    H178082   1.461   5.219   1.047 -1.1402  0.8519  0.2783
18889TIP3    H278083   1.315   5.202   1.013 -1.0434 -1.5672  0.8891
18890TIP3   OH278084   2.465   6.208  13.553 -0.0180  0.4641  0.0110
18890TIP3    H178085   2.512   6.261  13.489 -0.1555  1.6673  0.8514
18890TIP3    H278086   2.534   6.168  13.606  0.0886  0.2783 -0.2710
18891TIP3   OH278087   2.601   1.633   4.227  0.1725 -0.0636  0.3037
18891TIP3    H178088   2.621   1.621   4.134 -0.2189 -0.4439  0.2689
18891TIP3    H278089   2.651   1.711   4.252 -1.1287  1.1166 -0.6593
18892TIP3   OH278090   3.890   4.618  14.919 -0.0154 -0.0752 -0.0673
18892TIP3    H178091   3.910   4.627  15.013 -0.9933 -0.5665  0.2022
18892TIP3    H278092   3.931   4.694  14.879  0.4881  0.1021  0.7542
18893TIP3   OH278093   2.933   6.447  14.817  0.2953  0.5142 -0.7738
18893TIP3    H178094   2.873   6.510  14.857  1.5918  0.8085  0.7902
18893TIP3    H278095   2.879   6.402  14.752 -1.4281  1.2450  0.0699
18894TIP3   OH278096   3.720   4.611   0.040  0.4893 -0.4009 -0.2189
18894TIP3    H178097   3.669   4.593   0.119 -0.9770  0.1330 -1.0021
18894TIP3    H278098   3.743   4.524   0.007 -1.7412 -0.7805 -0.9575
18895TIP3   OH278099   0.360   5.998  11.326  0.7258 -0.3859 -0.1576
18895TIP3    H178100   0.332   6.087  11.303  1.5452  0.0673  0.5186
18895TIP3    H278101   0.279   5.953  11.350  0.3619  0.3539  0.0395
18896TIP3   OH278102   0.801   4.973   1.519 -0.2399 -0.1529 -0.3869
18896TIP3    H178103   0.851   4.919   1.581 -0.2495 -1.6602 -1.6429
18896TIP3    H278104   0.859   5.047   1.500  1.9742 -2.2380 -2.4170
18897TIP3   OH278105   6.439   5.567  12.093  0.1892 -0.4826  0.1658
18897TIP3    H178106   6.510   5.573  12.029 -0.1959  0.2809 -0.2045
18897TIP3    H278107   6.473   5.509  12.161  0.6387 -1.2549 -0.6894
18898TIP3   OH278108   6.317   6.765  12.804  0.3443  0.0902 -0.7245
18898TIP3    H178109   6.401   6.803  12.832  0.0957 -0.3412  0.6893
18898TIP3    H278110   6.266   6.840  12.773  0.0265  0.9181  1.6210
18899TIP3   OH278111   3.821   6.006  14.725 -0.1008 -0.4621  0.4805
18899TIP3    H178112   3.838   6.086  14.774  2.2529 -0.5159 -0.1127
18899TIP3    H278113   3.788   5.945  14.791  0.5818  0.2219  1.4966
18900TIP3   OH278114   5.138   2.265   4.041 -0.4912  0.2891 -0.0977
18900TIP3    H178115   5.135   2.269   3.946 -2.7990  1.0441 -0.0621
18900TIP3    H278116   5.230   2.248   4.062 -0.1055 -0.9339 -2.4620
18901TIP3   OH278117   5.090   1.344  16.200  0.1915 -0.4298 -0.0575
18901TIP3    H178118   5.151   1.418  16.195  1.1257 -1.1963 -0.2993
18901TIP3    H278119   5.044   1.346  16.115 -1.0713  0.9071  0.6073
18902TIP3   OH278120   0.123   0.295   1.598  0.0198 -0.1118 -0.3024
18902TIP3    H178121   0.082   0.322   1.516  0.2964 -0.5965 -0.6100
18902TIP3    H278122   0.059   0.315   1.666  0.2606  1.3963 -0.4939
18903TIP3   OH278123   0.574   3.303   1.793  0.0820  0.0782 -0.3010
18903TIP3    H178124   0.486   3.332   1.819 -1.1843 -1.8467 -2.1551
18903TIP3    H278125   0.590   3.226   1.848 -0.2294 -0.6801 -1.2433
18904TIP3   OH278126   1.037   0.514   3.476 -0.2514  0.1316  0.2037
18904TIP3    H178127   0.985   0.583   3.435 -0.5906 -0.8466 -1.0572
18904TIP3    H278128   1.015   0.435   3.428  1.0270 -0.6519  0.8483
18905TIP3   OH278129   2.925   3.760   4.783  0.1635 -0.9516 -0.3177
18905TIP3    H178130   2.881   3.693   4.834 -0.7707  0.2409  0.4900
18905TIP3    H278131   2.855   3.819   4.754  0.5761 -1.7371 -3.3170
18906TIP3   OH278132   5.881   5.623  14.975 -0.0325 -0.0274  0.2378
18906TIP3    H178133   5.926   5.595  14.895 -1.6765  0.3235 -0.8605
18906TIP3    H278134   5.805   5.566  14.981  1.0973 -1.4615  2.7552
18907TIP3   OH278135   5.147   4.876  11.141 -0.5634  0.1062  0.1416
18907TIP3    H178136   5.064   4.834  11.118 -0.9673  0.9800 -0.0354
18907TIP3    H278137   5.162   4.939  11.071 -0.2148  0.6074  0.6587
18908TIP3   OH278138   1.881   2.819   3.572 -0.1391 -0.1107  0.6482
18908TIP3    H178139   1.915   2.730   3.583 -0.8427 -0.7063 -1.5041
18908TIP3    H278140   1.787   2.812   3.591 -0.2622  0.1028  0.1196
18909TIP3   OH278141   1.590   5.924  16.189 -0.0933 -0.2888  0.4578
18909TIP3    H178142   1.500   5.925  16.156  0.6912  0.9898 -1.8344
18909TIP3    H278143   1.639   5.872  16.125  1.1175  0.4968  0.7054
18910TIP3   OH278144   2.629   3.728  11.249  0.0745 -0.1918  0.2974
18910TIP3    H178145   2.553   3.781  11.272 -1.4352 -2.0281 -0.1995
18910TIP3    H278146   2.611   3.696  11.161  1.3933 -0.7567  0.1969
18911TIP3   OH278147   6.613   2.526   2.349  0.1042  0.2266  0.1508
18911TIP3    H178148   6.634   2.436   2.324 -3.9113 -1.1427  1.0702
18911TIP3    H278149   6.626   2.529   2.444 -1.5027 -0.0036  0.4024
18912TIP3   OH278150   0.304   1.945  12.814 -0.1780 -0.3015 -1.0145
18912TIP3    H178151   0.372   2.010  12.796  0.1639 -0.3151  0.1548
18912TIP3    H278152   0.352   1.867  12.842 -0.6617  0.1691  1.3635
18913TIP3   OH278153   1.737   6.581   5.175  0.1285  0.1369  0.6909
18913TIP3    H178154   1.659   6.623   5.139  0.9062  0.6261 -0.4889
18913TIP3    H278155   1.716   6.564   5.267 -2.3675 -2.2130 -0.1947
18914TIP3   OH278156   4.295   3.558   5.262  0.3302  0.6126  0.3276
18914TIP3    H178157   4.331   3.474   5.288 -1.6537 -0.5810 -0.5406
18914TIP3    H278158   4.359   3.594   5.201  0.2709 -1.2726 -0.9160
18915TIP3   OH278159   2.744   4.999   5.262  0.4211  0.0353 -0.4379
18915TIP3    H178160   2.769   5.091   5.262 -0.3163  0.2402 -0.4790
18915TIP3    H278161   2.814   4.955   5.310  0.7061  0.6368 -0.2967
18916TIP3   OH278162   6.070   3.886   5.670 -0.4879  0.1635  0.8794
18916TIP3    H178163   6.047   3.864   5.760  0.2223 -0.7126  0.8615
18916TIP3    H278164   5.986   3.906   5.628 -0.7665  1.2417  1.8846
18917TIP3   OH278165   3.237   5.968  14.122  0.0690  0.2884 -0.1563
18917TIP3    H178166   3.192   5.883  14.127  0.9045 -0.1222  0.6612
18917TIP3    H278167   3.321   5.953  14.165 -0.3361  1.9253  1.2736
18918TIP3   OH278168   0.793   0.975  14.284 -0.1429  0.5336 -0.3685
18918TIP3    H178169   0.852   1.047  14.307  0.4931 -0.2562  0.5779
18918TIP3    H278170   0.785   0.924  14.365 -1.0899 -0.1006 -0.8472
18919TIP3   OH278171   1.586   1.714   4.856  0.2186 -0.1191  0.0976
18919TIP3    H178172   1.639   1.794   4.860 -3.5648  2.6201  0.7924
18919TIP3    H278173   1.614   1.670   4.776  2.7041  1.6795 -0.1206
18920TIP3   OH278174   5.683   2.038  14.982  0.5298 -0.7309  0.0950
18920TIP3    H178175   5.751   1.971  14.972  0.5524 -0.8869  1.1657
18920TIP3    H278176   5.602   1.988  14.989  0.0776 -0.5010 -2.6081
18921TIP3   OH278177   4.380   6.671   2.212 -0.1101  0.0043  0.0395
18921TIP3    H178178   4.420   6.678   2.125 -0.8315  1.2648 -0.2211
18921TIP3    H278179   4.405   6.751   2.257  1.0568 -1.0678  1.3767
18922TIP3   OH278180   0.160   5.301   2.676  0.0906  0.7911 -0.2290
18922TIP3    H178181   0.207   5.244   2.615  0.3791  0.8911 -0.0992
18922TIP3    H278182   0.209   5.382   2.676  0.3147  0.6635  0.4300
18923TIP3   OH278183   3.076   4.550   4.455  0.3339 -0.3834 -0.3254
18923TIP3    H178184   3.171   4.548   4.467  0.2934 -0.8353 -0.0657
18923TIP3    H278185   3.043   4.590   4.536  0.2287 -1.2365  0.0596
18924TIP3   OH278186   5.559   6.278  11.704  0.3653  0.1674 -0.1112
18924TIP3    H178187   5.575   6.298  11.612 -0.3033  1.5115  0.0296
18924TIP3    H278188   5.646   6.282  11.745  0.8154 -1.5617 -0.8563
18925TIP3   OH278189   1.551   3.995  10.915 -0.3446 -1.2975  0.4373
18925TIP3    H178190   1.564   4.069  10.856 -1.7755  0.1012  1.7840
18925TIP3    H278191   1.510   3.928  10.860 -1.9322  0.0751 -0.1403
18926TIP3   OH278192   0.300   6.643  14.021 -0.7210 -0.7085  0.4729
18926TIP3    H178193   0.283   6.731  14.053 -2.2054 -1.0424  0.7200
18926TIP3    H278194   0.222   6.593  14.046 -0.4679 -1.7918 -0.7538
18927TIP3   OH278195   1.822   3.010  14.421  0.1399 -0.3612 -0.0987
18927TIP3    H178196   1.785   2.961  14.495 -1.3700  0.5248 -0.2398
18927TIP3    H278197   1.807   2.953  14.346 -0.6018 -0.1957 -0.0895
18928TIP3   OH278198   0.545   4.068   0.264  0.0773 -0.3643  0.7434
18928TIP3    H178199   0.566   4.001   0.329  2.0332  1.3973  2.1111
18928TIP3    H278200   0.521   4.145   0.316  0.0763  0.6270 -0.6550
18929TIP3   OH278201   6.351   3.692  14.367  0.4233 -0.3865 -1.1720
18929TIP3    H178202   6.298   3.663  14.293  0.9284 -0.5233 -1.4799
18929TIP3    H278203   6.404   3.763  14.333  1.1200 -0.8645 -1.1205
18930TIP3   OH278204   5.249   5.145  15.449  0.5970 -0.1014  0.2378
18930TIP3    H178205   5.276   5.105  15.366 -1.0571  1.4836 -1.1463
18930TIP3    H278206   5.290   5.091  15.516  1.8328 -1.5664 -1.6000
18931TIP3   OH278207   4.029   3.035  11.738 -0.0927 -0.3505 -0.6073
18931TIP3    H178208   3.991   3.017  11.824  0.6135 -1.9002 -0.5786
18931TIP3    H278209   4.041   3.130  11.737 -2.9502  0.1068 -0.2468
18932TIP3   OH278210   4.689   1.257  13.587  0.3604  0.3406 -0.4459
18932TIP3    H178211   4.702   1.177  13.536 -3.0879  0.2730 -1.4556
18932TIP3    H278212   4.685   1.227  13.678 -1.6763 -0.8427 -0.8633
18933TIP3   OH278213   0.463   1.241  16.020  0.1263  0.8183 -0.4204
18933TIP3    H178214   0.542   1.259  15.970 -0.5474 -1.1589 -2.3574
18933TIP3    H278215   0.484   1.164  16.073  0.1656  1.6286  0.7755
18934TIP3   OH278216   0.934   6.423  15.855 -0.0525 -0.7298 -0.6551
18934TIP3    H178217   0.867   6.426  15.923 -1.0823 -0.5324 -1.6472
18934TIP3    H278218   0.928   6.507  15.811  1.0497 -0.6033 -0.5965
18935TIP3   OH278219   1.247   5.477  11.304 -0.5040  0.2226 -0.1396
18935TIP3    H178220   1.332   5.522  11.301  1.1662 -2.5970  0.3545
18935TIP3    H278221   1.227   5.469  11.397 -0.9890  0.3034 -0.2348
18936TIP3   OH278222   3.763   4.682   0.591 -0.3176  0.4875  0.0544
18936TIP3    H178223   3.797   4.619   0.655  0.1847 -0.6759 -1.3104
18936TIP3    H278224   3.688   4.638   0.551  0.2951  0.5368 -1.2147
18937TIP3   OH278225   4.875   5.819   3.483  0.1117 -0.3762  0.0337
18937TIP3    H178226   4.886   5.725   3.495 -0.4865 -0.2782  1.4305
18937TIP3    H278227   4.782   5.830   3.464  0.3302 -0.1299 -0.9730
18938TIP3   OH278228   3.769   6.128   1.245 -0.0202  0.2027  0.1377
18938TIP3    H178229   3.834   6.160   1.181 -0.2459 -0.0416 -0.2184
18938TIP3    H278230   3.745   6.041   1.213  0.1653 -0.0876  0.7879
18939TIP3   OH278231   2.426   2.126   0.255  0.1166 -0.1672  0.1377
18939TIP3    H178232   2.424   2.157   0.346 -0.4812  0.6861 -0.1549
18939TIP3    H278233   2.517   2.103   0.240  0.0776 -1.1247  1.2105
18940TIP3   OH278234   4.933   2.644  13.450 -0.0551  0.0325  0.1882
18940TIP3    H178235   4.899   2.677  13.367 -0.2092  2.2458  1.0800
18940TIP3    H278236   4.959   2.722  13.499  0.6963 -1.2509  1.9563
18941TIP3   OH278237   1.810   5.020  14.387  0.0834 -0.0736  0.1824
18941TIP3    H178238   1.738   4.971  14.427 -0.6053 -0.0128 -0.9217
18941TIP3    H278239   1.771   5.060  14.309  0.5738  2.4450  1.1556
18942TIP3   OH278240   3.434   3.420  17.025 -0.0425  0.3782  0.2674
18942TIP3    H178241   3.495   3.347  17.036  0.2524  0.3895 -1.1154
18942TIP3    H278242   3.352   3.388  17.063  0.2122 -0.5130  0.1068
18943TIP3   OH278243   5.783   0.785  13.702 -0.1045 -0.1167 -0.6384
18943TIP3    H178244   5.751   0.827  13.782 -0.8433  0.3437 -1.1628
18943TIP3    H278245   5.706   0.746  13.662  0.3616 -0.8624 -0.8323
18944TIP3   OH278246   3.851   4.158  16.798  0.1998 -0.0870 -0.1399
18944TIP3    H178247   3.908   4.113  16.860 -1.1206 -0.6614  0.6962
18944TIP3    H278248   3.783   4.095  16.777 -0.4679  0.7794 -0.6521
18945TIP3   OH278249   3.199   1.442  13.476 -0.8711 -0.0119 -0.0805
18945TIP3    H178250   3.214   1.459  13.569  0.7800  0.5868 -0.4175
18945TIP3    H278251   3.181   1.529  13.439 -0.4316 -0.0838 -0.4823
18946TIP3   OH278252   3.076   4.273  15.486  0.0523 -0.0009 -0.6759
18946TIP3    H178253   2.997   4.280  15.539  0.7368  0.0642  0.3664
18946TIP3    H278254   3.101   4.363  15.467  0.5974  0.0359  0.1334
18947TIP3   OH278255   6.407   0.189   2.534  0.0490 -0.5528  0.0957
18947TIP3    H178256   6.441   0.278   2.523  0.3005 -0.8934 -2.5073
18947TIP3    H278257   6.485   0.134   2.537 -0.1034 -0.7326  1.7872
18948TIP3   OH278258   2.403   4.911   1.808 -0.0613  0.2647 -0.2003
18948TIP3    H178259   2.350   4.990   1.796  1.3136  1.4615  1.1516
18948TIP3    H278260   2.484   4.942   1.849  0.1104 -1.9710  1.3623
18949TIP3   OH278261   1.766   5.427  12.950 -0.7119  0.1792  0.0171
18949TIP3    H178262   1.809   5.345  12.927 -1.7712 -0.4951  0.3663
18949TIP3    H278263   1.715   5.406  13.028 -0.8099  1.2369  0.2539
18950TIP3   OH278264   5.323   3.093   3.689  0.1437 -0.2268 -0.0894
18950TIP3    H178265   5.273   3.132   3.761  0.1925  0.3817 -0.3857
18950TIP3    H278266   5.257   3.077   3.621  0.4898  1.4230 -0.8365
18951TIP3   OH278267   1.852   2.694  16.460  0.3611  0.0726 -0.3732
18951TIP3    H178268   1.807   2.651  16.388  1.9378 -1.7174 -0.3487
18951TIP3    H278269   1.867   2.625  16.524  1.6217  0.9783  0.3557
18952TIP3   OH278270   5.339   4.062  12.700 -0.1036  0.0167 -0.0973
18952TIP3    H178271   5.351   4.014  12.782  0.4309 -1.0326 -0.7780
18952TIP3    H278272   5.392   4.141  12.712  1.7009 -1.1141 -0.2058
18953TIP3   OH278273   3.952   1.236   0.699  0.2103 -0.0639 -0.4640
18953TIP3    H178274   4.029   1.270   0.745 -1.4710  0.5915  2.0851
18953TIP3    H278275   3.987   1.192   0.621  3.0484  0.9437  0.1455
18954TIP3   OH278276   4.066   6.051   2.383 -0.2980 -0.4071  0.0522
18954TIP3    H178277   4.017   6.046   2.301 -3.6611 -1.7140  1.9288
18954TIP3    H278278   4.040   6.135   2.421  1.0071  0.0574 -0.0387
18955TIP3   OH278279   4.638   3.306   4.088  0.0484 -0.3259 -0.4421
18955TIP3    H178280   4.565   3.368   4.086  0.1018 -0.2834 -1.4532
18955TIP3    H278281   4.663   3.302   4.180 -0.3976  0.6344 -0.2664
18956TIP3   OH278282   0.842   4.689  12.904 -0.2084 -0.5240  0.4826
18956TIP3    H178283   0.801   4.737  12.976 -1.1102  0.3850 -0.5774
18956TIP3    H278284   0.788   4.610  12.894 -1.6103  0.5255 -0.7163
18957TIP3   OH278285   4.147   1.096  15.510 -0.1068 -0.0289 -0.3470
18957TIP3    H178286   4.124   1.017  15.461 -0.9854 -0.7022  1.0809
18957TIP3    H278287   4.072   1.153  15.500  0.7119  0.8596 -1.7515
18958TIP3   OH278288   3.403   6.038  13.448 -0.4013  0.7458 -1.0937
18958TIP3    H178289   3.480   6.041  13.391  1.5738  4.2913  1.3506
18958TIP3    H278290   3.427   5.976  13.517 -0.3515  0.7513 -1.1063
18959TIP3   OH278291   5.581   1.153   2.119 -0.0151 -0.3302  0.4963
18959TIP3    H178292   5.664   1.142   2.073 -0.2020  0.2321  0.0127
18959TIP3    H278293   5.535   1.070   2.108  0.4152 -0.5839  0.6264
18960TIP3   OH278294   3.338   5.499  16.005 -0.0249 -0.0680 -0.1457
18960TIP3    H178295   3.263   5.555  15.987  1.2694  2.0886  0.7915
18960TIP3    H278296   3.414   5.552  15.980  1.2556 -1.9018 -0.3953
18961TIP3   OH278297   1.103   2.665  11.842 -0.0886 -0.0733  0.5126
18961TIP3    H178298   1.109   2.584  11.791  0.5667  0.8171 -0.9075
18961TIP3    H278299   1.165   2.724  11.799 -0.4425  1.1370  1.6081
18962TIP3   OH278300   4.634   0.360   2.214 -0.0363  0.2034  0.0415
18962TIP3    H178301   4.562   0.413   2.180  0.6869  0.9089 -0.4418
18962TIP3    H278302   4.707   0.422   2.223  0.8374 -0.7109 -0.5709
18963TIP3   OH278303   0.075   4.644  16.138 -0.4420 -0.3755 -0.7065
18963TIP3    H178304  -0.008   4.685  16.113  0.1673  0.4043 -1.4907
18963TIP3    H278305   0.105   4.696  16.213  0.1169  0.3668 -1.4305
18964TIP3   OH278306   3.163   5.663  11.648  0.2902  0.1833  0.3863
18964TIP3    H178307   3.255   5.653  11.672  0.0452 -2.6823  0.5395
18964TIP3    H278308   3.117   5.602  11.705 -1.5674  0.6956 -0.4869
18965TIP3   OH278309   5.085   1.256   0.252 -0.9763 -0.1917  0.6067
18965TIP3    H178310   5.105   1.334   0.304 -2.6542  1.8013 -1.5285
18965TIP3    H278311   5.160   1.198   0.266  0.5000  1.9053  2.0270
18966TIP3   OH278312   1.044   4.355  16.428 -0.0771 -0.2005 -0.5872
18966TIP3    H178313   1.063   4.304  16.349 -2.9952 -0.3556 -1.3167
18966TIP3    H278314   1.096   4.314  16.497 -0.6979 -2.8594 -1.5693
18967TIP3   OH278315   2.497   6.460   3.477 -0.7170  0.2866  0.5236
18967TIP3    H178316   2.571   6.420   3.523  0.2119  1.6328  0.2424
18967TIP3    H278317   2.442   6.496   3.547 -0.0248  1.0997  0.6670
18968TIP3   OH278318   2.829   2.138   1.688 -0.5574  0.5857  0.0006
18968TIP3    H178319   2.833   2.129   1.593  0.9323  0.1158  0.0859
18968TIP3    H278320   2.791   2.225   1.702 -0.4076  0.8284 -1.0275
18969TIP3   OH278321   1.772   0.601   5.677  0.2431 -0.0116  0.1035
18969TIP3    H178322   1.802   0.511   5.664 -1.0446 -0.2831 -1.2718
18969TIP3    H278323   1.844   0.656   5.645  0.2970 -0.5879 -0.7691
18970TIP3   OH278324   1.992   6.186  15.099  0.3519 -0.0487  0.1791
18970TIP3    H178325   1.942   6.146  15.170  0.8982  0.4251  0.8395
18970TIP3    H278326   1.949   6.270  15.084 -0.0776 -0.3634 -0.4127
18971TIP3   OH278327   5.915   6.420   1.610 -0.2758  0.3714 -0.4016
18971TIP3    H178328   5.859   6.438   1.686  0.8909  1.1419  0.2867
18971TIP3    H278329   5.853   6.391   1.542 -1.3633 -0.1416  0.7585
18972TIP3   OH278330   4.162   3.706  14.880  0.6916 -0.4351 -0.2785
18972TIP3    H178331   4.097   3.775  14.868  0.4315 -0.6316 -0.0108
18972TIP3    H278332   4.240   3.752  14.912  0.0946 -0.4161  1.2413
18973TIP3   OH278333   5.159   4.615   1.058  0.3483 -0.3499 -0.0962
18973TIP3    H178334   5.202   4.685   1.009 -0.3740  0.1397 -0.0482
18973TIP3    H278335   5.067   4.641   1.060  0.0464 -1.3653 -0.1924
18974TIP3   OH278336   3.392   3.896   4.463 -0.2358  0.4150 -0.1925
18974TIP3    H178337   3.342   3.815   4.476  1.0718 -0.1566  1.7663
18974TIP3    H278338   3.380   3.945   4.545 -0.1205  1.7229 -0.9230
18975TIP3   OH278339   3.439   5.148  15.484  0.2873  0.1714  0.4769
18975TIP3    H178340   3.454   5.211  15.554 -1.2499 -1.3902  2.3546
18975TIP3    H278341   3.363   5.182  15.437 -1.4229 -0.8224  2.3459
18976TIP3   OH278342   3.245   4.366   3.539  0.7890 -0.6688  0.4772
18976TIP3    H178343   3.193   4.311   3.479  0.0108  0.7713 -0.2123
18976TIP3    H278344   3.318   4.309   3.565 -0.0828 -2.0999 -0.0421
18977TIP3   OH278345   2.640   5.262  16.786  0.3036  0.1146  0.3005
18977TIP3    H178346   2.627   5.261  16.691  0.9423  2.8396  0.1307
18977TIP3    H278347   2.552   5.273  16.821  0.2349  0.7195 -0.0510
18978TIP3   OH278348   5.451   0.528  12.267  0.5045 -0.0015 -0.2925
18978TIP3    H178349   5.440   0.608  12.318 -1.2460 -0.7562  0.6140
18978TIP3    H278350   5.502   0.554  12.190  1.1380  1.6709  0.6669
18979TIP3   OH278351   0.958   2.133  14.973 -0.0520  0.0434  0.1599
18979TIP3    H178352   1.028   2.092  14.921  0.1953  0.0735  0.4695
18979TIP3    H278353   1.003   2.197  15.027 -0.3370  0.1420  0.2828
18980TIP3   OH278354   0.669   5.272  13.559 -0.0752  0.1460  0.3999
18980TIP3    H178355   0.752   5.239  13.594 -0.6907 -0.2832  1.5168
18980TIP3    H278356   0.683   5.366  13.546  0.8950 -0.0998 -0.3913
18981TIP3   OH278357   4.442   0.160  13.072  0.1337  0.2103  0.5904
18981TIP3    H178358   4.416   0.081  13.119  0.5742  0.5189  1.3834
18981TIP3    H278359   4.458   0.224  13.141 -1.2256  1.3118 -0.0626
18982TIP3   OH278360   0.551   3.296   4.138  0.1306 -0.1160 -0.0070
18982TIP3    H178361   0.517   3.363   4.079 -1.5187 -0.5208  0.4319
18982TIP3    H278362   0.581   3.226   4.080 -1.8540 -0.6965 -0.4306
18983TIP3   OH278363   1.578   6.007  17.297 -0.1641 -0.2963 -0.6350
18983TIP3    H178364   1.667   6.035  17.274  0.3203 -2.0571 -1.0618
18983TIP3    H278365   1.560   6.051  17.380  1.1478  0.0136 -0.4879
18984TIP3   OH278366   2.673   5.825   5.165  0.0760 -0.3681  0.4165
18984TIP3    H178367   2.627   5.825   5.249 -0.1797 -1.4314  0.2931
18984TIP3    H278368   2.765   5.823   5.188  0.0020 -1.8972  0.7157
18985TIP3   OH278369   5.073   1.640  14.348  0.8039  0.3278  0.3121
18985TIP3    H178370   5.090   1.612  14.438  0.0324 -0.3984  0.2433
18985TIP3    H278371   4.983   1.613  14.331  1.4284 -0.9762 -1.2020
18986TIP3   OH278372   4.422   3.395  16.312  0.0510 -0.6409  0.2879
18986TIP3    H178373   4.378   3.313  16.291  0.6385 -0.8678 -0.0872
18986TIP3    H278374   4.498   3.368  16.364  0.2556 -0.3412  0.1465
18987TIP3   OH278375   2.096   1.651   2.032 -0.4091 -0.2221  0.0917
18987TIP3    H178376   2.148   1.585   1.986 -0.8464 -0.6780  0.2497
18987TIP3    H278377   2.038   1.600   2.089  0.3958  0.3243  1.4597
18988TIP3   OH278378   3.051   1.170  12.324  0.4765  0.1886 -0.3078
18988TIP3    H178379   3.146   1.168  12.323  0.4967 -0.1521 -2.8725
18988TIP3    H278380   3.025   1.079  12.308 -0.3735 -0.0275  1.8379
18989TIP3   OH278381   1.609   3.953   4.777 -0.0817  0.3161 -0.3980
18989TIP3    H178382   1.592   3.975   4.868 -0.4072 -0.9017 -0.1510
18989TIP3    H278383   1.555   4.014   4.727 -1.6088 -0.4180  0.2818
18990TIP3   OH278384   6.409   0.081   6.309 -0.4364 -0.0804  0.2427
18990TIP3    H178385   6.351   0.032   6.368 -0.3820  0.0700  0.4218
18990TIP3    H278386   6.437   0.016   6.245  1.9333 -1.0849  2.1145
18991TIP3   OH278387   2.141   4.639   6.847 -0.8453 -0.2875 -0.6201
18991TIP3    H178388   2.115   4.718   6.799  0.4319 -0.8012 -2.2640
18991TIP3    H278389   2.116   4.566   6.790  0.9837 -0.8995 -0.7285
18992TIP3   OH278390   6.129   5.036  12.036 -0.0861 -0.5888  0.2557
18992TIP3    H178391   6.155   4.951  12.071  0.7023  0.4059  2.2334
18992TIP3    H278392   6.208   5.070  11.995 -0.1564 -0.4414  0.2414
18993TIP3   OH278393   0.242   4.186  15.743  0.5556  0.2084  0.2143
18993TIP3    H178394   0.233   4.190  15.838  0.8419  1.9485  0.2041
18993TIP3    H278395   0.328   4.145  15.729  2.2706  3.2766  0.8688
18994TIP3   OH278396   6.170   6.733   2.211  0.1277  0.3529  0.1622
18994TIP3    H178397   6.230   6.658   2.206  0.6186  0.7744 -0.3809
18994TIP3    H278398   6.193   6.787   2.136  2.3159  2.9532  2.4972
18995TIP3   OH278399   0.264   2.320   1.062 -0.6041  0.0079  0.2667
18995TIP3    H178400   0.295   2.324   1.152  0.5355 -0.6433 -0.0782
18995TIP3    H278401   0.302   2.398   1.020  0.1976 -0.5266 -0.0304
18996TIP3   OH278402   1.341   4.806   5.837  0.0776 -0.2399 -0.2965
18996TIP3    H178403   1.310   4.717   5.824 -2.2295  0.2504  1.2046
18996TIP3    H278404   1.294   4.858   5.772  0.3413  0.0453 -0.2617
18997TIP3   OH278405   5.401   1.298  11.690  0.7070 -0.0674  0.2994
18997TIP3    H178406   5.372   1.364  11.627  1.0944 -0.9516 -0.8265
18997TIP3    H278407   5.420   1.220  11.638 -1.3410 -1.6697  1.7434
18998TIP3   OH278408   1.631   5.846  13.305  0.5690  0.3130  0.9114
18998TIP3    H178409   1.668   5.932  13.286 -0.7920  0.7922  0.2610
18998TIP3    H278410   1.680   5.786  13.249  0.1589  0.9788 -0.2037
18999TIP3   OH278411   0.024   1.272   3.328 -0.8094 -0.2177 -0.3511
18999TIP3    H178412   0.054   1.273   3.419 -0.0393  1.8908 -0.5855
18999TIP3    H278413   0.021   1.179   3.305 -0.3164 -0.7531  1.5983
19000TIP3   OH278414   2.427   2.500  15.741 -0.3046 -0.2577  0.6324
19000TIP3    H178415   2.497   2.460  15.793 -0.5495 -1.2297  0.2462
19000TIP3    H278416   2.371   2.426  15.717 -1.1187  0.4193  0.4051
19001TIP3   OH278417   1.655   2.745  15.009 -0.2796  1.0186  0.2618
19001TIP3    H178418   1.671   2.669  15.064 -2.4834 -0.4814 -1.0331
19001TIP3    H278419   1.709   2.731  14.931 -2.4704 -0.5948 -1.0827
19002TIP3   OH278420   1.145   3.633   4.071  0.2112  0.0052 -0.3412
19002TIP3    H178421   1.093   3.677   4.004 -0.4656  1.1187  0.8673
19002TIP3    H278422   1.217   3.695   4.088 -0.0140  0.0486  0.4483
19003TIP3   OH278423   0.390   0.575   2.391 -0.0103  0.0606 -0.1252
19003TIP3    H178424   0.405   0.541   2.479  1.3238  0.5073 -0.1598
19003TIP3    H278425   0.354   0.663   2.405 -3.2218 -1.1477 -0.0387
19004TIP3   OH278426   5.743   3.319  12.968 -0.0671  0.1583  0.3381
19004TIP3    H178427   5.825   3.269  12.969  0.5545  1.1284  2.2947
19004TIP3    H278428   5.755   3.383  12.898  0.4443 -0.3276 -0.0252
19005TIP3   OH278429   6.621   5.951   0.260 -0.3561 -0.0496  0.0862
19005TIP3    H178430   6.716   5.959   0.250 -0.3220 -1.2667 -0.8615
19005TIP3    H278431   6.603   5.986   0.347  0.6693  2.1843 -0.5301
19006TIP3   OH278432   1.139   5.928  15.622  0.1855 -0.3255 -0.9089
19006TIP3    H178433   1.111   6.019  15.636  5.8373  1.7488 -0.5236
19006TIP3    H278434   1.187   5.931  15.539 -0.3388 -3.3470 -1.4250
19007TIP3   OH278435   3.947   1.585   3.128  0.5439  0.0262 -0.1430
19007TIP3    H178436   4.004   1.510   3.145  0.4780 -0.2171 -0.9822
19007TIP3    H278437   3.929   1.621   3.215  2.8125  0.7497  0.0941
19008TIP3   OH278438   2.279   5.557   0.073 -0.3005  0.3385  0.0314
19008TIP3    H178439   2.323   5.634   0.108  0.0983 -0.1127  0.5407
19008TIP3    H278440   2.257   5.581  -0.017  0.2567  0.8664  0.0276
19009TIP3   OH278441   0.375   4.704  16.689 -0.0704  0.4195  0.2570
19009TIP3    H178442   0.311   4.775  16.698 -0.4695 -0.0820  1.4754
19009TIP3    H278443   0.353   4.663  16.605  0.1819  1.7369 -0.4833
19010TIP3   OH278444   3.243   3.667  13.218 -0.3661 -0.4124  0.2314
19010TIP3    H178445   3.332   3.651  13.187 -0.1584  2.2582 -0.8457
19010TIP3    H278446   3.253   3.689  13.311  0.5520  2.4428 -0.4461
19011TIP3   OH278447   4.258   1.786  12.322  0.4512 -0.0329 -0.1127
19011TIP3    H178448   4.202   1.831  12.385  0.9305 -0.1141  0.3905
19011TIP3    H278449   4.278   1.852  12.256  1.5688  0.6920  0.8878
19012TIP3   OH278450   5.109   0.345  11.478 -0.1802  0.2067 -0.5265
19012TIP3    H178451   5.093   0.340  11.572  0.6734 -2.5343 -0.4407
19012TIP3    H278452   5.027   0.317  11.438 -0.7950  2.0839 -0.7007
19013TIP3   OH278453   1.795   0.754  17.057 -0.1386 -0.7905 -0.0178
19013TIP3    H178454   1.780   0.834  17.007 -0.2028 -0.3551  0.6826
19013TIP3    H278455   1.709   0.713  17.064 -0.5395  0.2089  1.4852
19014TIP3   OH278456   0.634   2.426   5.204 -0.4532  0.0616 -0.3288
19014TIP3    H178457   0.707   2.368   5.228  0.1399  1.5516  1.6985
19014TIP3    H278458   0.616   2.404   5.113  2.5512 -0.3546 -0.9219
19015TIP3   OH278459   4.699   5.579  11.985  0.8056 -0.2038 -0.5759
19015TIP3    H178460   4.670   5.515  12.050  1.9425  1.1959  1.4052
19015TIP3    H278461   4.729   5.654  12.036  0.1393  1.7029 -2.7769
19016TIP3   OH278462   6.053   3.778  17.170  0.0807  0.1321  0.1223
19016TIP3    H178463   6.013   3.832  17.101 -0.1584  0.3822  0.4524
19016TIP3    H278464   6.136   3.749  17.132  0.6538  1.4810  0.2650
19017TIP3   OH278465   3.289   6.411   1.390 -0.4521 -0.0878 -0.8280
19017TIP3    H178466   3.270   6.401   1.483 -0.0416  1.4820 -0.5307
19017TIP3    H278467   3.362   6.351   1.373  2.4038  2.5287  0.9459
19018TIP3   OH278468   4.308   0.538  14.584  0.3098 -0.3056 -0.8494
19018TIP3    H178469   4.319   0.480  14.660  1.4237  1.4733  0.4181
19018TIP3    H278470   4.315   0.626  14.620 -0.4886  0.6268 -2.8496
19019TIP3   OH278471   1.551   0.433   0.459  0.0052  0.7528  0.1935
19019TIP3    H178472   1.456   0.421   0.457  0.2808 -1.7530 -0.1773
19019TIP3    H278473   1.585   0.352   0.496  2.0027  1.7513  0.6694
19020TIP3   OH278474   4.991   3.786   1.362 -0.0019  0.3697  1.0868
19020TIP3    H178475   4.980   3.744   1.447 -0.0471 -0.1738  0.8144
19020TIP3    H278476   5.014   3.877   1.383 -2.2634  0.8705  1.6797
19021TIP3   OH278477   2.338   1.789  11.669 -0.1060 -0.1820 -0.0576
19021TIP3    H178478   2.293   1.707  11.646  1.3211 -0.7709 -0.8977
19021TIP3    H278479   2.350   1.784  11.763 -1.4841 -0.1609  0.1353
19022TIP3   OH278480   3.732   4.419  16.766 -0.1162  0.2602  0.0212
19022TIP3    H178481   3.684   4.432  16.848 -1.9565 -1.6274 -0.6509
19022TIP3    H278482   3.766   4.330  16.772  0.4578  0.4018 -0.9247
19023TIP3   OH278483   1.606   4.221  12.940  0.2688 -0.3001  0.5779
19023TIP3    H178484   1.623   4.138  12.986  3.0673  0.2373  0.6778
19023TIP3    H278485   1.647   4.210  12.854 -4.4455 -1.0998 -1.8813
19024TIP3   OH278486   5.357   4.907   1.796  0.5816  0.3469  0.0187
19024TIP3    H178487   5.431   4.960   1.823  0.8442 -0.4179  0.8582
19024TIP3    H278488   5.395   4.821   1.776  0.0983  0.3180 -0.8201
19025TIP3   OH278489   4.799   2.557   0.828  0.4262 -0.3851 -0.5518
19025TIP3    H178490   4.799   2.462   0.840 -2.3789 -0.5171 -0.8488
19025TIP3    H278491   4.816   2.592   0.915  1.1776 -1.1262 -0.3823
19026TIP3   OH278492   2.843   0.641   0.474  0.2224 -0.5810 -0.3186
19026TIP3    H178493   2.913   0.605   0.530 -0.1748 -0.2257  0.4245
19026TIP3    H278494   2.859   0.735   0.474  1.4667 -0.7286 -2.5500
19027TIP3   OH278495   2.182   3.556   3.899  0.1274 -0.4261 -0.0281
19027TIP3    H178496   2.215   3.483   3.846 -0.9941 -1.4176  0.5896
19027TIP3    H278497   2.238   3.556   3.977  0.5000 -0.2518 -0.2946
19028TIP3   OH278498   6.068   2.562  13.508 -0.7344  0.5501  0.7436
19028TIP3    H178499   6.038   2.648  13.537 -0.3659  0.4474  1.4424
19028TIP3    H278500   5.997   2.530  13.452 -0.2109  1.9560 -0.8219
19029TIP3   OH278501   2.824   3.241   4.186  0.2455 -0.1594  0.8382
19029TIP3    H178502   2.908   3.264   4.226  0.3284 -1.5234  1.5202
19029TIP3    H278503   2.844   3.166   4.129 -0.3877 -0.0657  0.4815
19030TIP3   OH278504   2.508   0.450   3.316 -0.2073  0.5484 -0.1236
19030TIP3    H178505   2.435   0.402   3.356  0.7388 -0.3431  0.5807
19030TIP3    H278506   2.473   0.481   3.232 -1.5737  0.6499  0.4578
19031TIP3   OH278507   4.827   2.613  13.732 -0.3140  0.4647 -0.3396
19031TIP3    H178508   4.811   2.670  13.657 -0.7301  0.2735 -0.3994
19031TIP3    H278509   4.814   2.524  13.697 -1.0122  0.3949  0.0723
19032TIP3   OH278510   5.315   3.543  14.878  0.2050 -0.2214  0.2774
19032TIP3    H178511   5.329   3.475  14.812  0.5396  0.0807  0.0321
19032TIP3    H278512   5.291   3.620  14.828 -0.8338 -0.3228  0.6002
19033TIP3   OH278513   5.452   4.089   2.617  0.4166 -0.4822 -0.5625
19033TIP3    H178514   5.373   4.061   2.571 -0.2106 -0.1184  0.2832
19033TIP3    H278515   5.474   4.016   2.675  0.0711 -0.1427 -0.0002
19034TIP3   OH278516   2.612   5.951   0.683  0.2817  0.0242  0.3251
19034TIP3    H178517   2.578   5.887   0.745 -2.0094 -0.3280 -1.1739
19034TIP3    H278518   2.692   5.984   0.724 -0.3110 -1.2743  2.7172
19035TIP3   OH278519   4.241   3.001   4.841  0.1114 -0.1912 -0.2868
19035TIP3    H178520   4.266   2.941   4.772 -0.5506 -0.6628 -0.1287
19035TIP3    H278521   4.313   2.999   4.904 -0.3729 -1.6679  0.2633
19036TIP3   OH278522   3.708   6.531  13.658 -0.0636  0.5219 -0.0912
19036TIP3    H178523   3.677   6.540  13.568 -0.9716  2.3950  0.3595
19036TIP3    H278524   3.747   6.616  13.678 -0.2845  0.2931  1.4350
19037TIP3   OH278525   1.279   4.102   5.496 -0.1325  0.3583  0.1064
19037TIP3    H178526   1.282   4.143   5.409  1.1958 -0.1653 -0.1250
19037TIP3    H278527   1.232   4.165   5.551  2.1106  2.3970 -0.1417
19038TIP3   OH278528   6.035   3.079   4.425  0.1918 -1.0266  0.0426
19038TIP3    H178529   5.950   3.120   4.406 -1.3850 -3.6221  0.9195
19038TIP3    H278530   6.018   3.024   4.501  2.6896 -1.6432  0.2267
19039TIP3   OH278531   1.637   2.026   0.078 -0.1609 -0.3968 -0.1858
19039TIP3    H178532   1.643   1.978  -0.005 -0.3689 -1.1290  0.2118
19039TIP3    H278533   1.725   2.022   0.115  0.0531  0.3711 -0.6117
19040TIP3   OH278534   2.361   3.827   4.939  0.5235 -0.2526 -0.6038
19040TIP3    H178535   2.325   3.779   5.014 -0.8345  0.5497 -0.7121
19040TIP3    H278536   2.354   3.919   4.963  0.1501  0.0140 -1.6745
19041TIP3   OH278537   3.914   2.945   3.061  0.1146  0.1528  0.2867
19041TIP3    H178538   3.940   2.856   3.035 -1.6593 -1.1071  2.4610
19041TIP3    H278539   3.833   2.961   3.012 -0.4436 -0.1347  1.0882
19042TIP3   OH278540   2.839   0.487  15.174  0.0662  0.4402 -0.1956
19042TIP3    H178541   2.803   0.521  15.092 -0.3575  0.7904  0.1329
19042TIP3    H278542   2.764   0.450  15.220  0.5532 -1.2453 -0.6719
19043TIP3   OH278543   1.655   6.749   2.688  0.1792  0.1190 -0.1270
19043TIP3    H178544   1.582   6.702   2.648  0.7445  1.1665 -2.5277
19043TIP3    H278545   1.730   6.690   2.678  0.1175 -0.0494  0.3698
19044TIP3   OH278546   3.359   6.370   0.276  0.5244 -0.1842  0.0345
19044TIP3    H178547   3.347   6.297   0.337 -0.1288  1.0958  1.5013
19044TIP3    H278548   3.382   6.328   0.193 -1.7364 -2.1573  0.3032
19045TIP3   OH278549   0.953   5.184   5.864 -0.4115 -0.4792 -0.7725
19045TIP3    H178550   1.045   5.178   5.836 -0.2928 -1.7248 -0.1932
19045TIP3    H278551   0.917   5.097   5.845 -1.3337 -0.1574 -0.5280
19046TIP3   OH278552   6.769   1.036   2.787 -0.2225  0.3174  0.6340
19046TIP3    H178553   6.783   1.088   2.866 -0.0551 -1.9259  2.1691
19046TIP3    H278554   6.759   0.946   2.818 -1.2072 -0.5312 -1.8272
19047TIP3   OH278555   1.870   1.102  14.448  0.5379  0.4152 -0.1318
19047TIP3    H178556   1.905   1.107  14.537  1.7297 -0.3443 -0.5380
19047TIP3    H278557   1.915   1.027  14.408 -0.2358  0.5237 -1.2680
19048TIP3   OH278558   1.736   1.064   2.653 -0.4943 -0.2533 -0.3604
19048TIP3    H178559   1.689   0.980   2.654  0.8887 -1.0690  0.6290
19048TIP3    H278560   1.679   1.123   2.702 -0.2284 -1.4281  1.4931
19049TIP3   OH278561   6.570   5.146  10.839  0.5551 -0.3678 -0.2934
19049TIP3    H178562   6.559   5.241  10.828  0.8521  0.2664  3.6298
19049TIP3    H278563   6.490   5.117  10.882  0.3117 -2.0304 -1.7552
19050TIP3   OH278564   0.935   2.745   0.928  0.2246 -0.1918 -0.1329
19050TIP3    H178565   0.873   2.760   0.999  1.8871  1.1285  1.0989
19050TIP3    H278566   0.879   2.727   0.852 -1.6046 -1.7493  1.4579
19051TIP3   OH278567   2.009   2.006  11.253  0.1039  0.1952  0.4141
19051TIP3    H178568   2.080   2.062  11.220  1.1722 -0.2641  1.8792
19051TIP3    H278569   1.957   1.987  11.175  1.2642  0.9929 -0.6057
19052TIP3   OH278570   3.508   4.379  13.817  0.1388 -0.4549  0.3925
19052TIP3    H178571   3.487   4.338  13.901  0.7612 -1.4697  0.0716
19052TIP3    H278572   3.600   4.357  13.802  1.0685  2.4835  0.9825
19053TIP3   OH278573   6.507   4.910   6.563  0.2301 -0.2887  0.2729
19053TIP3    H178574   6.420   4.874   6.550  0.7927 -1.1858 -1.1741
19053TIP3    H278575   6.543   4.858   6.636 -0.4728  0.1929  0.9834
19054TIP3   OH278576   1.558   2.322  12.988 -0.3059 -0.1269  0.4149
19054TIP3    H178577   1.648   2.351  12.970 -0.6526  0.7464  0.0384
19054TIP3    H278578   1.534   2.270  12.912 -0.3547  0.2073  0.2010
19055TIP3   OH278579   3.156   2.726  15.789  0.0271 -0.6428 -0.1019
19055TIP3    H178580   3.072   2.716  15.745  0.8033 -2.0533 -1.3508
19055TIP3    H278581   3.175   2.820  15.781 -1.0446 -0.4417 -0.5021
19056TIP3   OH278582   5.780   1.532  12.538 -0.0904 -0.6181  0.0475
19056TIP3    H178583   5.859   1.485  12.562 -0.6757 -0.2872  2.9379
19056TIP3    H278584   5.807   1.592  12.468  2.0120 -1.0454  0.4478
19057TIP3   OH278585   6.119   4.515  16.083  0.2042 -0.0795  0.4103
19057TIP3    H178586   6.084   4.570  16.153 -2.7566 -0.9011 -0.2791
19057TIP3    H278587   6.086   4.427  16.103  0.7194 -0.6521 -1.1004
19058TIP3   OH278588   5.087   0.294  10.965  0.0248  0.3648 -0.0411
19058TIP3    H178589   5.065   0.309  10.873  2.7885  0.0723 -0.8339
19058TIP3    H278590   5.073   0.200  10.977  0.8405  0.1699 -0.5425
19059TIP3   OH278591   2.234   0.278  13.962 -0.4380  0.7334  0.0246
19059TIP3    H178592   2.275   0.363  13.946  2.0434 -0.3302  0.3350
19059TIP3    H278593   2.301   0.226  14.006 -1.3815 -1.8269 -1.3236
19060TIP3   OH278594   6.361   5.558  11.436  0.0770 -0.0905 -0.2713
19060TIP3    H178595   6.314   5.587  11.358 -2.6497 -2.1373  0.4886
19060TIP3    H278596   6.439   5.614  11.439 -1.0946  1.8724 -2.9162
19061TIP3   OH278597   4.522   2.951   2.386 -0.1830 -0.0566 -0.2847
19061TIP3    H178598   4.457   2.907   2.441 -0.5889  0.3632 -0.4246
19061TIP3    H278599   4.472   3.017   2.338  0.1437 -0.5525 -1.3112
19062TIP3   OH278600   3.108   5.626  12.928 -0.1462 -0.0767 -0.2672
19062TIP3    H178601   3.183   5.680  12.904  0.1404 -0.5575 -0.4731
19062TIP3    H278602   3.058   5.679  12.990 -0.5071  0.9163 -1.3631
19063TIP3   OH278603   5.732   3.090   5.340 -0.9099 -0.2649 -0.3749
19063TIP3    H178604   5.794   3.076   5.268  0.5191  2.4259  0.2197
19063TIP3    H278605   5.775   3.054   5.417 -0.1974  1.2546 -0.0324
19064TIP3   OH278606   4.936   3.075  17.271  0.1214  0.3032 -0.4467
19064TIP3    H178607   4.858   3.065  17.326 -0.0041 -0.9483 -0.8372
19064TIP3    H278608   5.000   3.117  17.328 -0.4485  0.2656  0.2341
19065TIP3   OH278609   6.224   0.392  11.305  0.1750  0.7312 -0.0442
19065TIP3    H178610   6.286   0.423  11.370 -1.1055 -0.3999  1.8030
19065TIP3    H278611   6.161   0.464  11.295  1.3285  1.6245 -1.4556
19066TIP3   OH278612   5.817   5.957   0.537  0.4062 -0.1946  0.5041
19066TIP3    H178613   5.810   6.008   0.456 -0.7348 -0.0317  0.6852
19066TIP3    H278614   5.910   5.938   0.545  0.5761  0.0030 -0.7159
19067TIP3   OH278615   6.148   3.532   0.812 -0.2944  0.3756 -0.0524
19067TIP3    H178616   6.179   3.518   0.902 -2.6026  1.2803  0.9760
19067TIP3    H278617   6.222   3.570   0.766  0.9334 -0.0612  1.4804
19068TIP3   OH278618   4.411   4.189   6.050 -0.0248  0.1099 -0.3788
19068TIP3    H178619   4.444   4.274   6.022  0.3591 -0.3201 -1.2649
19068TIP3    H278620   4.367   4.206   6.133 -0.2340  1.2290 -0.7126
19069TIP3   OH278621   2.155   0.776  12.310  0.7128  0.8553 -0.4733
19069TIP3    H178622   2.138   0.845  12.245  1.1803  0.4740 -1.0049
19069TIP3    H278623   2.068   0.749  12.338  0.5185  1.5086 -0.4254
19070TIP3   OH278624   4.209   4.396   2.909 -0.2725 -0.0459 -0.1202
19070TIP3    H178625   4.278   4.365   2.851  0.4317  1.5934 -0.2207
19070TIP3    H278626   4.142   4.328   2.905  1.0804 -1.4305 -0.4441
19071TIP3   OH278627   4.965   1.628  15.381 -0.2237  0.1928  0.1047
19071TIP3    H178628   5.025   1.605  15.310  0.0130  0.9027  0.0723
19071TIP3    H278629   4.898   1.559  15.379 -1.0655  1.0018 -1.7917
19072TIP3   OH278630   4.425   2.495  16.904  0.3497 -0.0772 -0.0307
19072TIP3    H178631   4.490   2.561  16.926  0.9323 -0.0204 -1.7803
19072TIP3    H278632   4.473   2.412  16.903  0.1238 -0.2103 -0.1117
19073TIP3   OH278633   0.146   1.256   5.499 -0.1462 -0.2344  0.2635
19073TIP3    H178634   0.061   1.296   5.478  1.4007  2.0701 -2.4083
19073TIP3    H278635   0.159   1.190   5.430  1.0664  0.9493 -0.7070
19074TIP3   OH278636   4.602   1.779   3.844 -0.0179  0.3180  0.4105
19074TIP3    H178637   4.528   1.838   3.831 -0.2862 -0.1955 -0.5007
19074TIP3    H278638   4.589   1.742   3.931 -0.7514  0.3451  0.3161
19075TIP3   OH278639   0.876   2.070  13.873  0.0767 -0.1323  0.1164
19075TIP3    H178640   0.895   2.142  13.813 -0.4835 -0.0617  0.0232
19075TIP3    H278641   0.817   2.013  13.825 -2.1067  0.9924  1.3180
19076TIP3   OH278642   3.834   2.626   2.201 -0.0349  0.2145  0.3163
19076TIP3    H178643   3.788   2.570   2.139 -0.0588 -1.5692  1.8542
19076TIP3    H278644   3.926   2.620   2.175 -0.0106 -0.7342  0.6046
19077TIP3   OH278645   2.085   2.930   3.946 -0.0286 -0.3227 -0.3850
19077TIP3    H178646   2.156   2.957   3.888  0.3251 -1.2943 -0.4217
19077TIP3    H278647   2.096   2.984   4.024  1.4683 -1.2542  0.0889
19078TIP3   OH278648   3.974   5.091  16.497 -0.3502  0.0944 -0.6903
19078TIP3    H178649   3.927   5.039  16.432 -0.1049  0.6071 -1.2958
19078TIP3    H278650   4.011   5.164  16.446  1.0072 -0.2334 -0.2150
19079TIP3   OH278651   1.576   5.260  13.831 -0.3604 -0.6169 -0.2122
19079TIP3    H178652   1.532   5.328  13.780  1.5855  1.5971  0.9075
19079TIP3    H278653   1.664   5.256  13.794  0.0482 -1.3910  0.8045
19080TIP3   OH278654   1.888   6.571  14.910  0.2704  0.1266  0.0888
19080TIP3    H178655   1.836   6.650  14.922  0.7181  0.6011 -0.9839
19080TIP3    H278656   1.977   6.602  14.894  0.6496 -0.6346  0.6076
19081TIP3   OH278657   1.533   6.424   3.329 -0.2884  0.5206 -0.1696
19081TIP3    H178658   1.569   6.508   3.356 -0.0363  0.4925 -0.4149
19081TIP3    H278659   1.528   6.373   3.410 -0.4077  0.7563 -0.0278
19082TIP3   OH278660   4.152   5.158   6.516 -0.2795 -0.3672  0.2378
19082TIP3    H178661   4.238   5.153   6.474 -0.0156  2.9593  0.1520
19082TIP3    H278662   4.115   5.070   6.506  1.8592 -1.0839 -2.4115
19083TIP3   OH278663   5.646   3.428  16.870  0.2751 -0.2956 -0.5954
19083TIP3    H178664   5.686   3.342  16.861 -1.0505 -0.8712 -1.1234
19083TIP3    H278665   5.657   3.450  16.963  3.2635  0.3239 -0.9816
19084TIP3   OH278666   4.843   3.895   2.328 -0.6469  0.6716 -0.2077
19084TIP3    H178667   4.937   3.910   2.322 -0.2828 -1.1031  0.4183
19084TIP3    H278668   4.804   3.981   2.313  1.0116  1.2333 -1.6446
19085TIP3   OH278669   1.320   2.260   2.962 -0.0944  0.0981  0.0532
19085TIP3    H178670   1.230   2.291   2.958 -0.2161  0.2088  2.1696
19085TIP3    H278671   1.372   2.336   2.937 -0.5604  0.6046  0.5739
19086TIP3   OH278672   1.810   0.036   5.366 -0.0595  0.5875  0.4345
19086TIP3    H178673   1.750   0.018   5.294  0.9711  2.0194 -0.8273
19086TIP3    H278674   1.766   0.103   5.418 -0.1285  0.6606  0.2803
19087TIP3   OH278675   1.165   2.648  13.596  0.1346  0.1681 -0.0655
19087TIP3    H178676   1.109   2.687  13.529 -1.3145  0.0136  1.0223
19087TIP3    H278677   1.199   2.723  13.645 -1.1193  0.1760  0.8214
19088TIP3   OH278678   5.690   1.323  15.177 -0.2733 -0.4478 -0.1523
19088TIP3    H178679   5.727   1.247  15.221 -0.5679  0.1169  1.0940
19088TIP3    H278680   5.622   1.287  15.120 -0.4143 -1.1108  0.4297
19089TIP3   OH278681   1.527   0.568   6.733  0.2560  0.2889 -0.1437
19089TIP3    H178682   1.598   0.545   6.673  1.0137 -0.0494  0.8616
19089TIP3    H278683   1.477   0.488   6.744  0.9691 -0.0439  0.7901
19090TIP3   OH278684   6.151   4.211   5.201  0.0961 -0.1263  0.2535
19090TIP3    H178685   6.162   4.287   5.144  1.6599  0.2846  1.0500
19090TIP3    H278686   6.142   4.248   5.289 -0.4251 -0.8142  0.4925
19091TIP3   OH278687   5.333   1.105  14.377  0.0288 -0.2333  0.1780
19091TIP3    H178688   5.298   1.194  14.378  4.2628  1.6536  0.8900
19091TIP3    H278689   5.305   1.067  14.460 -2.8134 -0.1491 -0.6317
19092TIP3   OH278690   0.723   0.531  10.764  0.1707  0.4679 -0.5129
19092TIP3    H178691   0.723   0.581  10.845  1.6513  1.3665 -1.0289
19092TIP3    H278692   0.650   0.567  10.714 -1.1074 -0.4763  0.5984
19093TIP3   OH278693   6.192   3.212  15.421 -0.1501  0.6020 -0.0819
19093TIP3    H178694   6.226   3.201  15.332 -0.5904  0.1129 -0.1955
19093TIP3    H278695   6.251   3.159  15.476  0.3136  1.1599 -0.0322
19094TIP3   OH278696   6.525   1.177   2.706 -0.0098  0.1913  0.2863
19094TIP3    H178697   6.595   1.201   2.645 -0.5595 -1.3433 -1.0265
19094TIP3    H278698   6.566   1.114   2.765  0.2385  0.8744  0.8616
19095TIP3   OH278699   6.178   4.814   5.312 -0.2577 -0.8634  0.2306
19095TIP3    H178700   6.167   4.770   5.397 -2.7123 -1.9424 -0.5371
19095TIP3    H278701   6.186   4.907   5.334  0.0609 -1.1965  1.6668
19096TIP3   OH278702   3.099   3.027   3.241  1.4362  0.3325 -0.2975
19096TIP3    H178703   3.122   2.938   3.213  1.7223 -0.1091  1.2439
19096TIP3    H278704   3.155   3.084   3.188  2.1433 -0.4767 -0.4383
19097TIP3   OH278705   6.655   4.018   3.318  0.1031 -0.1378  0.6299
19097TIP3    H178706   6.626   4.102   3.281  1.0992  0.4642  1.1628
19097TIP3    H278707   6.652   3.957   3.245 -1.2421  0.1988  0.3721
19098TIP3   OH278708   3.511   0.976   1.832 -0.0824 -0.3427  0.4110
19098TIP3    H178709   3.501   0.946   1.922 -0.4898  0.1923  0.5484
19098TIP3    H278710   3.462   0.912   1.779 -2.5777  1.0465  0.8700
19099TIP3   OH278711   0.882   6.622   5.726  0.0162 -0.8216  0.2595
19099TIP3    H178712   0.844   6.636   5.640  0.5654 -0.6341  0.0433
19099TIP3    H278713   0.914   6.708   5.753 -1.0027 -0.6675  1.0771
19100TIP3   OH278714   0.338   5.480   2.819 -0.0708  0.0536  0.3625
19100TIP3    H178715   0.378   5.393   2.826 -0.8585 -0.5604 -1.8530
19100TIP3    H278716   0.403   5.533   2.773  0.3639  0.6396  1.6150
19101TIP3   OH278717   3.718   1.994  14.589  0.2432  0.4688  0.2286
19101TIP3    H178718   3.704   2.089  14.584  0.6689  0.5425  0.3999
19101TIP3    H278719   3.630   1.957  14.578 -0.2850  0.9490  2.2938
19102TIP3   OH278720   4.406   1.763  13.792  0.3248 -0.5523 -0.2321
19102TIP3    H178721   4.495   1.753  13.758  0.0501  0.5633 -1.3509
19102TIP3    H278722   4.412   1.832  13.857  0.0612  0.5010 -1.2921
19103TIP3   OH278723   5.728   5.729  14.234  0.2632  0.2408 -0.3245
19103TIP3    H178724   5.683   5.684  14.162 -0.6902 -0.4115  0.6426
19103TIP3    H278725   5.774   5.659  14.281  1.5915  0.7821 -0.7696
19104TIP3   OH278726   1.666   4.246   4.403 -0.0324 -0.3055  0.7993
19104TIP3    H178727   1.615   4.199   4.469  0.2688  0.2458  1.4389
19104TIP3    H278728   1.738   4.285   4.452 -0.6455  1.3940  0.4327
19105TIP3   OH278729   1.157   4.620  17.145  0.2497 -0.4799 -0.1907
19105TIP3    H178730   1.126   4.553  17.206  0.3697 -0.3066  0.0666
19105TIP3    H278731   1.252   4.623  17.159  0.4972 -1.4955 -1.4700
19106TIP3   OH278732   5.576   4.445  13.767 -0.2125  0.5872  0.2384
19106TIP3    H178733   5.611   4.533  13.775 -1.2451  1.0856 -0.4751
19106TIP3    H278734   5.489   4.450  13.806 -0.5120  0.0463 -0.3399
19107TIP3   OH278735   3.666   4.595  11.846 -0.0255  0.4511 -0.0825
19107TIP3    H178736   3.701   4.507  11.841 -2.8262 -0.8746  1.1739
19107TIP3    H278737   3.627   4.611  11.760  1.6419  1.0831 -0.7644
19108TIP3   OH278738   0.374   0.584  11.423 -0.1810  0.0101  0.7120
19108TIP3    H178739   0.377   0.630  11.507 -1.3142 -0.3733  0.9783
19108TIP3    H278740   0.347   0.495  11.446  0.0304 -0.2476 -0.0112
19109TIP3   OH278741   4.536   0.155   4.873  0.6526 -0.5340 -0.1775
19109TIP3    H178742   4.486   0.221   4.921  0.6833 -0.5001 -0.1931
19109TIP3    H278743   4.556   0.195   4.789  0.5309 -0.6235 -0.2497
19110TIP3   OH278744   1.416   5.564   2.719  0.1161  0.1121 -0.3570
19110TIP3    H178745   1.375   5.482   2.744 -0.9805  0.6280 -0.4254
19110TIP3    H278746   1.376   5.630   2.776  0.0166  0.8011 -1.2038
19111TIP3   OH278747   1.619   0.931   1.360  0.2725 -0.0761 -0.8806
19111TIP3    H178748   1.639   0.992   1.289 -1.4198  0.6416 -0.8054
19111TIP3    H278749   1.612   0.986   1.438 -2.6242 -0.0603 -1.0461
19112TIP3   OH278750   5.018   4.401  12.872 -0.1925  0.0278  0.0732
19112TIP3    H178751   5.054   4.479  12.829 -1.9171  0.8342 -0.0247
19112TIP3    H278752   5.026   4.332  12.808 -1.7090  0.9600 -1.1971
19113TIP3   OH278753   4.606   3.615   2.154 -0.0707 -0.3204 -0.3753
19113TIP3    H178754   4.627   3.631   2.246 -0.1680  0.7032 -0.5239
19113TIP3    H278755   4.610   3.701   2.113  0.7957 -0.8728 -1.5139
19114TIP3   OH278756   5.914   2.528  16.062  0.2014 -0.2125  0.4336
19114TIP3    H178757   5.838   2.578  16.090  1.4944  1.6039  0.9164
19114TIP3    H278758   5.925   2.461  16.130  2.0325  2.7987  3.4217
19115TIP3   OH278759   4.229   4.086   4.323  0.7096 -0.6640  0.0886
19115TIP3    H178760   4.215   4.164   4.270  0.9480 -0.5957  0.1277
19115TIP3    H278761   4.318   4.095   4.358  0.6032 -0.7702  0.3952
19116TIP3   OH278762   5.315   0.589   5.062  0.5703  0.8190  0.0908
19116TIP3    H178763   5.348   0.641   4.989  1.0561 -1.1562 -1.1440
19116TIP3    H278764   5.247   0.644   5.101 -0.2082  1.6409 -2.2664
19117TIP3   OH278765   6.149   2.023  14.811  0.3839  0.0897 -0.5434
19117TIP3    H178766   6.206   1.974  14.752  2.6257  0.6388  1.0442
19117TIP3    H278767   6.129   1.962  14.881  0.9052  0.5872  0.0458
19118TIP3   OH278768   3.620   0.464  15.768  0.0509 -0.0855  0.0178
19118TIP3    H178769   3.674   0.543  15.763  0.2377  0.0437  2.6347
19118TIP3    H278770   3.555   0.484  15.836 -0.8584 -1.6408 -0.3561
19119TIP3   OH278771   0.324   4.943   2.004  0.5267  0.5442 -0.2808
19119TIP3    H178772   0.367   4.950   1.919  0.5387 -0.0800 -0.3272
19119TIP3    H278773   0.342   4.854   2.033  0.7191  0.8254  0.4836
19120TIP3   OH278774   0.215   3.092  15.714 -0.1039 -0.3197  0.1022
19120TIP3    H178775   0.138   3.070  15.766 -1.4432  3.5444  0.0997
19120TIP3    H278776   0.288   3.085  15.775 -1.1352  0.4901  1.4962
19121TIP3   OH278777   5.981   6.705  13.795  0.2750 -0.3022  0.2314
19121TIP3    H178778   5.939   6.676  13.714 -1.4676  0.0258  0.9736
19121TIP3    H278779   5.951   6.795  13.807 -0.0544 -0.5704  1.5863
19122TIP3   OH278780   5.398   1.484  14.587 -0.8645  0.3320  0.0726
19122TIP3    H178781   5.374   1.531  14.508  0.8995 -0.6181 -1.0896
19122TIP3    H278782   5.492   1.468  14.578 -0.5163  0.5646  2.5646
19123TIP3   OH278783   1.259   0.141   0.469  0.0802 -0.0079  0.1246
19123TIP3    H178784   1.265   0.221   0.521  1.1407 -1.9655  3.2626
19123TIP3    H278785   1.324   0.153   0.400  1.3522  1.2365  1.4691
19124TIP3   OH278786   0.982   4.918   1.081  0.4537 -0.0508  0.3180
19124TIP3    H178787   1.007   4.946   0.994 -1.3796 -0.3600 -0.3445
19124TIP3    H278788   0.979   4.998   1.133  1.4822  0.1393  0.0985
19125TIP3   OH278789   3.454   0.936  11.981  0.8522  0.3522 -0.2361
19125TIP3    H178790   3.436   0.875  12.051 -1.4169  2.3829  1.1123
19125TIP3    H278791   3.399   0.907  11.908 -1.0937  1.2904  0.7738
19126TIP3   OH278792   5.460   2.149  12.611 -0.0593 -0.7509  0.1137
19126TIP3    H178793   5.382   2.112  12.571 -1.8235  2.3731  0.3242
19126TIP3    H278794   5.438   2.157  12.704  0.1022  0.8993  0.0460
19127TIP3   OH278795   6.368   2.766  11.202  0.2531  0.2886  0.9052
19127TIP3    H178796   6.311   2.842  11.194  1.6525  1.2741 -0.2729
19127TIP3    H278797   6.355   2.735  11.292 -0.9801  1.3887  1.1351
19128TIP3   OH278798   1.374   4.003  17.048  0.1919 -0.1604 -0.4402
19128TIP3    H178799   1.293   4.017  17.098  0.2993 -0.4934 -0.1685
19128TIP3    H278800   1.350   4.026  16.958 -0.1355 -0.0141 -0.3190
19129TIP3   OH278801   6.566   2.941  12.096  0.2250  0.3505  0.2749
19129TIP3    H178802   6.633   2.970  12.159  1.5805 -0.7647 -0.5792
19129TIP3    H278803   6.497   3.007  12.102  1.9975  2.3145  0.2613
19130TIP3   OH278804   6.568   4.420   6.497  0.5933 -0.2085  0.0697
19130TIP3    H178805   6.626   4.416   6.421  0.2054  0.1594 -0.2525
19130TIP3    H278806   6.618   4.468   6.563  1.1159 -0.9537  0.2182
19131TIP3   OH278807   4.288   0.802  12.108 -0.2514  0.1104 -0.5764
19131TIP3    H178808   4.237   0.862  12.163  1.2226 -0.7968  1.9517
19131TIP3    H278809   4.365   0.851  12.082  0.1502 -0.1645  0.0892
19132TIP3   OH278810   6.266   2.021  10.943  0.2763  0.3290 -0.1273
19132TIP3    H178811   6.288   1.998  10.853 -1.3296  0.1713 -0.5147
19132TIP3    H278812   6.268   2.117  10.945  0.6872  0.3244 -0.2175
19133TIP3   OH278813   6.174   0.085  13.980  0.0927  0.0145  0.1252
19133TIP3    H178814   6.097   0.066  13.927 -0.1172  0.7148  0.1611
19133TIP3    H278815   6.248   0.051  13.930 -0.3463 -2.0204  0.7821
19134TIP3   OH278816   4.166   4.800  15.316  0.1272 -0.1470 -0.7108
19134TIP3    H178817   4.188   4.724  15.370  0.1093  0.7422  0.5934
19134TIP3    H278818   4.246   4.818  15.266 -0.4757 -2.1887 -2.5592
19135TIP3   OH278819   0.605   3.531  16.919  0.1046  0.2162  0.3703
19135TIP3    H178820   0.673   3.465  16.926 -0.3978 -0.2046  1.5586
19135TIP3    H278821   0.618   3.587  16.996  2.5076  3.5044 -2.1610
19136TIP3   OH278822   1.662   5.174  13.433  0.7457 -0.4463 -0.6570
19136TIP3    H178823   1.665   5.259  13.478  0.1455 -0.1883 -1.0959
19136TIP3    H278824   1.752   5.141  13.439  1.7451  1.5412 -2.9815
19137TIP3   OH278825   4.545   3.388  11.290 -0.8290 -0.3196  0.6649
19137TIP3    H178826   4.487   3.460  11.316 -0.8695 -0.3225  0.5850
19137TIP3    H278827   4.525   3.375  11.197 -2.6070 -2.0792  1.2281
19138TIP3   OH278828   1.426   3.294  12.804 -0.0613 -0.1478 -0.4986
19138TIP3    H178829   1.418   3.201  12.828  4.3334 -0.6888 -0.2995
19138TIP3    H278830   1.417   3.340  12.887 -3.1649 -0.1574 -0.7113
19139TIP3   OH278831   1.817   2.157   1.357 -0.1889 -0.5649  0.0811
19139TIP3    H178832   1.816   2.120   1.445  0.5546  1.3114  0.9234
19139TIP3    H278833   1.909   2.155   1.331 -0.3746 -0.8876 -0.5615
19140TIP3   OH278834   5.331   6.719   1.648  0.5896 -0.0948 -0.0201
19140TIP3    H178835   5.322   6.765   1.732 -1.1386 -2.2952  1.1164
19140TIP3    H278836   5.264   6.759   1.592 -0.0286 -0.3324  0.5313
19141TIP3   OH278837   1.761   4.450  12.696  0.3067  0.6232 -0.4472
19141TIP3    H178838   1.745   4.355  12.699 -2.3282  1.0109  0.3295
19141TIP3    H278839   1.835   4.459  12.636  0.7803 -1.9356 -0.3817
19142TIP3   OH278840   2.478   3.092  16.837  0.4929 -0.1863 -0.5895
19142TIP3    H178841   2.454   3.154  16.905  2.9268 -0.1250  0.3070
19142TIP3    H278842   2.523   3.145  16.771  1.0161 -0.7179 -0.6702
19143TIP3   OH278843   4.127   4.310  16.096 -0.2408 -0.2973 -0.2722
19143TIP3    H178844   4.043   4.338  16.059  0.1196 -0.2068 -1.0349
19143TIP3    H278845   4.138   4.365  16.174  0.1146  1.2534 -1.3543
19144TIP3   OH278846   4.114   2.017  12.769  0.0975  0.1190  0.1656
19144TIP3    H178847   4.159   2.101  12.772 -0.5046  0.4212  1.8261
19144TIP3    H278848   4.101   1.993  12.861 -1.5776 -0.7861 -0.2628
19145TIP3   OH278849   5.491   1.527   6.270 -0.0578 -0.2656 -0.2507
19145TIP3    H178850   5.417   1.532   6.330  0.2108 -2.0659  0.2960
19145TIP3    H278851   5.563   1.569   6.317 -0.2044 -0.4314  0.1284
19146TIP3   OH278852   3.868   5.445   2.769  0.7611  0.1928  0.0112
19146TIP3    H178853   3.847   5.516   2.708 -0.5609 -0.4508 -0.3086
19146TIP3    H278854   3.882   5.489   2.853 -1.0850  0.7737  0.0568
19147TIP3   OH278855   2.323   6.666   5.231 -0.6908 -0.3166  0.4570
19147TIP3    H178856   2.289   6.577   5.227 -0.7514 -0.2529 -1.0822
19147TIP3    H278857   2.405   6.663   5.182 -0.9852  0.5737 -0.1354
19148TIP3   OH278858   0.028   0.717  11.390 -0.4560 -0.0565 -0.0940
19148TIP3    H178859   0.045   0.623  11.380 -0.6315 -0.0672 -0.2902
19148TIP3    H278860   0.092   0.759  11.332 -1.2589 -0.1062 -1.0357
19149TIP3   OH278861   5.171   5.291   1.911 -0.5855  0.8829  0.2161
19149TIP3    H178862   5.096   5.286   1.852 -2.2464 -2.7355  2.2586
19149TIP3    H278863   5.133   5.285   1.998  1.9581 -1.8943  1.3301
19150TIP3   OH278864   3.061   1.863   5.189 -0.2365  0.1378  0.0083
19150TIP3    H178865   3.133   1.911   5.148 -0.0657  1.6728  1.9557
19150TIP3    H278866   3.094   1.840   5.276 -1.4426 -0.8162  0.2428
19151TIP3   OH278867   0.043   5.738   6.253 -0.0323  0.1697  0.4443
19151TIP3    H178868   0.070   5.722   6.163 -0.5716  1.8233 -0.0494
19151TIP3    H278869   0.109   5.798   6.288 -1.3387  1.8615  0.1675
19152TIP3   OH278870   4.421   0.484   4.128  0.6022  0.8447  0.4439
19152TIP3    H178871   4.364   0.409   4.110  0.3702  0.3139  2.9120
19152TIP3    H278872   4.435   0.525   4.043  0.7334 -1.9599 -1.0103
19153TIP3   OH278873   2.361   6.140   3.247  0.4582  0.0161 -0.3689
19153TIP3    H178874   2.373   6.121   3.340 -0.7233 -0.8879 -0.3772
19153TIP3    H278875   2.311   6.066   3.214  3.9077 -1.5846 -2.5663
19154TIP3   OH278876   0.909   0.906  15.904  0.1694  0.4519 -0.4085
19154TIP3    H178877   0.947   0.861  15.829  0.6854  0.3655 -0.1028
19154TIP3    H278878   0.816   0.883  15.902  0.3798 -0.4407 -0.3897
19155TIP3   OH278879   5.926   3.997  11.270  0.2585 -0.3534 -0.2864
19155TIP3    H178880   5.989   4.066  11.291  1.7277 -1.9846  0.9615
19155TIP3    H278881   5.939   3.981  11.176 -0.0741  0.9713 -0.5908
19156TIP3   OH278882   3.394   3.497   2.424  0.1467 -0.1248 -1.1874
19156TIP3    H178883   3.341   3.503   2.504 -0.6313  1.4458 -1.7669
19156TIP3    H278884   3.478   3.535   2.448 -1.0767  3.3293 -1.8271
19157TIP3   OH278885   0.300   6.150   2.570 -0.2108 -0.7765  0.2094
19157TIP3    H178886   0.385   6.113   2.548  0.3315  0.1605  0.6642
19157TIP3    H278887   0.296   6.233   2.522 -0.2400 -0.1174  1.3069
19158TIP3   OH278888   3.147   5.009  16.218 -0.2415 -0.9543 -0.3630
19158TIP3    H178889   3.132   4.926  16.264  1.0125 -0.0801  1.7407
19158TIP3    H278890   3.102   5.075  16.271  1.8109  0.1830  0.0571
19159TIP3   OH278891   3.903   2.227   5.794 -0.1864 -0.3385 -0.0881
19159TIP3    H178892   3.830   2.276   5.757 -0.2978 -0.2989  0.1794
19159TIP3    H278893   3.979   2.286   5.786 -0.1326 -0.4753 -0.5873
19160TIP3   OH278894   4.091   4.978   0.184 -0.2704  0.0432 -0.1540
19160TIP3    H178895   4.170   4.949   0.231 -1.1977 -0.2518  1.2759
19160TIP3    H278896   4.019   4.939   0.233 -1.3231  0.4563 -1.3408
19161TIP3   OH278897   3.622   6.586   4.537  0.0917  0.7521  0.4438
19161TIP3    H178898   3.554   6.585   4.605 -1.0197  1.3418 -0.6212
19161TIP3    H278899   3.608   6.505   4.488  1.2977  0.0097  1.2589
19162TIP3   OH278900   6.365   1.222   0.271  0.5647  0.4396  0.2465
19162TIP3    H178901   6.342   1.229   0.178 -0.5308  1.1942  0.5609
19162TIP3    H278902   6.320   1.295   0.313  0.3681 -0.3687  1.4988
19163TIP3   OH278903   4.956   4.602  11.211  0.0710 -0.3010 -0.2386
19163TIP3    H178904   4.982   4.646  11.130  0.0522  0.9059  0.3887
19163TIP3    H278905   4.970   4.668  11.279 -1.1333 -0.8566  0.5730
19164TIP3   OH278906   5.287   2.323  11.701 -0.3179  0.5874 -0.4651
19164TIP3    H178907   5.354   2.337  11.768  0.1843  0.2235 -0.8756
19164TIP3    H278908   5.281   2.408  11.656 -0.3960  0.7284 -0.1853
19165TIP3   OH278909   4.073   1.482   3.544 -0.1948 -0.1511 -0.1909
19165TIP3    H178910   3.991   1.507   3.501  0.5250 -0.8561 -2.0449
19165TIP3    H278911   4.140   1.536   3.503  0.3746  0.0524  0.9542
19166TIP3   OH278912   1.685   2.514  11.989  0.1798 -0.0692 -0.2366
19166TIP3    H178913   1.765   2.472  11.956  0.5318 -0.5908  1.2139
19166TIP3    H278914   1.662   2.463  12.067  0.3639  2.1293  1.3270
19167TIP3   OH278915   0.186   2.205   6.742 -0.2151 -0.0213 -0.1945
19167TIP3    H178916   0.166   2.288   6.786  0.5954 -0.7630  1.6600
19167TIP3    H278917   0.102   2.159   6.738 -0.8383  1.1557 -1.9596
19168TIP3   OH278918   5.164   1.680  13.842  0.8151  0.8055  0.5290
19168TIP3    H178919   5.153   1.733  13.763 -0.5984 -0.0671  0.0905
19168TIP3    H278920   5.172   1.743  13.913 -0.3688  1.6206 -0.0285
19169TIP3   OH278921   5.512   5.274  14.674 -0.2020  0.2465  0.0742
19169TIP3    H178922   5.474   5.338  14.734  0.9643  1.1343 -0.0795
19169TIP3    H278923   5.526   5.323  14.593 -4.0911 -1.5458 -1.9208
19170TIP3   OH278924   1.601   2.217   3.839 -0.4059 -0.7962 -0.1146
19170TIP3    H178925   1.623   2.228   3.931  1.1456 -2.3344 -0.2564
19170TIP3    H278926   1.684   2.230   3.793 -1.3998  1.3534 -1.4851
19171TIP3   OH278927   4.014   6.079   0.222  0.0804  0.5531 -0.4722
19171TIP3    H178928   4.042   6.143   0.157 -1.1944  0.8414 -0.7560
19171TIP3    H278929   3.936   6.117   0.262  0.0933 -0.2064  0.3312
19172TIP3   OH278930   0.032   0.694  15.705  0.1846 -0.2409  0.4951
19172TIP3    H178931  -0.043   0.664  15.653 -0.3048  0.6202  0.6767
19172TIP3    H278932  -0.003   0.766  15.757  1.3558  0.8062 -0.1107
19173TIP3   OH278933   1.352   3.490   0.251  0.2394  0.1857  0.4030
19173TIP3    H178934   1.340   3.511   0.343 -0.0598  1.9619  0.0006
19173TIP3    H278935   1.273   3.522   0.208  1.4071  1.6864 -0.7687
19174TIP3   OH278936   3.177   2.371  14.137 -0.5180  0.1290  0.6444
19174TIP3    H178937   3.214   2.430  14.203 -0.0980 -0.9287  1.3716
19174TIP3    H278938   3.253   2.328  14.098 -0.8897 -1.1970  1.3263
19175TIP3   OH278939   1.904   4.219   5.235  0.6069  0.1720 -0.5654
19175TIP3    H178940   1.894   4.246   5.143 -0.7456 -0.8014 -0.7361
19175TIP3    H278941   1.877   4.297   5.285 -0.5621  0.0850 -1.0256
19176TIP3   OH278942   2.586   2.318  16.342  0.6221 -0.1977  0.0878
19176TIP3    H178943   2.647   2.346  16.410 -1.1411  2.6088  0.7095
19176TIP3    H278944   2.625   2.349  16.260  0.2686  1.2837  0.4447
19177TIP3   OH278945   2.981   2.299   3.988 -0.3883  0.1054 -0.8501
19177TIP3    H178946   3.070   2.334   3.993 -0.7289  1.0154 -0.8316
19177TIP3    H278947   2.943   2.342   3.911 -0.6648 -0.6368 -1.1369
19178TIP3   OH278948   5.637   5.489  13.533 -0.1464 -0.0691  0.2604
19178TIP3    H178949   5.657   5.560  13.472 -0.9397 -0.8904 -0.9859
19178TIP3    H278950   5.722   5.453  13.557  0.1865  0.4238 -0.1481
19179TIP3   OH278951   2.957   3.023   5.299  0.8727 -0.2899  0.0496
19179TIP3    H178952   2.944   3.015   5.394  0.2555  1.9957  0.2161
19179TIP3    H278953   2.874   2.994   5.261  0.7502 -0.2432  0.2786
19180TIP3   OH278954   3.529   6.602  11.336 -0.2252  0.1524 -0.3248
19180TIP3    H178955   3.570   6.643  11.260 -0.7116 -0.7473 -1.0894
19180TIP3    H278956   3.437   6.594  11.313 -0.1856 -1.1560 -0.1216
19181TIP3   OH278957   5.283   6.554  17.264 -0.2419  0.0118 -0.6580
19181TIP3    H178958   5.328   6.534  17.347 -0.6240  0.9095 -0.2158
19181TIP3    H278959   5.202   6.598  17.291 -3.2131 -4.3940 -1.2049
19182TIP3   OH278960   3.361   4.234   5.931  0.4575 -0.1502  0.6440
19182TIP3    H178961   3.326   4.269   6.013 -0.0390 -1.1347  0.8619
19182TIP3    H278962   3.285   4.195   5.887  0.7996 -0.0115 -0.0904
19183TIP3   OH278963   5.838   4.032  13.158  0.2104  0.6761 -0.2093
19183TIP3    H178964   5.827   4.076  13.242  1.1587  0.2838  0.1351
19183TIP3    H278965   5.933   4.024  13.148  0.0839 -1.3965 -0.2022
19184TIP3   OH278966   6.077   2.513   3.568  0.0944 -0.1666 -0.0612
19184TIP3    H178967   6.089   2.520   3.473  0.1880  0.2607 -0.0218
19184TIP3    H278968   6.082   2.420   3.586 -0.7459 -0.3167 -0.5805
19185TIP3   OH278969   2.430   5.811   4.101 -0.1758 -0.1612 -0.3876
19185TIP3    H178970   2.391   5.748   4.162  1.6760  0.4883  1.5874
19185TIP3    H278971   2.403   5.780   4.015 -2.5389 -1.3788  0.6965
19186TIP3   OH278972   4.159   1.534   0.915 -0.4139  0.4050 -0.0512
19186TIP3    H178973   4.193   1.618   0.943 -1.6350  0.9558 -0.1638
19186TIP3    H278974   4.101   1.506   0.985 -1.5954  0.6404 -0.8970
19187TIP3   OH278975   4.915   0.633  16.110 -0.3207 -0.5744 -0.6516
19187TIP3    H178976   4.943   0.707  16.164 -2.0627 -0.2968 -0.0739
19187TIP3    H278977   4.908   0.560  16.172  1.6456 -1.3570 -1.2611
19188TIP3   OH278978   1.159   1.997  14.348 -0.4472 -0.1312 -0.2698
19188TIP3    H178979   1.137   1.911  14.384  1.8563 -0.4482  0.5624
19188TIP3    H278980   1.254   1.993  14.334 -0.0454  2.6584  0.9532
19189TIP3   OH278981   1.294   2.887   0.035  0.0016  0.1149 -0.6255
19189TIP3    H178982   1.222   2.844   0.082 -1.1562 -0.9597 -3.1829
19189TIP3    H278983   1.368   2.827   0.044  0.7621  1.3185  2.1866
19190TIP3   OH278984   5.576   2.969  13.970 -0.1115 -0.1442 -0.5296
19190TIP3    H178985   5.654   2.965  14.026  0.3152  0.1322 -1.1016
19190TIP3    H278986   5.508   3.004  14.028  0.4343  0.5477 -0.2907
19191TIP3   OH278987   1.918   1.299   1.749  0.0146 -0.1500 -0.2530
19191TIP3    H178988   1.911   1.204   1.750 -0.7399 -0.1226 -1.2084
19191TIP3    H278989   1.849   1.330   1.807 -0.2284 -0.1694 -0.5305
19192TIP3   OH278990   4.217   6.504  16.404  0.1191 -0.0428  0.2996
19192TIP3    H178991   4.304   6.520  16.443  1.0741 -1.3462 -1.1953
19192TIP3    H278992   4.161   6.487  16.480  1.7892 -1.9359  1.2052
19193TIP3   OH278993   5.000   1.864   0.462  0.0509 -0.4301 -0.1744
19193TIP3    H178994   4.959   1.778   0.463 -0.1326 -0.3460  0.5629
19193TIP3    H278995   5.063   1.862   0.534 -0.6644  0.3722  0.5049
19194TIP3   OH278996   3.637   2.567   5.516  0.1524 -0.7675  0.4454
19194TIP3    H178997   3.714   2.532   5.472 -0.2332 -1.7622  0.5461
19194TIP3    H278998   3.607   2.496   5.572 -0.6186 -0.2566  0.6922
19195TIP3   OH278999   2.866   5.038   2.591 -0.2896  0.0046 -0.0862
19195TIP3    H179000   2.923   5.104   2.552  0.1545  0.1284  0.7569
19195TIP3    H279001   2.824   5.083   2.665 -4.1657  1.0466 -2.5767
19196TIP3   OH279002   0.854   3.289  16.493  0.5856 -0.1922 -0.6230
19196TIP3    H179003   0.892   3.202  16.484 -0.1474 -0.5051 -0.7982
19196TIP3    H279004   0.776   3.287  16.437  0.5118  0.5462 -0.5620
19197TIP3   OH279005   5.294   5.695  14.963 -0.1885  0.9227  0.6661
19197TIP3    H179006   5.331   5.653  15.041  0.0808  0.4173  0.2751
19197TIP3    H279007   5.208   5.654  14.952 -0.4695  1.4108  1.0275
19198TIP3   OH279008   1.146   4.805  14.721 -0.1565 -0.5677 -0.3175
19198TIP3    H179009   1.214   4.751  14.681  2.0149  1.9651 -0.4016
19198TIP3    H279010   1.064   4.776  14.681  1.1701 -2.2242 -1.9804
19199TIP3   OH279011   2.138   1.895   1.493 -0.5207 -0.4867  0.1059
19199TIP3    H179012   2.169   1.822   1.547  0.9979  0.8183  1.1227
19199TIP3    H279013   2.056   1.922   1.534 -1.1885 -1.7002 -0.3852
19200TIP3   OH279014   0.303   2.319   0.394  0.5613 -0.5398  0.1233
19200TIP3    H179015   0.371   2.369   0.350 -0.1521  0.0415 -0.3470
19200TIP3    H279016   0.338   2.301   0.481  1.4652 -0.5924 -0.2375
19201TIP3   OH279017   2.181   2.683   0.907  0.4248  0.1199  0.7371
19201TIP3    H179018   2.240   2.750   0.873  2.0412 -0.1063  2.8893
19201TIP3    H279019   2.209   2.669   0.997 -2.2805 -0.7838  1.5485
19202TIP3   OH279020   2.163   2.194   5.326  0.1142  0.5707  0.1671
19202TIP3    H179021   2.228   2.180   5.395 -0.6213  1.3146  1.0314
19202TIP3    H279022   2.119   2.110   5.317 -0.6693  0.7847  1.5677
19203TIP3   OH279023   4.558   6.602   6.353 -0.0414 -0.5155  0.0795
19203TIP3    H179024   4.485   6.543   6.331 -0.7381  0.5276 -0.5270
19203TIP3    H279025   4.613   6.601   6.275  0.4929 -1.1413  0.4594
19204TIP3   OH279026   0.944   0.046  15.502 -0.3271 -0.5316 -0.1237
19204TIP3    H179027   0.905   0.090  15.578 -0.6789 -1.9963  0.5803
19204TIP3    H279028   1.038   0.046  15.521 -0.1716  0.9868 -0.7380
19205TIP3   OH279029   1.156   4.939   5.684 -0.6707  0.0897  0.2130
19205TIP3    H179030   1.174   5.028   5.713 -1.3075  0.1990  0.2660
19205TIP3    H279031   1.070   4.943   5.643 -0.3851 -0.3479 -0.4607
19206TIP3   OH279032   5.023   5.864   0.728 -0.8232 -0.6506  0.1961
19206TIP3    H179033   5.013   5.946   0.681  0.4462 -0.8162 -0.4183
19206TIP3    H279034   5.024   5.797   0.659  0.9547 -0.9098  0.4080
19207TIP3   OH279035   6.594   4.535   4.537 -0.3742  0.4939 -0.2924
19207TIP3    H179036   6.634   4.606   4.588  2.3551 -1.2492  0.1614
19207TIP3    H279037   6.525   4.501   4.594  0.9689  0.2078  1.2368
19208TIP3   OH279038   1.781   6.715   4.575 -0.0728 -0.1799 -0.0714
19208TIP3    H179039   1.829   6.771   4.637 -0.1568 -1.4464  1.1774
19208TIP3    H279040   1.836   6.637   4.565 -0.5170 -0.4005 -0.8875
19209TIP3   OH279041   1.729   3.874   1.843  0.0083  0.1266 -0.0430
19209TIP3    H179042   1.769   3.803   1.893  1.0903 -0.7770 -2.0391
19209TIP3    H279043   1.690   3.932   1.908 -0.0899 -1.8205  1.6970
19210TIP3   OH279044   1.696   2.240  11.480 -0.2024  0.1100 -0.5521
19210TIP3    H179045   1.758   2.167  11.491  0.9296  0.7895 -2.1219
19210TIP3    H279046   1.653   2.223  11.397 -0.8896  0.5551 -0.2947
19211TIP3   OH279047   4.895   6.280  11.609  0.5957  0.1910 -0.4388
19211TIP3    H179048   4.952   6.355  11.594 -0.0313  0.7837  0.0821
19211TIP3    H279049   4.955   6.209  11.634  1.1169  0.7606 -0.0521
19212TIP3   OH279050   3.327   5.876  12.161  0.1869 -0.6393 -0.5799
19212TIP3    H179051   3.255   5.827  12.201 -0.2923 -0.1617 -0.8343
19212TIP3    H279052   3.308   5.874  12.067  0.7459 -0.8848 -0.6868
19213TIP3   OH279053   5.220   4.956   1.170 -0.2073  0.0793 -0.0084
19213TIP3    H179054   5.131   4.931   1.196 -0.7373  1.0024 -0.8441
19213TIP3    H279055   5.232   4.915   1.084 -0.5413  1.4463 -0.7330
19214TIP3   OH279056   6.146   1.434   3.501 -0.3085  0.2870  0.1961
19214TIP3    H179057   6.085   1.369   3.536  0.0322  0.8727  1.9999
19214TIP3    H279058   6.232   1.399   3.520 -0.0033 -0.5013 -2.2850
19215TIP3   OH279059   2.107   2.323   3.741  0.5375  0.0052  0.7391
19215TIP3    H179060   2.202   2.315   3.728  0.3074 -4.4633  0.5110
19215TIP3    H279061   2.094   2.301   3.833 -0.3251  1.0675  0.8951
19216TIP3   OH279062   0.451   4.945   0.067  0.2743 -0.7369 -0.1416
19216TIP3    H179063   0.515   4.923   0.000 -0.3271  2.8495 -2.1771
19216TIP3    H279064   0.377   4.886   0.051  0.4038 -0.3931 -2.3126
19217TIP3   OH279065   6.672   3.225  16.650  0.2609  0.7725  0.2244
19217TIP3    H179066   6.627   3.140  16.648  0.6306  0.5845 -1.3823
19217TIP3    H279067   6.749   3.210  16.705  1.1634 -0.4033 -1.2703
19218TIP3   OH279068   2.512   4.681   2.405 -0.4257  0.2941 -0.2888
19218TIP3    H179069   2.507   4.668   2.311 -2.4300  1.4910 -0.4012
19218TIP3    H279070   2.477   4.769   2.419 -2.7088 -0.8384  1.7832
19219TIP3   OH279071   0.907   0.446  12.580  0.1154 -0.1526 -0.2318
19219TIP3    H179072   0.833   0.493  12.542 -0.8433 -0.3844  1.2650
19219TIP3    H279073   0.983   0.498  12.556 -0.4650 -0.1295 -2.1711
19220TIP3   OH279074   1.062   4.133  10.784 -0.2691  0.1114 -0.4315
19220TIP3    H179075   1.138   4.117  10.840 -0.5422  2.8979  0.8983
19220TIP3    H279076   1.045   4.048  10.742  1.3164 -1.5680  2.0130
19221TIP3   OH279077   6.481   4.312   2.928 -0.3796 -0.8499  0.1731
19221TIP3    H179078   6.528   4.391   2.903 -0.0756 -0.9070  0.5624
19221TIP3    H279079   6.418   4.298   2.857 -2.8864  1.6959  1.6604
19222TIP3   OH279080   0.107   1.946  14.041  0.2755  0.2241 -0.0055
19222TIP3    H179081   0.123   2.040  14.048  1.0131 -0.0028  2.9888
19222TIP3    H279082   0.188   1.907  14.073 -0.8831 -1.3565  1.1250
19223TIP3   OH279083   5.464   6.018   0.134  0.2822 -0.1337  0.6589
19223TIP3    H179084   5.540   6.076   0.143 -0.9938  1.5434  1.3964
19223TIP3    H279085   5.448   5.986   0.223  0.8133 -1.4578  0.3008
19224TIP3   OH279086   5.445   6.535  10.703 -0.0902 -0.0259 -0.1261
19224TIP3    H179087   5.426   6.445  10.732 -1.4082  0.1826 -0.2802
19224TIP3    H279088   5.436   6.531  10.608  1.6682 -0.1244 -0.3164
19225TIP3   OH279089   1.086   4.914   5.967 -0.1767 -0.1631  0.1530
19225TIP3    H179090   1.049   4.909   5.878 -1.7945  0.4523  0.7659
19225TIP3    H279091   1.167   4.963   5.956 -1.2619  1.5251 -0.7486
19226TIP3   OH279092   5.318   4.060   5.613 -0.3194 -0.0233  0.2157
19226TIP3    H179093   5.228   4.046   5.583 -0.0009 -0.8867 -0.3838
19226TIP3    H279094   5.310   4.071   5.708 -1.0543 -0.0849  0.1701
19227TIP3   OH279095   4.309   3.946   5.993  0.3192 -0.4060  0.3465
19227TIP3    H179096   4.350   4.033   5.991 -0.7583  0.1180  0.5507
19227TIP3    H279097   4.262   3.944   6.077 -1.0282 -0.5387 -0.3905
19228TIP3   OH279098   5.082   5.960   5.600  0.0451 -0.5737 -0.6349
19228TIP3    H179099   5.085   6.051   5.568  0.5970  0.1663  1.3575
19228TIP3    H279100   5.173   5.933   5.606 -0.1193 -1.2814 -1.2355
19229TIP3   OH279101   5.953   1.438  14.318 -0.7842 -0.3558  0.4223
19229TIP3    H179102   5.991   1.516  14.276  0.4597 -1.1580  0.0040
19229TIP3    H279103   5.859   1.447  14.304 -0.5669  0.5124 -0.6187
19230TIP3   OH279104   6.487   6.095  16.669  0.1937 -0.1271  0.0052
19230TIP3    H179105   6.522   6.013  16.704  3.5555  0.8451 -0.7105
19230TIP3    H279106   6.466   6.075  16.578 -2.0669 -0.9254  0.6485
19231TIP3   OH279107   1.741   5.544  11.418 -0.0222 -0.2381  0.8368
19231TIP3    H179108   1.654   5.516  11.445 -0.6148 -0.5363 -1.2091
19231TIP3    H279109   1.738   5.640  11.423 -0.4508 -0.2490  0.8104
19232TIP3   OH279110   4.835   1.268  15.518  0.3130 -0.3681  0.0654
19232TIP3    H179111   4.777   1.192  15.512  0.9789 -0.8118 -1.1026
19232TIP3    H279112   4.920   1.236  15.486  0.7335  0.7359  0.0345
19233TIP3   OH279113   1.075   6.276   2.357  0.4713 -0.6154  0.1700
19233TIP3    H179114   1.038   6.227   2.283 -0.4675 -1.2972  1.0718
19233TIP3    H279115   1.170   6.264   2.348  0.4852  0.4364 -1.6797
19234TIP3   OH279116   6.702   0.117   1.113 -0.5860  0.3580 -0.2736
19234TIP3    H179117   6.751   0.101   1.032  0.0088 -1.3003  0.3743
19234TIP3    H279118   6.617   0.150   1.083 -0.1419  0.4246 -1.5422
19235TIP3   OH279119   2.790   1.929   0.510 -0.1710 -0.0788 -0.7809
19235TIP3    H179120   2.850   1.969   0.573 -0.5836  1.0858 -1.0928
19235TIP3    H279121   2.728   1.879   0.563  0.0295  0.1441 -0.3350
19236TIP3   OH279122   1.107   5.345   3.011  0.5741  0.6583 -0.2561
19236TIP3    H179123   1.082   5.253   3.001 -1.6408  1.1613  0.2446
19236TIP3    H279124   1.101   5.361   3.105  0.0691  1.5297 -0.4286
19237TIP3   OH279125   0.353   3.756   0.224 -0.4161 -0.4024  0.2479
19237TIP3    H179126   0.276   3.705   0.202 -0.2512 -0.3398 -0.4965
19237TIP3    H279127   0.421   3.691   0.244 -1.1039 -0.4908  2.6869
19238TIP3   OH279128   6.149   1.172   4.595 -0.1564  0.6641  0.4776
19238TIP3    H179129   6.188   1.132   4.517  1.2763  1.5752  0.6846
19238TIP3    H279130   6.081   1.110   4.622  0.4069 -0.4611 -0.5546
19239TIP3   OH279131   5.790   0.469  16.796 -0.1834 -0.1019  0.3630
19239TIP3    H179132   5.734   0.492  16.722  0.8165 -0.5904 -0.5806
19239TIP3    H279133   5.729   0.441  16.865 -1.1352  0.3951 -0.2549
19240TIP3   OH279134   1.058   3.103  13.826  0.4996  0.3036  0.9802
19240TIP3    H179135   0.984   3.162  13.810  1.5350  1.7250  1.1855
19240TIP3    H279136   1.025   3.016  13.806 -0.5785  1.1252 -1.1066
19241TIP3   OH279137   6.653   6.244  10.742 -0.4702 -0.4986 -0.1246
19241TIP3    H179138   6.725   6.199  10.787 -0.4361  0.4721  0.8278
19241TIP3    H279139   6.693   6.322  10.705 -0.8135 -0.5345 -0.5779
19242TIP3   OH279140   5.362   5.461  14.814  0.7899 -0.1365  0.0413
19242TIP3    H179141   5.337   5.548  14.843 -0.8207 -0.9706  1.2947
19242TIP3    H279142   5.281   5.421  14.782  1.5749 -1.0337 -0.9135
19243TIP3   OH279143   4.995   3.460  12.909 -0.1325  0.4229 -0.9503
19243TIP3    H179144   5.067   3.480  12.849 -0.2982 -1.4528 -1.8641
19243TIP3    H279145   4.929   3.417  12.854 -0.1241 -1.7406  0.5827
19244TIP3   OH279146   1.424   2.110   2.562  0.1198  0.1650 -0.3141
19244TIP3    H179147   1.371   2.032   2.577  0.6518 -0.1198  0.1173
19244TIP3    H279148   1.363   2.184   2.572 -0.1560 -0.1483  0.3190
19245TIP3   OH279149   0.448   1.474   4.656 -0.5290  0.1970  0.0174
19245TIP3    H179150   0.382   1.538   4.627 -1.5128 -0.5251  0.5796
19245TIP3    H279151   0.507   1.465   4.581 -2.1173 -0.4782 -1.2327
19246TIP3   OH279152   5.058   1.795   5.098 -0.1894 -0.1382  0.1734
19246TIP3    H179153   5.128   1.839   5.049 -0.3005  0.3829  0.4711
19246TIP3    H279154   4.983   1.798   5.039  0.4904 -2.3780 -0.9378
19247TIP3   OH279155   3.253   4.742  15.862  0.5713  0.1155  0.6388
19247TIP3    H179156   3.200   4.793  15.922 -0.1855 -0.7202  0.6946
19247TIP3    H279157   3.302   4.807  15.812  0.2486  0.8587  1.2732
19248TIP3   OH279158   2.867   2.794  16.003  0.2330 -0.5519  0.4859
19248TIP3    H179159   2.783   2.788  15.958  1.3489  0.8964 -2.0149
19248TIP3    H279160   2.912   2.867  15.961  2.8135 -1.3441  1.6283
19249TIP3   OH279161   5.362   4.627  13.611 -0.3512 -0.1784  0.6413
19249TIP3    H179162   5.353   4.546  13.561  2.0137 -0.4601  0.5543
19249TIP3    H279163   5.291   4.683  13.578 -1.4008 -1.8084 -0.0376
19250TIP3   OH279164   6.289   0.434   5.780 -0.2528  0.5891  0.3811
19250TIP3    H179165   6.304   0.364   5.716 -0.3659  1.1490 -0.2755
19250TIP3    H279166   6.324   0.400   5.862  2.0340  0.7231 -0.4629
19251TIP3   OH279167   2.054   6.424  14.130  0.4495 -0.3123  0.0245
19251TIP3    H179168   1.991   6.451  14.063 -0.5181 -1.6124  0.3722
19251TIP3    H279169   2.121   6.376  14.082  0.6176  0.1502 -0.2103
19252TIP3   OH279170   6.016   3.149   0.519 -0.2070 -0.1892  0.1681
19252TIP3    H179171   5.980   3.150   0.431  1.9312 -1.7783 -0.8134
19252TIP3    H279172   6.058   3.234   0.530 -0.3654 -0.0390 -0.3885
19253TIP3   OH279173   5.680   1.686   6.429  0.3051 -0.1710  0.0781
19253TIP3    H179174   5.716   1.771   6.402  0.4012 -0.2505 -0.0455
19253TIP3    H279175   5.648   1.700   6.518 -1.2836  0.4892 -0.5534
19254TIP3   OH279176   3.335   3.000   4.782  0.3303  0.1516 -0.0450
19254TIP3    H179177   3.277   2.935   4.741 -0.4576  0.4936  0.5041
19254TIP3    H279178   3.410   3.006   4.723  0.1238 -0.7978 -0.4255
19255TIP3   OH279179   3.367   5.399   4.019  0.0758  0.3039 -0.4746
19255TIP3    H179180   3.405   5.480   4.053 -0.3520  1.0191 -1.6317
19255TIP3    H279181   3.386   5.401   3.925  1.7972 -1.9221 -0.2669
19256TIP3   OH279182   6.493   2.366   3.006 -0.2677 -0.4169 -0.0712
19256TIP3    H179183   6.587   2.386   3.012 -0.0608 -1.7425  2.6819
19256TIP3    H279184   6.452   2.426   3.069 -1.3390  0.2679 -1.3726
19257TIP3   OH279185   6.091   1.703  12.581 -0.8104 -0.2856 -0.0390
19257TIP3    H179186   6.048   1.656  12.509  0.5069 -0.6679 -0.5888
19257TIP3    H279187   6.181   1.673  12.579 -0.9045 -0.8937  2.2606
19258TIP3   OH279188   5.172   1.910   5.370 -0.0172  0.1932 -0.0782
19258TIP3    H179189   5.121   1.864   5.303  0.8340  1.1104 -1.4145
19258TIP3    H279190   5.132   1.997   5.374 -0.9639 -0.2698  1.6865
19259TIP3   OH279191   4.445   6.509   5.726  0.5384  0.0276 -0.0836
19259TIP3    H179192   4.378   6.448   5.756  0.8361  0.4083  1.4433
19259TIP3    H279193   4.422   6.527   5.635 -1.4832  0.1905  0.4057
19260TIP3   OH279194   4.719   5.328   0.301  0.6539 -0.3879 -1.0245
19260TIP3    H179195   4.683   5.244   0.272  0.4272 -0.4741 -0.4945
19260TIP3    H279196   4.791   5.345   0.240 -0.7890  0.2074 -2.6562
19261TIP3   OH279197   4.822   0.921   4.932  0.3333  0.4988 -0.3072
19261TIP3    H179198   4.814   0.900   5.025 -1.0340  1.0479 -0.2771
19261TIP3    H279199   4.914   0.946   4.921  0.7656 -0.5446  0.6688
19262TIP3   OH279200   0.069   1.735   5.152 -0.0352 -0.1890 -0.3192
19262TIP3    H179201   0.113   1.733   5.237 -0.8518 -1.7398  0.1075
19262TIP3    H279202   0.015   1.656   5.151 -0.7495  0.2738 -1.9142
19263TIP3   OH279203   1.496   5.015  11.264 -0.0572 -0.0821 -0.5649
19263TIP3    H179204   1.523   5.053  11.348  1.1150 -1.1412 -0.4429
19263TIP3    H279205   1.421   5.068  11.237 -0.4928  0.2527  1.1762
19264TIP3   OH279206   1.874   6.731   1.147  0.3234 -0.1604 -0.3665
19264TIP3    H179207   1.950   6.788   1.157  0.1979 -0.3044  1.8437
19264TIP3    H279208   1.813   6.783   1.095 -0.2674  2.3243  2.5146
19265TIP3   OH279209   4.904   5.504  15.382  0.0674  0.2484  0.3881
19265TIP3    H179210   4.939   5.582  15.339  0.0280 -0.9404 -2.0039
19265TIP3    H279211   4.980   5.461  15.420 -0.0747  2.0621  3.0001
19266TIP3   OH279212   4.885   5.656  15.725  0.2023 -0.0269 -0.5033
19266TIP3    H179213   4.821   5.633  15.792  0.6869 -2.5723 -0.8049
19266TIP3    H279214   4.859   5.605  15.648  1.1488  0.8448 -1.4469
19267TIP3   OH279215   3.342   5.200  17.031 -0.6181  0.3292 -0.9805
19267TIP3    H179216   3.400   5.124  17.026  0.1508  0.8824 -0.5792
19267TIP3    H279217   3.400   5.274  17.047 -1.5776  0.6291  1.6212
19268TIP3   OH279218   0.097   2.841  16.423  0.0746  0.5923 -0.1806
19268TIP3    H179219   0.065   2.919  16.469 -0.3029  0.3516 -0.0377
19268TIP3    H279220   0.070   2.854  16.332  1.6765  1.5471 -0.5665
19269TIP3   OH279221   3.043   2.382   2.841 -0.1450  0.1664 -0.4793
19269TIP3    H179222   2.985   2.340   2.777  0.5126  0.4622 -1.2850
19269TIP3    H279223   3.049   2.319   2.912 -0.0339 -0.6526 -1.1938
19270TIP3   OH279224   3.524   4.787  11.661 -0.3470  0.5295  0.4896
19270TIP3    H179225   3.513   4.872  11.703 -2.1672  0.9612 -0.7398
19270TIP3    H279226   3.524   4.807  11.567 -0.6233 -0.8025  0.1925
19271TIP3   OH279227   5.824   5.875  16.735  0.3730 -0.1553 -0.1029
19271TIP3    H179228   5.730   5.859  16.735  0.2797  0.3509  0.8471
19271TIP3    H279229   5.833   5.964  16.701  0.5359 -0.3259 -0.5132
19272TIP3   OH279230   0.269   3.013   6.254 -0.1169 -0.2747 -0.2595
19272TIP3    H179231   0.219   2.955   6.198  3.8251 -2.5093 -1.8578
19272TIP3    H279232   0.269   3.097   6.208  1.7114 -1.6342 -3.0130
19273TIP3   OH279233   3.163   4.726   3.471 -0.2786  0.3360 -0.2936
19273TIP3    H179234   3.246   4.680   3.480  0.6075  1.7978 -0.6504
19273TIP3    H279235   3.104   4.682   3.532  1.0761 -0.0341  0.7896
19274TIP3   OH279236   2.343   1.865   2.582  0.2098  0.0982 -0.3067
19274TIP3    H179237   2.405   1.812   2.533  0.5266  0.5792 -0.4348
19274TIP3    H279238   2.295   1.803   2.636 -0.5230 -0.5134 -1.6181
19275TIP3   OH279239   0.030   5.103   5.742 -0.5207 -0.3932 -0.1458
19275TIP3    H179240   0.094   5.042   5.778 -0.2752 -1.0586 -1.6199
19275TIP3    H279241  -0.026   5.048   5.687 -0.1538  0.7147 -1.6869
19276TIP3   OH279242   6.297   5.241  11.346 -0.0077  0.6072 -0.1518
19276TIP3    H179243   6.261   5.274  11.263 -0.3733  0.9066  0.1225
19276TIP3    H279244   6.349   5.314  11.380  0.6559  0.2642 -0.4214
19277TIP3   OH279245   0.036   3.856   0.680  0.0238  0.5487  0.3521
19277TIP3    H179246   0.076   3.940   0.703 -0.4062  1.4338 -1.8314
19277TIP3    H279247   0.100   3.812   0.625 -0.3636  0.1379  0.2179
19278TIP3   OH279248   3.689   5.704  12.627  0.0053  0.4979  0.1943
19278TIP3    H179249   3.746   5.755  12.685 -0.2920 -0.5851  1.4604
19278TIP3    H279250   3.749   5.668  12.561  0.9070 -0.9898  1.7548
19279TIP3   OH279251   5.073   4.856  15.643 -0.0424  0.3585  0.0626
19279TIP3    H179252   5.113   4.785  15.593  1.2339  1.3664 -0.4254
19279TIP3    H279253   5.104   4.842  15.733  0.2816  0.3347 -0.0487
19280TIP3   OH279254   4.011   6.049  15.352  0.2650 -0.3195  0.1934
19280TIP3    H179255   4.076   5.997  15.399 -0.9022 -3.1234 -1.1018
19280TIP3    H279256   4.005   6.008  15.266 -3.1693 -0.2091  0.2422
19281TIP3   OH279257   0.315   4.043   0.652 -0.3038  0.8411  0.1605
19281TIP3    H179258   0.382   4.046   0.720 -2.9180 -0.5961  3.0668
19281TIP3    H279259   0.296   3.950   0.640 -0.4643  1.0985 -2.0841
19282TIP3   OH279260   1.089   1.711   2.299  0.1954  0.3898 -0.2125
19282TIP3    H179261   1.175   1.751   2.299  0.5572 -0.3618  0.6660
19282TIP3    H279262   1.058   1.719   2.389 -0.4516  0.2206 -0.4126
19283TIP3   OH279263   4.399   0.152   0.932  0.1445  0.0850  0.4142
19283TIP3    H179264   4.427   0.182   0.845  1.0254 -0.5661  0.4547
19283TIP3    H279265   4.480   0.121   0.973 -0.4918 -0.8934  0.9440
19284TIP3   OH279266   4.893   4.481  16.203 -0.0470 -0.6891 -0.4788
19284TIP3    H179267   4.967   4.422  16.190  0.2596 -0.1025 -1.5471
19284TIP3    H279268   4.925   4.567  16.175 -0.8636 -0.2577 -0.1384
19285TIP3   OH279269   4.381   6.117   5.233  0.9419 -0.3039 -0.0108
19285TIP3    H179270   4.470   6.094   5.209  1.5884  0.4451  1.5890
19285TIP3    H279271   4.345   6.159   5.154  1.3480 -2.2544 -1.2900
19286TIP3   OH279272   3.334   4.477   1.419 -0.4993 -0.1764  0.0584
19286TIP3    H179273   3.250   4.481   1.465 -0.7638 -1.6701 -0.2403
19286TIP3    H279274   3.375   4.396   1.451  0.3637 -0.0056 -0.5741
19287TIP3   OH279275   0.604   0.503   1.798  0.8393  0.0043  0.0997
19287TIP3    H179276   0.588   0.413   1.769 -1.8502  0.3596  0.2006
19287TIP3    H279277   0.692   0.523   1.767  0.5572 -1.8089 -2.1632
19288TIP3   OH279278   6.694   2.057  12.935 -0.3123  0.5227  0.3849
19288TIP3    H179279   6.775   2.103  12.912  0.5052 -0.8222  0.4649
19288TIP3    H279280   6.709   2.025  13.024 -0.1633 -1.3271 -0.2785
19289TIP3   OH279281   5.314   3.920   1.531 -0.6001  0.4705 -0.0336
19289TIP3    H179282   5.285   3.902   1.621  1.2057 -2.2318  0.1137
19289TIP3    H279283   5.398   3.875   1.523 -0.9256  0.1966 -3.2376
19290TIP3   OH279284   3.839   2.267  14.910 -0.6833  0.0534  0.0306
19290TIP3    H179285   3.927   2.229  14.900 -0.5987  0.0654  0.6672
19290TIP3    H279286   3.780   2.191  14.913 -0.6013  0.0029  0.4622
19291TIP3   OH279287   0.362   6.297   1.897  0.1766 -0.7337 -0.1349
19291TIP3    H179288   0.382   6.215   1.853 -0.1214 -0.1769 -1.3654
19291TIP3    H279289   0.268   6.292   1.917  0.1870 -0.7469 -0.0891
19292TIP3   OH279290   0.143   3.027  12.497  0.7194 -0.3970 -0.3451
19292TIP3    H179291   0.185   2.993  12.418  0.4225 -1.5867 -0.0098
19292TIP3    H279292   0.196   3.104  12.520  2.0817 -1.2340 -0.5380
19293TIP3   OH279293   4.898   5.672  14.620  0.5078  0.9929 -0.0102
19293TIP3    H179294   4.872   5.707  14.706  1.0893  2.5144 -0.4303
19293TIP3    H279295   4.974   5.724  14.594 -0.0381  0.9893 -1.7440
19294TIP3   OH279296   1.987   6.420   5.290  0.5047  0.5743 -0.5728
19294TIP3    H179297   1.957   6.478   5.360  1.3346  2.1726 -1.4684
19294TIP3    H279298   2.037   6.352   5.335 -1.7735 -0.3991  0.6569
19295TIP3   OH279299   5.281   1.599  15.019  0.1403 -0.3443 -0.2755
19295TIP3    H179300   5.273   1.513  14.977 -1.3175 -0.6206  0.5122
19295TIP3    H279301   5.334   1.583  15.097  1.4651 -0.1394 -1.0980
19296TIP3   OH279302   0.844   6.732  10.552  0.2280 -0.5092 -0.3098
19296TIP3    H179303   0.758   6.736  10.509  0.3518  0.3743 -0.4931
19296TIP3    H279304   0.860   6.822  10.582  1.2089 -0.5974 -0.5293
19297TIP3   OH279305   2.561   5.713  13.764 -0.3278  0.3486 -0.0932
19297TIP3    H179306   2.542   5.672  13.679  0.5634  0.3883 -0.3204
19297TIP3    H279307   2.656   5.703  13.775 -0.4101  0.4883  0.8267
19298TIP3   OH279308   5.547   1.930   6.325  0.3963 -0.1456 -0.3952
19298TIP3    H179309   5.627   1.981   6.336  0.5140 -0.1634 -1.0853
19298TIP3    H279310   5.567   1.870   6.252 -0.3756  0.1213 -0.8427
19299TIP3   OH279311   1.911   4.667   5.923  0.2698  0.0898  0.7189
19299TIP3    H179312   1.884   4.656   5.832 -2.2357 -0.4280  1.4243
19299TIP3    H279313   1.882   4.755   5.946 -1.0953 -0.5283  1.5463
19300TIP3   OH279314   5.845   6.490   4.860 -0.1575 -0.6253  0.5373
19300TIP3    H179315   5.793   6.473   4.781  0.8446 -0.4572 -0.1723
19300TIP3    H279316   5.872   6.404   4.890 -1.1579 -0.7499  1.1527
19301TIP3   OH279317   1.244   1.318   0.294  0.1427  0.0744 -0.1826
19301TIP3    H179318   1.240   1.225   0.319  3.2551  0.2804  1.5430
19301TIP3    H279319   1.292   1.318   0.211 -1.2462  0.1157 -1.0289
19302TIP3   OH279320   0.665   3.275   6.196 -0.0831  0.4526 -0.3112
19302TIP3    H179321   0.608   3.212   6.239 -1.9760  1.5066 -1.1401
19302TIP3    H279322   0.753   3.255   6.229 -0.4567 -3.0184 -1.0506
19303TIP3   OH279323   0.710   2.321   5.915  0.1243  0.1410 -0.1230
19303TIP3    H179324   0.668   2.235   5.921 -1.1947  0.8029  0.6486
19303TIP3    H279325   0.803   2.303   5.925 -0.2117 -1.1109  1.0472
19304TIP3   OH279326   0.067   4.565   0.332 -0.6641 -0.1344  0.2256
19304TIP3    H179327   0.086   4.659   0.338 -2.8253  0.3552 -0.0520
19304TIP3    H279328   0.030   4.553   0.245 -0.3825 -1.2823  0.2457
19305TIP3   OH279329   0.805   5.645  15.791 -0.1414  0.0779  0.0626
19305TIP3    H179330   0.844   5.703  15.725  1.0974 -2.0187 -1.1487
19305TIP3    H279331   0.851   5.667  15.872  1.4641 -0.2945 -0.7177
19306TIP3   OH279332   6.100   3.519   2.660  0.1611 -0.3243 -0.2508
19306TIP3    H179333   6.095   3.613   2.676  1.8385 -0.3273  0.4533
19306TIP3    H279334   6.052   3.479   2.732  1.5199 -0.0693  0.8294
19307TIP3   OH279335   1.342   4.432  13.464  0.0854 -0.0677 -0.2178
19307TIP3    H179336   1.248   4.414  13.460  0.2606 -0.9678 -0.4364
19307TIP3    H279337   1.359   4.489  13.388 -0.2808  0.0971 -0.1777
19308TIP3   OH279338   3.081   2.956  12.392  0.8522  0.0636  0.0827
19308TIP3    H179339   3.090   2.862  12.406 -0.2286 -0.1066 -0.2850
19308TIP3    H279340   3.092   2.967  12.298 -1.3252 -0.0099 -0.2172
19309TIP3   OH279341   4.478   3.059  12.973  0.4506  0.2582 -0.3766
19309TIP3    H179342   4.563   3.038  13.012  0.0667 -1.2118 -0.2757
19309TIP3    H279343   4.469   3.154  12.985  0.9277  0.0675  1.9004
19310TIP3   OH279344   6.059   0.607  13.677  0.0021  0.1714  0.1960
19310TIP3    H179345   6.106   0.548  13.737  0.5642 -2.0577 -2.2741
19310TIP3    H279346   6.128   0.661  13.638 -0.1042  0.2122  0.0660
19311TIP3   OH279347   3.837   1.773   1.137 -0.3152  0.2031 -0.9766
19311TIP3    H179348   3.836   1.810   1.049  0.0163  1.5805 -0.4262
19311TIP3    H279349   3.747   1.785   1.169 -0.4212 -0.2454 -1.0994
19312TIP3   OH279350   5.298   3.413  13.708  0.5119 -0.4119  0.1458
19312TIP3    H179351   5.355   3.490  13.701  1.8953 -1.2907  1.1465
19312TIP3    H279352   5.234   3.424  13.638 -0.3361  2.4333  1.2257
19313TIP3   OH279353   4.364   2.424  16.007  0.2191 -0.4363 -0.2066
19313TIP3    H179354   4.271   2.404  15.991  0.2925 -0.1204 -1.0840
19313TIP3    H279355   4.369   2.519  15.998  0.8883 -0.5861 -1.6327
19314TIP3   OH279356   4.789   2.702   1.067 -0.0005 -0.7519  0.0923
19314TIP3    H179357   4.863   2.678   1.122 -1.3350 -0.5577  2.0556
19314TIP3    H279358   4.794   2.798   1.060  1.0309 -0.8837 -1.4640
19315TIP3   OH279359   5.306   2.346   5.943 -0.2474 -0.1815  0.1144
19315TIP3    H179360   5.306   2.337   5.848  0.8839  0.2831  0.0528
19315TIP3    H279361   5.247   2.420   5.960  1.1841  1.1369 -0.4139
19316TIP3   OH279362   5.890   1.943  14.036  0.2968 -0.0098 -0.6172
19316TIP3    H179363   5.817   2.001  14.055  0.3614  0.0540 -0.5633
19316TIP3    H279364   5.968   1.995  14.055  0.3557 -0.6239  1.0258
19317TIP3   OH279365   1.205   4.951  12.330 -0.4335  0.1783  0.1619
19317TIP3    H179366   1.213   5.017  12.398 -0.4585 -0.0513  0.3862
19317TIP3    H279367   1.135   4.894  12.359  0.3177 -0.5916  0.5129
19318TIP3   OH279368   3.594   2.528   0.678  0.0253  0.0120  0.8663
19318TIP3    H179369   3.594   2.479   0.596  1.4729 -1.1717  1.5118
19318TIP3    H279370   3.516   2.584   0.673  1.5562  2.1544 -2.5125
19319TIP3   OH279371   2.296   4.122  11.328 -0.1160  0.1417  0.0029
19319TIP3    H179372   2.214   4.076  11.311 -0.2367  0.2763  0.2111
19319TIP3    H279373   2.305   4.184  11.255  0.0257 -0.1822 -0.2543
19320TIP3   OH279374   6.378   2.544  12.303  0.5345 -0.9128 -0.3822
19320TIP3    H179375   6.351   2.584  12.220 -0.6640 -2.2532 -0.6870
19320TIP3    H279376   6.474   2.544  12.300  0.5115 -0.5028 -1.5382
19321TIP3   OH279377   3.162   1.694  13.683  0.0294 -0.2042 -0.2400
19321TIP3    H179378   3.216   1.750  13.738 -0.8368 -0.8156  1.3269
19321TIP3    H279379   3.121   1.633  13.745  1.8494 -3.3959 -1.9334
19322TIP3   OH279380   0.634   3.045  15.577  0.0460  0.0690 -0.8858
19322TIP3    H179381   0.626   2.964  15.526 -3.9091 -1.2434  1.3922
19322TIP3    H279382   0.651   3.112  15.511 -0.8115 -2.0105 -3.4377
19323TIP3   OH279383   2.393   3.151  15.924 -0.5060  0.0706 -0.1474
19323TIP3    H179384   2.479   3.148  15.965  0.6435 -0.7628 -2.4651
19323TIP3    H279385   2.333   3.116  15.991  0.8522  0.8781  1.5813
19324TIP3   OH279386   6.152   1.162  11.443  0.0384  0.0052  0.0204
19324TIP3    H179387   6.155   1.191  11.352 -2.6671 -0.9525 -0.4580
19324TIP3    H279388   6.173   1.069  11.439 -0.4904 -0.1302  0.3078
19325TIP3   OH279389   3.749   3.399  15.309  0.1196  0.1005  0.1314
19325TIP3    H179390   3.755   3.466  15.241 -1.3159  0.2594  0.1410
19325TIP3    H279391   3.680   3.340  15.279 -1.4592  0.8831  2.0101
19326TIP3   OH279392   4.177   4.301   1.011 -0.2345  0.5880  0.0874
19326TIP3    H179393   4.175   4.303   1.106 -0.9616  0.5667  0.0784
19326TIP3    H279394   4.223   4.220   0.989 -1.1239 -0.0240  0.4247
19327TIP3   OH279395   6.132   1.159  13.118  0.3935  0.5313  0.0242
19327TIP3    H179396   6.068   1.148  13.047  0.9916  0.5630 -0.5346
19327TIP3    H279397   6.172   1.073  13.127  1.4934  0.9284 -0.8404
19328TIP3   OH279398   0.448   4.219   4.866  1.0465 -0.0927  0.0211
19328TIP3    H179399   0.371   4.239   4.920 -0.3686 -2.3569 -1.0178
19328TIP3    H279400   0.497   4.155   4.918  0.9640 -0.4542 -0.3495
19329TIP3   OH279401   6.063   0.018  11.048 -0.0384  0.1948  0.0868
19329TIP3    H179402   6.101  -0.022  11.127  2.5837  1.9919 -0.1664
19329TIP3    H279403   6.133   0.014  10.983 -1.4685  0.6129 -1.5555
19330TIP3   OH279404   4.404   0.619  11.917  0.6075 -0.7259 -0.0015
19330TIP3    H179405   4.380   0.640  12.007  0.7739  0.3834 -0.1977
19330TIP3    H279406   4.495   0.590  11.922  0.8366 -0.0075  0.1114
19331TIP3   OH279407   3.721   6.173  17.192  0.4703 -0.3219  0.4875
19331TIP3    H179408   3.759   6.254  17.156 -0.8213 -0.2480 -0.7881
19331TIP3    H279409   3.713   6.191  17.286  2.0552  0.2482  0.5535
19332TIP3   OH279410   2.682   3.360  15.269 -0.3984  0.0846 -0.1262
19332TIP3    H179411   2.617   3.419  15.232  1.3186  1.0972 -1.7031
19332TIP3    H279412   2.677   3.281  15.216  0.5835  0.7102 -1.1921
19333TIP3   OH279413   4.731   2.494   3.545  0.1390 -0.3548 -0.4237
19333TIP3    H179414   4.778   2.541   3.476 -0.3167 -0.8372 -1.0695
19333TIP3    H279415   4.643   2.532   3.544 -0.2633 -1.2710 -1.0217
19334TIP3   OH279416   2.927   3.455  15.203 -0.0711 -0.6266 -0.1739
19334TIP3    H179417   2.995   3.402  15.245 -0.6027 -0.1870  1.3363
19334TIP3    H279418   2.846   3.429  15.247 -0.2591  1.8500  1.1159
19335TIP3   OH279419   5.359   1.049  16.582  0.7213 -0.3276 -0.4164
19335TIP3    H179420   5.453   1.068  16.577  0.7196 -0.6357 -2.2811
19335TIP3    H279421   5.353   0.974  16.641  1.8765 -1.4796 -1.6650
19336TIP3   OH279422   2.483   4.436   2.120 -0.4659  0.0913  0.6367
19336TIP3    H179423   2.420   4.372   2.153 -1.9570  1.9844  1.6511
19336TIP3    H279424   2.475   4.431   2.025 -0.4761 -1.2790  0.6956
19337TIP3   OH279425   3.467   4.326   0.305  0.5015  0.2476 -0.6637
19337TIP3    H179426   3.557   4.312   0.277  0.3587  0.2830 -1.1398
19337TIP3    H279427   3.415   4.319   0.225 -0.0140 -0.6020 -0.2676
19338TIP3   OH279428   6.336   2.420   6.175 -0.2452  0.5403 -0.1798
19338TIP3    H179429   6.256   2.402   6.125  0.0829 -0.4325 -0.3891
19338TIP3    H279430   6.400   2.448   6.109 -0.7486  2.5700  0.1462
19339TIP3   OH279431   6.636   2.845  16.001  0.2869  0.7856 -0.2783
19339TIP3    H179432   6.578   2.905  16.048 -1.5690 -0.9970 -0.1318
19339TIP3    H279433   6.597   2.839  15.913  1.1872  0.7544 -0.6882
19340TIP3   OH279434   6.223   1.432   0.347  0.3425  0.1327  0.6294
19340TIP3    H179435   6.190   1.501   0.289 -0.5651 -0.9129 -0.1447
19340TIP3    H279436   6.150   1.413   0.406  0.6843  0.0220  1.0217
19341TIP3   OH279437   6.563   2.738   1.530  0.3876 -0.0140  0.3536
19341TIP3    H179438   6.632   2.682   1.565  0.8839  0.5259  0.2436
19341TIP3    H279439   6.583   2.825   1.564  0.2666  0.3132 -0.3904
19342TIP3   OH279440   4.509   5.191  10.646 -0.1402  0.1808 -0.5406
19342TIP3    H179441   4.485   5.254  10.577  1.6729  0.0051 -1.3968
19342TIP3    H279442   4.600   5.170  10.628 -0.0693 -1.0447  1.0494
19343TIP3   OH279443   5.897   5.871   1.283  0.0703  0.0678  0.0325
19343TIP3    H179444   5.807   5.880   1.253 -0.8132 -1.9836  1.7791
19343TIP3    H279445   5.904   5.779   1.308  2.6871  0.1628 -0.1042
19344TIP3   OH279446   3.994   0.455   2.159  0.0567  0.0079  0.4018
19344TIP3    H179447   4.048   0.383   2.125 -0.7209 -0.0835 -0.7044
19344TIP3    H279448   4.028   0.532   2.114  0.0094  0.1235  0.5673
19345TIP3   OH279449   3.882   6.231  16.280  0.0853  0.7418 -0.0334
19345TIP3    H179450   3.879   6.231  16.376 -1.1777  2.4477 -0.0191
19345TIP3    H279451   3.965   6.274  16.258  0.1529  0.7779  0.2945
19346TIP3   OH279452   3.735   4.707  15.293 -0.2901  0.0415 -0.2990
19346TIP3    H179453   3.810   4.650  15.277 -1.7854 -2.8862  2.0277
19346TIP3    H279454   3.660   4.648  15.294 -2.3431  2.4705 -0.0672
19347TIP3   OH279455   2.805   0.760  11.665  0.2969 -0.2977 -0.2077
19347TIP3    H179456   2.886   0.713  11.688 -1.1949 -1.2878  3.7172
19347TIP3    H279457   2.835   0.846  11.635  2.8093 -0.3372  1.8761
19348TIP3   OH279458   2.524   6.161  16.464 -0.9174  0.4130  0.7284
19348TIP3    H179459   2.605   6.111  16.475 -0.3774  0.2348 -2.8560
19348TIP3    H279460   2.458   6.095  16.442 -1.6708  0.7252  1.9880
19349TIP3   OH279461   0.350   3.911  17.060  0.0372  0.0395  0.1492
19349TIP3    H179462   0.281   3.968  17.094  0.4649  0.9528 -0.4812
19349TIP3    H279463   0.431   3.946  17.098  0.3505  0.1123 -0.5695
19350TIP3   OH279464   6.479   2.103   3.056 -0.5323  0.1295 -0.2471
19350TIP3    H179465   6.468   2.196   3.036  0.1227  0.2284 -0.1548
19350TIP3    H279466   6.573   2.090   3.061 -0.6240 -0.2476  1.0817
19351TIP3   OH279467   1.023   3.438   1.460  0.3113  0.2029 -0.3810
19351TIP3    H179468   0.997   3.509   1.402 -1.5859 -1.4425 -1.6431
19351TIP3    H279469   1.065   3.374   1.403 -0.1276 -0.7361  0.3312
19352TIP3   OH279470   2.278   4.633   5.776 -0.2620 -0.5549  0.1128
19352TIP3    H179471   2.298   4.586   5.857  1.5556  2.0582  1.3125
19352TIP3    H279472   2.201   4.686   5.797  0.3598  0.3141  0.2573
19353TIP3   OH279473   2.135   1.478  15.063 -0.4300 -0.0811  0.0195
19353TIP3    H179474   2.131   1.495  15.157 -0.1706 -2.3698  0.5047
19353TIP3    H279475   2.228   1.465  15.044 -0.3163  1.7843 -0.8777
19354TIP3   OH279476   2.578   1.101   5.582  0.6779  0.5280  0.2861
19354TIP3    H179477   2.658   1.050   5.596  1.2846  0.7160 -2.0142
19354TIP3    H279478   2.584   1.129   5.491 -2.3503 -0.0348 -0.1789
19355TIP3   OH279479   4.488   6.293   1.051  0.3320 -0.1557  0.0758
19355TIP3    H179480   4.415   6.255   1.101 -0.4969  0.4309 -0.6669
19355TIP3    H279481   4.453   6.305   0.963  2.5094 -3.5439 -1.4491
19356TIP3   OH279482   4.014   0.674   2.898  0.8221 -0.7539 -0.2777
19356TIP3    H179483   4.071   0.646   2.970  1.2536  0.9779  0.0978
19356TIP3    H279484   3.928   0.640   2.922  1.1146 -0.8549  0.6810
19357TIP3   OH279485   0.269   3.505   4.376  0.2291 -0.2246 -0.7134
19357TIP3    H179486   0.270   3.412   4.357  0.3289 -0.7358  1.5246
19357TIP3    H279487   0.356   3.536   4.351 -0.2962 -0.3628 -2.8827
19358TIP3   OH279488   1.420   2.020  11.293 -0.6816  0.4301 -0.1456
19358TIP3    H179489   1.407   2.075  11.371  1.5920 -1.4239  1.6704
19358TIP3    H279490   1.419   1.930  11.326  1.5795 -0.3837 -2.0232
19359TIP3   OH279491   2.821   5.572  13.311 -0.2890 -0.1163 -0.2081
19359TIP3    H179492   2.895   5.619  13.274  0.2162  0.6690  1.6900
19359TIP3    H279493   2.785   5.631  13.378 -0.3696 -1.8977  1.4123
19360TIP3   OH279494   1.213   4.828   4.676 -0.3985 -0.4481  0.2012
19360TIP3    H179495   1.246   4.888   4.742 -3.2992 -0.3867  1.7574
19360TIP3    H279496   1.136   4.871   4.640  0.0549 -1.3052 -1.9219
19361TIP3   OH279497   2.243   0.100   2.628 -0.7920 -0.8639 -0.0996
19361TIP3    H179498   2.222   0.161   2.557  1.9752  1.2200  0.6907
19361TIP3    H279499   2.273   0.021   2.583  0.4040  0.2185 -1.2951
19362TIP3   OH279500   1.506   0.037  13.102 -0.4319  0.5517  0.0563
19362TIP3    H179501   1.432  -0.012  13.065 -0.1361 -0.3342  0.5925
19362TIP3    H279502   1.473   0.070  13.185 -0.4848  0.8765 -0.0927
19363TIP3   OH279503   3.243   5.257  15.045 -0.1973  0.2506  0.7795
19363TIP3    H179504   3.289   5.341  15.047 -1.1613  0.7883  1.6545
19363TIP3    H279505   3.256   5.224  14.956  2.8169 -0.1847  1.2786
19364TIP3   OH279506   5.160   0.174  15.468  0.9941 -0.4204  0.3437
19364TIP3    H179507   5.115   0.251  15.504  0.0362 -0.0347 -1.5444
19364TIP3    H279508   5.097   0.102  15.481 -1.1581  0.4126 -3.7779
19365TIP3   OH279509   1.552   3.137  17.038 -1.1129 -0.4553  0.0193
19365TIP3    H179510   1.483   3.194  17.005 -1.3371 -0.5470  0.3223
19365TIP3    H279511   1.597   3.106  16.960 -0.7571  0.4217 -0.1368
19366TIP3   OH279512   0.344   1.592  14.356 -0.0702 -0.3503 -0.0367
19366TIP3    H179513   0.295   1.671  14.380  2.2580  0.7630  1.4772
19366TIP3    H279514   0.346   1.593  14.261 -0.5249  1.1575 -0.0569
19367TIP3   OH279515   6.533   4.496   4.909 -0.4436  0.2312 -0.0053
19367TIP3    H179516   6.439   4.484   4.902 -0.4046 -0.1410  0.0751
19367TIP3    H279517   6.570   4.417   4.868 -0.1627  0.7940 -0.8625
19368TIP3   OH279518   5.062   3.076   4.436 -0.1385  0.0447 -0.3638
19368TIP3    H179519   4.972   3.045   4.430 -0.3069  0.5206 -0.3297
19368TIP3    H279520   5.055   3.171   4.440  0.4074  0.1284 -1.1659
19369TIP3   OH279521   3.477   0.240   3.739  0.3968 -0.4402  0.3621
19369TIP3    H179522   3.516   0.158   3.769 -0.2754 -0.6661  0.6437
19369TIP3    H279523   3.383   0.229   3.755  0.1823 -0.0144 -0.5424
19370TIP3   OH279524   2.449   0.609   1.301 -0.1252 -0.8432  0.2951
19370TIP3    H179525   2.510   0.535   1.308  0.1443 -0.7614 -0.9718
19370TIP3    H279526   2.417   0.605   1.211 -0.4604  0.3222  0.3487
19371TIP3   OH279527   0.859   3.090   3.012  0.1007 -0.3930 -0.2042
19371TIP3    H179528   0.929   3.036   2.975 -0.7758  0.3531 -3.1940
19371TIP3    H279529   0.898   3.127   3.091  2.7533 -0.7822 -1.2155
19372TIP3   OH279530   6.452   3.508   0.911  0.7935  0.4908 -0.0518
19372TIP3    H179531   6.429   3.486   1.001  1.5699 -2.2857 -0.4460
19372TIP3    H279532   6.528   3.454   0.892 -0.8042 -0.9080 -3.1426
19373TIP3   OH279533   1.979   0.552   2.444 -0.1284 -0.2985  0.0827
19373TIP3    H179534   1.942   0.599   2.369 -0.3093 -0.4115  0.0984
19373TIP3    H279535   2.071   0.576   2.445  0.1711 -1.2730 -0.9359
19374TIP3   OH279536   5.921   5.935  12.921  1.1970 -0.4801 -0.5345
19374TIP3    H179537   5.970   6.015  12.939  1.0258  0.7278 -4.4915
19374TIP3    H279538   5.976   5.886  12.859  0.2318 -2.2980 -0.0311
19375TIP3   OH279539   2.929   4.536  15.229 -0.4064 -0.1998  0.0166
19375TIP3    H179540   2.961   4.575  15.311 -1.8769 -0.3329  0.6878
19375TIP3    H279541   3.009   4.516  15.180  0.5295 -0.1734  1.4415
19376TIP3   OH279542   2.464   0.302  16.612 -0.7380 -0.3131  0.5501
19376TIP3    H179543   2.519   0.224  16.603  3.5365  2.2172  1.5254
19376TIP3    H279544   2.456   0.336  16.522  0.4865 -0.0639  0.5180
19377TIP3   OH279545   4.430   4.679  16.446 -0.1212 -0.2535 -0.0537
19377TIP3    H179546   4.415   4.585  16.459 -0.6845 -0.1394  0.1371
19377TIP3    H279547   4.521   4.692  16.473 -0.6584 -0.3740  1.9700
19378TIP3   OH279548   1.420   6.309  11.654  0.0107  0.3255 -0.6135
19378TIP3    H179549   1.502   6.276  11.618  0.1938 -0.4576  0.4678
19378TIP3    H279550   1.403   6.390  11.607  1.4665  0.5614 -0.7537
19379TIP3   OH279551   0.509   4.357   3.159  0.1518  0.0671 -0.2976
19379TIP3    H179552   0.592   4.312   3.176  0.7113  1.4036  0.6514
19379TIP3    H279553   0.451   4.287   3.129  1.4852 -0.9784 -0.5988
19380TIP3   OH279554   3.880   6.032   5.901 -0.7807  0.0824 -0.2252
19380TIP3    H179555   3.862   5.969   5.971  1.3144 -0.9976 -0.5875
19380TIP3    H279556   3.936   5.985   5.839  1.3877  2.4101 -0.2250
19381TIP3   OH279557   0.524   6.525  13.947  0.0385  0.2684 -0.1556
19381TIP3    H179558   0.519   6.444  13.998  0.1424 -0.5469 -1.4054
19381TIP3    H279559   0.442   6.571  13.967 -0.1690 -0.2918  0.3128
19382TIP3   OH279560   1.500   6.576   1.909  0.2411  0.8597  0.0896
19382TIP3    H179561   1.410   6.561   1.880  1.0889 -2.2137 -1.4417
19382TIP3    H279562   1.548   6.596   1.828  1.1817  1.1414  0.6993
19383TIP3   OH279563   4.593   1.764  14.376  0.6431  0.0289 -0.3168
19383TIP3    H179564   4.505   1.730  14.363  1.0825 -0.5820 -1.9466
19383TIP3    H279565   4.586   1.857  14.354  0.2746  0.1535  0.2860
19384TIP3   OH279566   5.492   0.820  15.737 -0.3742  0.2993 -0.1079
19384TIP3    H179567   5.439   0.895  15.763  0.0381  0.3428  0.6240
19384TIP3    H279568   5.480   0.756  15.807 -1.5351 -0.7504 -1.2144
19385TIP3   OH279569   3.537   6.368   6.660 -0.6293  0.1645  1.2244
19385TIP3    H179570   3.619   6.405   6.628 -1.0430  0.8316  0.9102
19385TIP3    H279571   3.561   6.282   6.695  0.0418 -0.0586  0.2528
19386TIP3   OH279572   3.977   1.578   2.536  0.5005  0.2228 -0.1063
19386TIP3    H179573   3.895   1.547   2.576 -0.4295  1.4191 -1.0133
19386TIP3    H279574   4.021   1.498   2.508  0.9189 -0.6341  2.6760
19387TIP3   OH279575   1.938   3.225  16.893  0.2047  0.3002  0.1829
19387TIP3    H179576   1.992   3.154  16.928  1.1952 -0.4554 -2.5810
19387TIP3    H279577   1.993   3.265  16.826 -1.7529  1.1916 -0.9697
19388TIP3   OH279578   2.773   4.603   3.180 -0.3901  0.1481  0.0094
19388TIP3    H179579   2.724   4.661   3.121 -2.0522 -0.8182  0.3731
19388TIP3    H279580   2.706   4.561   3.233  0.8814 -1.0144  0.7574
19389TIP3   OH279581   5.055   6.352   5.547 -0.3678  0.2072 -0.1077
19389TIP3    H179582   5.112   6.339   5.623  0.0711 -1.6198 -0.6822
19389TIP3    H279583   5.114   6.341   5.472 -0.9506  1.1559 -0.7148
19390TIP3   OH279584   5.253   3.012   2.257 -0.3491  0.1898  0.2007
19390TIP3    H179585   5.182   3.041   2.313 -0.8173 -0.4871 -0.0285
19390TIP3    H279586   5.214   2.946   2.200  0.4671 -0.2361  0.1068
19391TIP3   OH279587   4.184   5.480  16.115 -0.5951 -0.1264 -0.5532
19391TIP3    H179588   4.200   5.572  16.092  0.0205  0.1233  0.7499
19391TIP3    H279589   4.180   5.434  16.031 -1.0029  1.1002 -1.2297
19392TIP3   OH279590   4.262   2.331   4.883 -0.2082 -0.1526 -0.0455
19392TIP3    H179591   4.337   2.272   4.880 -0.2023 -0.5020  3.4656
19392TIP3    H279592   4.186   2.272   4.884 -0.5055  0.1481 -1.5318
19393TIP3   OH279593   6.370   4.344   0.323 -0.0953  0.0324  0.0237
19393TIP3    H179594   6.431   4.383   0.260  0.4362 -0.2029  0.3776
19393TIP3    H279595   6.332   4.418   0.369 -1.8621  0.3203 -1.7767
19394TIP3   OH279596   2.959   3.993   1.635 -0.1967  0.3499  0.4196
19394TIP3    H179597   2.875   3.971   1.677  0.3446  0.7470  1.7481
19394TIP3    H279598   2.993   4.066   1.686 -0.2527  1.9715 -1.7102
19395TIP3   OH279599   1.600   2.825   5.456 -0.0137  0.0924  0.0587
19395TIP3    H179600   1.557   2.908   5.436  0.4799  0.6237  1.1090
19395TIP3    H279601   1.607   2.824   5.552  0.7181 -0.7866  0.0129
19396TIP3   OH279602   2.557   5.389   2.431  0.0618 -0.0208  0.0472
19396TIP3    H179603   2.554   5.293   2.427 -0.4279 -0.0089  0.1407
19396TIP3    H279604   2.573   5.409   2.523 -0.1091 -0.0016  0.0713
19397TIP3   OH279605   1.652   0.372  14.707 -0.2410 -0.2323 -0.5078
19397TIP3    H179606   1.697   0.455  14.721 -0.3319 -0.1066 -0.9393
19397TIP3    H279607   1.591   0.390  14.635 -1.9649 -0.0215  0.9204
19398TIP3   OH279608   2.144   0.740  14.820  0.1554 -0.4771  0.3926
19398TIP3    H179609   2.081   0.812  14.815  0.9784  0.2103 -0.4637
19398TIP3    H279610   2.224   0.781  14.855  0.8000 -0.8335 -0.6192
19399TIP3   OH279611   5.254   1.054  17.042  0.2004  0.0856 -0.2612
19399TIP3    H179612   5.274   1.146  17.055 -0.7421  0.3651 -0.7353
19399TIP3    H279613   5.340   1.011  17.041  0.5848  0.4992  3.0259
19400TIP3   OH279614   1.072   2.129   5.301 -0.4895 -0.3292 -0.0264
19400TIP3    H179615   1.097   2.214   5.337  1.0150 -0.8061  0.1240
19400TIP3    H279616   1.081   2.139   5.207 -0.1876 -0.3613 -0.0008
19401TIP3   OH279617   5.501   5.596   6.523 -0.3497 -0.4467 -0.1909
19401TIP3    H179618   5.458   5.570   6.604  1.4459 -0.8252  0.6774
19401TIP3    H279619   5.461   5.680   6.500 -0.7397 -0.2375  1.1843
19402TIP3   OH279620   1.436   4.889   5.013  1.1523  0.0334  0.7259
19402TIP3    H179621   1.471   4.803   5.035  0.2498 -0.2001  1.3130
19402TIP3    H279622   1.378   4.910   5.087  0.0943  0.4162 -0.1937
19403TIP3   OH279623   0.499   4.964  12.369 -0.1549 -0.1274 -0.1781
19403TIP3    H179624   0.530   4.880  12.337  1.2471  0.4027 -0.2637
19403TIP3    H279625   0.543   4.977  12.453 -0.5566  0.4088 -0.0390
19404TIP3   OH279626   2.990   0.189   4.996  0.8252  0.0669 -0.2519
19404TIP3    H179627   2.950   0.268   4.961  0.3412 -0.7622 -1.6506
19404TIP3    H279628   2.920   0.124   4.993  1.9519 -1.1600 -1.8227
19405TIP3   OH279629   1.588   4.107   5.037 -0.0215 -0.2126  0.2602
19405TIP3    H179630   1.522   4.075   5.099 -1.3366  0.6465 -0.6343
19405TIP3    H279631   1.668   4.060   5.060 -0.7271 -0.6630  1.9353
19406TIP3   OH279632   2.502   1.308  11.914  0.0845  0.9318  0.0653
19406TIP3    H179633   2.594   1.310  11.889 -0.2888 -0.0654 -1.5576
19406TIP3    H279634   2.458   1.365  11.851 -0.3394  2.0476  1.3123
19407TIP3   OH279635   6.584   0.519   0.451 -0.1082  0.2649 -0.1813
19407TIP3    H179636   6.615   0.551   0.536  0.2475 -1.7365  0.5107
19407TIP3    H279637   6.646   0.449   0.428 -1.7272 -1.0596 -0.7388
19408TIP3   OH279638   5.721   1.892   3.528 -0.0191 -0.0000  0.1875
19408TIP3    H179639   5.801   1.934   3.560 -0.0025 -0.4078  0.6995
19408TIP3    H279640   5.666   1.964   3.500  0.6178  0.2771 -0.3913
19409TIP3   OH279641   2.124   4.635   0.335  0.2947 -1.0114  0.7419
19409TIP3    H179642   2.182   4.597   0.269  0.9299  0.0513  0.6674
19409TIP3    H279643   2.038   4.635   0.294  0.5623 -0.9731  0.1755
19410TIP3   OH279644   2.462   4.392  14.392 -0.0178 -0.1980  0.3114
19410TIP3    H179645   2.471   4.297  14.400  1.5539 -0.0506  0.7330
19410TIP3    H279646   2.370   4.409  14.411  0.1081 -1.4512  2.4543
19411TIP3   OH279647   5.382   6.545  15.183  0.5645  0.6640 -0.2205
19411TIP3    H179648   5.438   6.611  15.224 -0.1221  2.4446 -2.0440
19411TIP3    H279649   5.298   6.589  15.169  0.0634 -0.6155 -1.4264
19412TIP3   OH279650   1.277   1.152   6.216 -0.1404 -0.2195 -0.6324
19412TIP3    H179651   1.191   1.193   6.228  0.2334  0.4527 -0.2543
19412TIP3    H279652   1.292   1.105   6.298  0.0902  0.1030 -0.4888
19413TIP3   OH279653   4.132   1.931   0.654 -0.1450 -0.0885  0.0023
19413TIP3    H179654   4.093   1.844   0.664  0.3311 -0.3362 -0.2915
19413TIP3    H279655   4.077   1.975   0.589 -0.1841 -0.2886 -0.0986
19414TIP3   OH279656   4.347   0.110   0.092 -0.1178 -0.9580 -0.4026
19414TIP3    H179657   4.415   0.142   0.032 -0.4106  0.2781 -0.1158
19414TIP3    H279658   4.268   0.104   0.037  0.1870 -2.2945 -0.7122
19415TIP3   OH279659   3.279   0.588   0.833 -0.3547 -0.5586 -0.0350
19415TIP3    H179660   3.316   0.675   0.814  1.8752 -1.6657 -1.2893
19415TIP3    H279661   3.206   0.605   0.891  0.5089  2.1005  0.4264
19416TIP3   OH279662   0.149   1.813  10.500 -0.2651 -0.0159 -0.3566
19416TIP3    H179663   0.071   1.867  10.487 -1.8194 -2.2466 -0.8174
19416TIP3    H279664   0.148   1.792  10.594  0.2050  0.5375 -0.2231
19417TIP3   OH279665   5.258   3.101   3.342 -0.3824  0.3909 -0.7467
19417TIP3    H179666   5.255   3.007   3.323 -1.9690  0.0374  0.8883
19417TIP3    H279667   5.172   3.133   3.315 -0.2250  1.1574 -0.3514
19418TIP3   OH279668   6.292   2.799  16.589  0.3774 -0.3248  0.1444
19418TIP3    H179669   6.222   2.864  16.593  0.2164 -0.5233  0.6486
19418TIP3    H279670   6.312   2.780  16.681  0.6902 -0.6993  0.0018
19419TIP3   OH279671   5.669   2.683  11.502  0.5821 -0.5615  0.0884
19419TIP3    H179672   5.653   2.752  11.437 -0.4667  0.0511  0.9545
19419TIP3    H279673   5.649   2.602  11.456  2.2250 -0.3550 -1.0782
19420TIP3   OH279674   4.443   0.154   2.303  0.3162  0.2962 -0.2442
19420TIP3    H179675   4.474   0.232   2.257  0.0041  1.1703  0.9942
19420TIP3    H279676   4.470   0.166   2.394 -2.3392  0.4295  0.6151
19421TIP3   OH279677   0.081   0.409  13.850 -0.1825  0.2758 -0.1400
19421TIP3    H179678   0.059   0.344  13.917  0.1641 -1.6736 -1.8256
19421TIP3    H279679   0.039   0.489  13.880 -2.3685 -1.2041  1.0404
19422TIP3   OH279680   5.904   0.074  11.898 -0.1334  0.6327  0.3836
19422TIP3    H179681   5.813   0.054  11.879 -0.1424  2.5186 -2.0502
19422TIP3    H279682   5.932   0.132  11.827  2.4823  1.4902  1.9408
19423TIP3   OH279683   1.103   1.842  15.670  0.1920 -0.5530  0.0967
19423TIP3    H179684   1.135   1.802  15.588  1.3899  0.0919  0.2238
19423TIP3    H279685   1.183   1.867  15.716 -0.4948 -0.4205  1.2316
19424TIP3   OH279686   0.582   2.946  12.585  0.4297 -0.5778 -0.0724
19424TIP3    H179687   0.674   2.962  12.562 -0.1742  0.1760 -2.1590
19424TIP3    H279688   0.541   2.922  12.502 -1.3756 -0.4517  0.7525
19425TIP3   OH279689   3.809   1.574  14.939 -0.5506  0.5866  0.5343
19425TIP3    H179690   3.900   1.587  14.964 -0.5886 -0.0846  1.0379
19425TIP3    H279691   3.806   1.594  14.845  0.0033  1.1167  0.6274
19426TIP3   OH279692   5.338   3.369   1.563  0.3599  0.6378  0.5240
19426TIP3    H179693   5.400   3.442   1.566 -0.8517  1.9059 -2.2098
19426TIP3    H279694   5.389   3.295   1.531  1.0434  0.9702  0.8367
19427TIP3   OH279695   4.297   0.639   4.943 -0.2592 -0.2291 -0.1240
19427TIP3    H179696   4.255   0.709   4.893  0.6402  0.7063  0.3820
19427TIP3    H279697   4.257   0.644   5.029 -0.6471 -0.7676 -0.2697
19428TIP3   OH279698   4.573   6.409  15.992  0.3180  0.6973 -0.5638
19428TIP3    H179699   4.529   6.363  15.921 -1.5077  1.7067 -0.1488
19428TIP3    H279700   4.612   6.486  15.951  0.0394  0.8032 -0.6330
19429TIP3   OH279701   0.243   3.369  15.592 -0.4022 -0.3882  0.2279
19429TIP3    H179702   0.328   3.409  15.574 -0.9542 -0.0299 -1.9272
19429TIP3    H279703   0.259   3.309  15.664  1.6483 -0.2321 -0.0500
19430TIP3   OH279704   0.987   3.578  11.435 -0.1812 -0.3951  0.1621
19430TIP3    H179705   1.080   3.559  11.446 -0.1330 -0.1755  0.1376
19430TIP3    H279706   0.965   3.545  11.348  0.6464  2.4717 -1.2680
19431TIP3   OH279707   6.365   5.493   2.776 -0.3356 -0.1136 -0.3163
19431TIP3    H179708   6.273   5.506   2.801 -0.0798  0.6332  0.2880
19431TIP3    H279709   6.412   5.488   2.860  0.2137 -0.1870 -0.6218
19432TIP3   OH279710   1.107   2.315  10.888 -0.5769 -0.5187 -0.0293
19432TIP3    H179711   1.046   2.275  10.825 -1.4644  0.1780  0.3643
19432TIP3    H279712   1.122   2.403  10.852 -1.4811  0.0645  0.9625
19433TIP3   OH279713   5.498   1.841   2.648 -0.5655 -0.1140 -1.0907
19433TIP3    H179714   5.594   1.844   2.642 -0.5301 -0.3191 -0.6880
19433TIP3    H279715   5.480   1.767   2.706 -0.9890 -0.3854 -1.5610
19434TIP3   OH279716   4.534   6.776  12.089 -0.1005 -0.2981  1.0053
19434TIP3    H179717   4.569   6.773  12.000 -0.2259  1.6726  0.8512
19434TIP3    H279718   4.461   6.714  12.088 -0.8259  0.5107 -0.6052
19435TIP3   OH279719   5.172   6.154  13.239 -0.3006 -0.8503 -0.3954
19435TIP3    H179720   5.101   6.186  13.182  0.5350  0.1149 -0.9292
19435TIP3    H279721   5.132   6.148  13.325 -1.2151 -0.9671 -0.8069
19436TIP3   OH279722   1.204   1.746  15.436 -0.7665  0.3948  0.2662
19436TIP3    H179723   1.176   1.797  15.360 -0.8830 -0.4955 -0.2988
19436TIP3    H279724   1.155   1.664  15.430  1.3012 -0.8651 -0.2915
19437TIP3   OH279725   5.003   3.228  13.549 -0.2283  0.2865 -0.5677
19437TIP3    H179726   5.065   3.301  13.543  0.4603 -0.2742 -0.3080
19437TIP3    H279727   5.053   3.152  13.521 -0.9780 -0.0721 -0.9405
19438TIP3   OH279728   4.079   5.353  17.162  0.1616  0.0612  0.7552
19438TIP3    H179729   4.134   5.400  17.225  0.9363 -1.4036  1.2074
19438TIP3    H279730   4.017   5.304  17.217 -1.1404  1.0766  0.2686
19439TIP3   OH279731   1.678   0.169  16.568  0.2932 -0.1926 -0.3864
19439TIP3    H179732   1.722   0.201  16.490  0.6077  0.5244  0.0700
19439TIP3    H279733   1.640   0.248  16.608  1.1348 -0.3583  0.7949
19440TIP3   OH279734   3.740   0.126   4.217  0.5246 -0.4021  0.1260
19440TIP3    H179735   3.791   0.168   4.286  0.6083 -2.0131  1.0934
19440TIP3    H279736   3.805   0.108   4.148  0.7457 -0.1730  0.2701
19441TIP3   OH279737   6.028   1.596  12.328 -0.0839 -0.2969  0.8347
19441TIP3    H179738   6.090   1.626  12.262 -1.8842 -1.1602 -1.3566
19441TIP3    H279739   6.050   1.504  12.341 -0.3630 -0.3811  0.7023
19442TIP3   OH279740   4.757   1.865  13.481 -0.0013 -0.5426  0.0193
19442TIP3    H179741   4.697   1.848  13.553  0.0061  0.2323  0.2142
19442TIP3    H279742   4.844   1.868  13.522 -0.1170  1.1534  0.1978
19443TIP3   OH279743   3.222   6.115   4.043  0.2746  0.6590 -0.2685
19443TIP3    H179744   3.160   6.171   4.091 -0.5002 -1.6086  1.5691
19443TIP3    H279745   3.250   6.169   3.969 -0.8477  3.2382  1.0230
19444TIP3   OH279746   1.507   5.592   2.430  0.2016  0.5435 -0.0483
19444TIP3    H179747   1.501   5.642   2.512  0.2685  0.5638 -0.0559
19444TIP3    H279748   1.564   5.645   2.374  1.0594 -0.0118  0.2826
19445TIP3   OH279749   6.741   3.445  13.753  0.1058  0.1798 -0.1856
19445TIP3    H179750   6.669   3.508  13.759  0.6821  0.8182  0.2635
19445TIP3    H279751   6.803   3.473  13.821  0.3249 -0.9509  0.0986
19446TIP3   OH279752   2.839   5.705  13.787  0.0429 -0.1139  0.2407
19446TIP3    H179753   2.927   5.667  13.781 -0.0249 -0.2693  0.2295
19446TIP3    H279754   2.815   5.723  13.696  0.8791  1.8022  0.3650
19447TIP3   OH279755   3.129   5.856   1.416  0.3604 -0.8239  0.5202
19447TIP3    H179756   3.200   5.918   1.435 -1.5317  1.4843  0.5406
19447TIP3    H279757   3.108   5.817   1.500  1.3179 -1.2112  0.5866
19448TIP3   OH279758   1.485   1.279  12.271  0.3347 -0.0817  0.4236
19448TIP3    H179759   1.474   1.245  12.182  0.8111  0.4793  0.1499
19448TIP3    H279760   1.495   1.373  12.260  0.4851 -0.0208  1.0664
19449TIP3   OH279761   1.938   4.228   2.781 -0.0664 -0.0092  0.1278
19449TIP3    H179762   1.937   4.133   2.790  0.6030  0.0957  1.6959
19449TIP3    H279763   2.027   4.249   2.754  0.0716  0.2139  0.7215
19450TIP3   OH279764   6.693   5.807  15.379 -0.3934  0.4425  0.3681
19450TIP3    H179765   6.653   5.893  15.393  0.2838  0.8427 -0.0803
19450TIP3    H279766   6.660   5.777  15.295  0.6089  1.0034 -0.2485
19451TIP3   OH279767   5.012   3.605   0.531  0.0614  0.0488 -0.1802
19451TIP3    H179768   5.077   3.564   0.589  0.0566  1.2569  0.7255
19451TIP3    H279769   4.928   3.590   0.576  0.0486  0.9169  0.1014
19452TIP3   OH279770   1.226   3.303   1.002  0.2925  0.3798 -0.0595
19452TIP3    H179771   1.291   3.261   0.945 -0.3365 -1.4630  0.4862
19452TIP3    H279772   1.151   3.320   0.944  0.1786 -0.2159 -0.1000
19453TIP3   OH279773   6.048   6.682   0.527  0.3829  0.9119  0.4060
19453TIP3    H179774   6.097   6.636   0.459  0.4656  1.3099  0.1941
19453TIP3    H279775   5.984   6.734   0.479 -0.1475  0.5121  0.6756
19454TIP3   OH279776   2.671   2.831  15.781 -0.4903  0.4037  0.3767
19454TIP3    H179777   2.653   2.916  15.822 -0.4098 -0.2007  1.7073
19454TIP3    H279778   2.588   2.805  15.742 -0.4248  1.2509 -0.3606
19455TIP3   OH279779   0.315   3.757  10.271  0.2106 -0.2934  0.0741
19455TIP3    H179780   0.337   3.665  10.257 -1.5528 -0.7216 -0.1257
19455TIP3    H279781   0.248   3.756  10.340  0.3303  0.8526  0.2255
19456TIP3   OH279782   0.076   5.904  11.299 -0.1053 -0.1061  0.4701
19456TIP3    H179783   0.022   5.958  11.242  0.3353  0.0349  0.1849
19456TIP3    H279784   0.030   5.820  11.302 -0.5034  0.1101  0.4787
19457TIP3   OH279785   1.005   5.182  15.279  0.4930  0.4367 -0.4139
19457TIP3    H179786   1.081   5.240  15.279  1.3692 -0.6952 -0.9036
19457TIP3    H279787   0.945   5.222  15.216  0.3843  1.6805  0.4366
19458TIP3   OH279788   2.759   4.549   2.339 -0.0191 -0.2553  0.5373
19458TIP3    H179789   2.804   4.570   2.420 -0.7462 -0.8047  1.1050
19458TIP3    H279790   2.666   4.551   2.362 -0.2811  0.4701 -0.5030
19459TIP3   OH279791   0.664   3.405  14.635 -0.0247  0.4892  0.1058
19459TIP3    H179792   0.568   3.413  14.633 -0.1950 -0.8135  1.4249
19459TIP3    H279793   0.686   3.406  14.728  1.6003  3.9189 -0.1481
19460TIP3   OH279794   3.916   5.438  16.637 -0.2979 -0.3990 -0.1759
19460TIP3    H179795   3.914   5.385  16.717  2.4041 -1.4143 -0.6764
19460TIP3    H279796   3.838   5.411  16.588 -2.0135  0.2424  2.0374
19461TIP3   OH279797   4.976   1.320  13.500  0.2781 -0.4165  0.0748
19461TIP3    H179798   5.001   1.245  13.447 -0.1249  0.0805 -0.8531
19461TIP3    H279799   4.929   1.283  13.575 -0.2729 -1.0781 -0.5815
19462TIP3   OH279800   1.653   5.842  11.050 -0.5583  0.0316  0.7090
19462TIP3    H179801   1.667   5.928  11.011 -1.7681  0.8198  1.9079
19462TIP3    H279802   1.650   5.782  10.975 -1.3543  1.2687 -0.3005
19463TIP3   OH279803   4.658   0.629  14.582  0.0998  0.0916 -0.1272
19463TIP3    H179804   4.638   0.663  14.494  1.9604  2.5053  0.2673
19463TIP3    H279805   4.573   0.610  14.620 -0.9876  2.1712 -1.3115
19464TIP3   OH279806   4.610   3.963   5.665 -0.2272  0.0793  0.0013
19464TIP3    H179807   4.651   3.905   5.602  0.1233 -0.1624  0.4432
19464TIP3    H279808   4.592   3.907   5.741 -1.1656  0.2337 -0.1018
19465TIP3   OH279809   2.223   3.917   4.429  0.0976 -0.1291 -0.1254
19465TIP3    H179810   2.249   3.920   4.521  1.2792 -2.4941 -0.2955
19465TIP3    H279811   2.127   3.919   4.431  0.1024 -0.0866  1.1461
19466TIP3   OH279812   3.200   6.404  16.897  0.9648  0.2473 -0.3384
19466TIP3    H179813   3.219   6.484  16.849  2.1217 -0.6821 -1.5074
19466TIP3    H279814   3.282   6.384  16.943  1.3857 -1.2960 -1.6659
19467TIP3   OH279815   4.621   4.628  14.305  0.5959  0.7479 -0.2226
19467TIP3    H179816   4.649   4.600  14.392 -1.0015  0.3414  0.1933
19467TIP3    H279817   4.546   4.685  14.321  0.0773  0.4067 -1.3349
19468TIP3   OH279818   3.839   0.558  11.854  0.0697 -0.0954 -0.0838
19468TIP3    H179819   3.800   0.638  11.820  0.8366  0.6260  0.6751
19468TIP3    H279820   3.906   0.588  11.916  0.0321 -1.3286  0.5931
19469TIP3   OH279821   3.797   0.697  12.550  0.5847 -0.3639  0.1376
19469TIP3    H179822   3.790   0.767  12.616 -0.7524  0.9192 -1.2884
19469TIP3    H279823   3.890   0.694  12.529  0.6873  0.9746  0.2726
19470TIP3   OH279824   2.647   3.040  15.266 -0.7203  0.1103 -0.3443
19470TIP3    H179825   2.743   3.047  15.266 -0.7028  0.0655  0.6004
19470TIP3    H279826   2.619   3.090  15.189  0.1525 -1.4735 -1.7683
19471TIP3   OH279827   5.922   1.793   4.134 -0.1029 -0.4111  0.3961
19471TIP3    H179828   5.864   1.857   4.092  0.1559  0.5845  1.5187
19471TIP3    H279829   6.004   1.800   4.084 -0.3371 -0.4735 -0.0079
19472TIP3   OH279830   5.652   6.260   5.696 -0.5794 -0.0376 -0.0316
19472TIP3    H179831   5.694   6.250   5.611 -1.2191  0.7235 -0.4484
19472TIP3    H279832   5.723   6.250   5.759  0.0073  0.0085 -0.6719
19473TIP3   OH279833   4.100   2.331  13.132  0.5318 -0.3898 -0.0035
19473TIP3    H179834   4.027   2.308  13.073 -0.3081  4.1743 -1.1504
19473TIP3    H279835   4.083   2.281  13.212 -0.8976 -3.3227 -1.9516
19474TIP3   OH279836   0.233   2.656  15.714 -0.2572  0.2033 -0.2933
19474TIP3    H179837   0.188   2.704  15.645  0.0421 -2.2060 -2.2793
19474TIP3    H279838   0.320   2.697  15.719 -0.5110  0.8189 -0.8773
19475TIP3   OH279839   2.574   2.785  15.365  0.0034 -0.2197  0.2490
19475TIP3    H179840   2.625   2.729  15.308 -1.3061 -1.3304  0.1276
19475TIP3    H279841   2.601   2.874  15.342 -0.1894 -0.6489 -1.8089
19476TIP3   OH279842   3.758   4.840  11.934 -0.3315  0.1204  0.5772
19476TIP3    H179843   3.807   4.883  11.864 -1.0199  1.3019  0.7927
19476TIP3    H279844   3.731   4.756  11.896  0.2940  0.2417 -0.1643
19477TIP3   OH279845   5.077   2.285  14.701  0.5129  0.9930 -0.6621
19477TIP3    H179846   5.037   2.211  14.747  1.1023  0.1825 -1.4265
19477TIP3    H279847   5.097   2.251  14.614  2.5199  1.4796 -0.4361
19478TIP3   OH279848   5.080   5.163   3.210  0.2368  0.1763  0.9070
19478TIP3    H179849   5.061   5.216   3.133 -0.1478 -1.4038 -0.1410
19478TIP3    H279850   4.999   5.116   3.228 -0.0633  1.4299  3.0712
19479TIP3   OH279851   4.330   2.806   2.507  0.0841  0.0519 -0.2293
19479TIP3    H179852   4.383   2.728   2.491 -1.3844 -0.7769 -1.3832
19479TIP3    H279853   4.323   2.812   2.602 -1.5215 -2.5186 -0.0953
19480TIP3   OH279854   1.016   1.759  13.935 -0.0828 -0.5149 -0.0462
19480TIP3    H179855   0.922   1.754  13.918 -0.2276 -2.6330  0.9920
19480TIP3    H279856   1.022   1.787  14.026  0.2565 -1.0165  0.0901
19481TIP3   OH279857   3.178   0.588   4.048  0.3075  0.0498  0.4197
19481TIP3    H179858   3.263   0.617   4.017 -0.0203  0.5053 -0.0758
19481TIP3    H279859   3.164   0.635   4.130 -0.2102  1.3264 -0.3625
19482TIP3   OH279860   2.419   2.682  10.840 -0.3363 -0.0743  0.2017
19482TIP3    H179861   2.398   2.663  10.931 -2.6945  1.5331  0.0942
19482TIP3    H279862   2.461   2.603  10.808 -1.0020 -1.3246  2.2334
19483TIP3   OH279863   2.418   3.535   4.340 -0.3386 -0.4670 -0.3032
19483TIP3    H179864   2.471   3.460   4.369  2.5249  1.4106 -0.1993
19483TIP3    H279865   2.406   3.588   4.419 -2.4655 -0.8220 -0.3351
19484TIP3   OH279866   5.656   4.755  11.671  0.0611 -0.5163 -0.5885
19484TIP3    H179867   5.669   4.837  11.624  0.7824  0.7965  1.7256
19484TIP3    H279868   5.744   4.716  11.675  0.9192  1.3713  2.9128
19485TIP3   OH279869   5.696   0.786  16.309  0.4765  0.2364  0.4648
19485TIP3    H179870   5.633   0.839  16.259  1.9856  2.1210  0.4868
19485TIP3    H279871   5.655   0.775  16.395 -0.5682 -0.0590 -0.0417
19486TIP3   OH279872   0.902   6.700  15.809 -0.9290 -0.3061  0.7350
19486TIP3    H179873   0.899   6.687  15.714  2.0041  0.1985  0.4725
19486TIP3    H279874   0.812   6.719  15.834 -1.5438  1.2356 -2.2105
19487TIP3   OH279875   2.231   0.907  11.842 -0.1987  0.3569 -0.0519
19487TIP3    H179876   2.208   0.903  11.935  2.4376 -1.0147  0.6209
19487TIP3    H279877   2.308   0.963  11.839  0.3216 -0.4011 -1.2821
19488TIP3   OH279878   4.040   5.384  12.305  0.6494 -0.6838 -0.2826
19488TIP3    H179879   4.051   5.429  12.221  3.2418  0.3820  0.5436
19488TIP3    H279880   4.102   5.312  12.302 -0.8606 -2.0541 -0.1106
19489TIP3   OH279881   2.852   5.154   2.170  0.1755 -0.3933 -0.1283
19489TIP3    H179882   2.898   5.075   2.199 -1.4902 -1.0323  0.9378
19489TIP3    H279883   2.848   5.209   2.248 -1.2238 -0.5531 -0.0656
19490TIP3   OH279884   0.868   0.079   0.419  0.7893 -0.0822  0.1788
19490TIP3    H179885   0.833  -0.010   0.418  0.4939 -0.0683 -3.3853
19490TIP3    H279886   0.793   0.134   0.443  0.4059 -0.6354  0.2649
19491TIP3   OH279887   2.658   6.047  17.082 -0.3465 -0.4114 -0.3056
19491TIP3    H179888   2.584   6.014  17.132 -0.3120  1.1745  0.8737
19491TIP3    H279889   2.643   6.141  17.076  1.8100  0.0493  0.4284
19492TIP3   OH279890   5.299   0.235   3.037  0.2437  0.4436  0.0347
19492TIP3    H179891   5.216   0.249   3.083  0.4978  2.8200 -0.0802
19492TIP3    H279892   5.365   0.235   3.107  0.1904 -1.2612  0.1097
19493TIP3   OH279893   4.253   0.104   4.689  0.1393  0.0012  0.0170
19493TIP3    H179894   4.320   0.171   4.699  0.2485 -0.2634  1.2032
19493TIP3    H279895   4.170   0.152   4.690  0.1485  0.0672  2.0783
19494TIP3   OH279896   2.699   4.865  14.229  0.1924 -0.0253 -0.3959
19494TIP3    H179897   2.641   4.928  14.186 -1.1263 -1.1451 -0.2981
19494TIP3    H279898   2.645   4.823  14.296  1.0439 -1.2716 -0.4506
19495TIP3   OH279899   4.375   0.489   2.797  0.0993  0.8069  0.0549
19495TIP3    H179900   4.281   0.474   2.809  0.2790  0.3353  0.9613
19495TIP3    H279901   4.411   0.402   2.779  0.4991  0.8195  0.7454
19496TIP3   OH279902   3.596   5.496   1.046 -0.3785  0.2228  0.1386
19496TIP3    H179903   3.612   5.405   1.069 -0.7975  0.5171  1.6800
19496TIP3    H279904   3.501   5.507   1.056 -0.4076  0.6967 -0.5776
19497TIP3   OH279905   0.955   5.328   2.160 -0.7238 -0.3039  0.7515
19497TIP3    H179906   0.996   5.247   2.128 -1.2853 -0.5834  0.7287
19497TIP3    H279907   0.896   5.355   2.090 -0.2151  0.3715  0.5757
19498TIP3   OH279908   6.316   6.129  13.976 -0.2047  0.3182 -0.5249
19498TIP3    H179909   6.335   6.064  14.043 -0.8207  1.6554  1.0298
19498TIP3    H279910   6.309   6.079  13.894 -0.3529 -1.5002  0.5514
19499TIP3   OH279911   1.280   6.347   1.621 -0.0124  0.3683  0.1209
19499TIP3    H179912   1.234   6.282   1.568  1.9098 -1.9117  1.0724
19499TIP3    H279913   1.229   6.352   1.702  0.4371 -0.9042  0.5098
19500TIP3   OH279914   3.934   0.974  12.035 -0.4368  0.4589 -0.3469
19500TIP3    H179915   3.856   0.930  12.000  0.0299 -1.3264  0.7258
19500TIP3    H279916   3.938   0.946  12.126 -0.1159  2.8518  0.4405
19501TIP3   OH279917   4.568   3.701  16.680  0.2282  0.4698 -0.7792
19501TIP3    H179918   4.599   3.613  16.698 -0.4706  0.3680 -0.0328
19501TIP3    H279919   4.610   3.725  16.597  0.3778 -0.5722 -1.0122
19502TIP3   OH279920   5.089   0.780  11.981 -0.3980 -0.6301 -0.5966
19502TIP3    H179921   5.161   0.784  12.043  0.6465 -3.2006 -1.5152
19502TIP3    H279922   5.124   0.818  11.901 -0.2263 -1.3147 -0.8584
19503TIP3   OH279923   1.260   5.336  11.993  0.0631  0.0286  0.0113
19503TIP3    H179924   1.166   5.355  11.996  0.5248  2.5413  0.6777
19503TIP3    H279925   1.302   5.421  12.002  2.4359 -1.1134  0.4845
19504TIP3   OH279926   3.804   1.898  13.400  0.0047 -0.1802  0.1471
19504TIP3    H179927   3.778   1.840  13.329  0.9795 -0.2771 -0.1458
19504TIP3    H279928   3.844   1.840  13.465  2.6795  0.2934 -0.9407
19505TIP3   OH279929   3.639   1.813  15.068  0.2628 -0.0155 -0.1736
19505TIP3    H179930   3.681   1.736  15.030 -1.0476 -0.2142 -1.2720
19505TIP3    H279931   3.675   1.817  15.157 -0.0646 -2.2432  0.1241
19506TIP3   OH279932   2.714   4.366   4.448  0.7164  0.2588  0.0652
19506TIP3    H179933   2.693   4.437   4.508  1.5666  1.7421 -1.3230
19506TIP3    H279934   2.701   4.404   4.361  1.3266 -1.2503 -0.7176
19507TIP3   OH279935   6.197   4.545   4.496  0.0300  0.4267  0.0321
19507TIP3    H179936   6.177   4.637   4.476 -1.1155  0.2445  0.2526
19507TIP3    H279937   6.253   4.549   4.573  1.1835  0.9830 -0.7998
19508TIP3   OH279938   4.717   1.655   1.635  0.4853  0.5938  0.5608
19508TIP3    H179939   4.697   1.562   1.647  2.2618 -0.3418 -2.4338
19508TIP3    H279940   4.813   1.660   1.639  0.3923  2.4962  1.5007
19509TIP3   OH279941   0.773   2.794  11.355  0.4155  0.2436  0.0180
19509TIP3    H179942   0.787   2.767  11.265  0.1229 -1.4106  0.4274
19509TIP3    H279943   0.751   2.887  11.350  0.0400  0.0867 -1.6362
19510TIP3   OH279944   0.841   0.284   0.136 -1.0037  0.1187  0.0216
19510TIP3    H179945   0.881   0.272   0.222 -1.8594  0.9195  0.5570
19510TIP3    H279946   0.906   0.333   0.086 -0.1104 -1.1621 -0.1175
19511TIP3   OH279947   3.678   2.035  16.280  0.3428  0.5640 -0.6646
19511TIP3    H179948   3.771   2.054  16.268  0.1861  0.7077 -1.7047
19511TIP3    H279949   3.654   1.982  16.204  0.0882 -1.4233  0.7150
19512TIP3   OH279950   4.297   0.742  14.774  0.2103 -1.3498 -0.3623
19512TIP3    H179951   4.355   0.711  14.843 -1.2803 -0.1152  1.5392
19512TIP3    H279952   4.216   0.764  14.819  0.0100  1.9362 -2.0727
19513TIP3   OH279953   0.805   4.472  16.371 -0.5236 -0.1591 -0.3353
19513TIP3    H179954   0.791   4.542  16.434 -2.9324 -0.4830 -0.4357
19513TIP3    H279955   0.884   4.428  16.402  0.5155  1.9771  0.2634
19514TIP3   OH279956   1.150   4.814  14.024 -0.0296 -0.4172  0.6363
19514TIP3    H179957   1.126   4.869  13.949 -0.5187 -0.4664  0.7551
19514TIP3    H279958   1.189   4.736  13.984 -0.1404 -0.3718  0.4368
19515TIP3   OH279959   4.383   1.567  14.400 -0.0397 -0.5596 -0.4106
19515TIP3    H179960   4.344   1.617  14.472 -0.3750  0.0832 -1.0257
19515TIP3    H279961   4.335   1.596  14.322  0.5565 -0.9818 -0.9434
19516TIP3   OH279962   0.732   0.005  14.162 -0.0938  0.2429 -0.0062
19516TIP3    H179963   0.773  -0.066  14.114  2.1488  0.7598  1.0338
19516TIP3    H279964   0.652  -0.034  14.199 -0.1218 -1.0433 -1.3454
19517TIP3   OH279965   5.911   2.365  15.138 -0.6631 -0.1928 -0.1144
19517TIP3    H179966   5.905   2.284  15.187 -0.4594  0.6915  1.4326
19517TIP3    H279967   5.884   2.341  15.049 -3.3510 -1.3971  0.8977
19518TIP3   OH279968   2.670   2.015  10.855  0.3100 -0.1066  0.6120
19518TIP3    H179969   2.680   2.039  10.948  2.2879 -1.4792  0.8302
19518TIP3    H279970   2.750   2.049  10.814  0.1884 -0.8587 -0.2685
19519TIP3   OH279971   6.642   5.277   1.528 -0.7099 -0.1740 -0.3637
19519TIP3    H179972   6.565   5.248   1.480 -1.0630 -1.4158  0.8889
19519TIP3    H279973   6.707   5.207   1.515 -1.0506 -0.8877  1.4679
19520TIP3   OH279974   3.423   3.430   1.592  0.7954 -0.6917  1.3889
19520TIP3    H179975   3.508   3.467   1.570  0.2109 -1.0731 -2.0347
19520TIP3    H279976   3.438   3.335   1.597  0.6180 -0.7329  1.1250
19521TIP3   OH279977   6.255   6.561   5.994  0.6584 -0.2375 -0.4101
19521TIP3    H179978   6.162   6.584   5.996  0.4310 -1.1083 -0.6240
19521TIP3    H279979   6.299   6.642   5.967  0.0386  0.3881  0.4092
19522TIP3   OH279980   4.641   4.599  13.075  0.3559  0.3713  0.3109
19522TIP3    H179981   4.696   4.538  13.026  1.4646 -0.6137  2.6018
19522TIP3    H279982   4.575   4.544  13.117  0.3288  0.9491  1.0589
19523TIP3   OH279983   1.323   2.653   3.462 -0.8910  0.1036  0.4637
19523TIP3    H179984   1.238   2.692   3.484 -1.0243 -0.9389  1.9323
19523TIP3    H279985   1.344   2.599   3.538  1.4694  0.9595  0.4873
19524TIP3   OH279986   1.009   4.127  10.168 -0.4509 -0.2851  0.0076
19524TIP3    H179987   1.014   4.216  10.203 -1.1464 -0.5473  0.8258
19524TIP3    H279988   0.915   4.108  10.165 -0.2947 -1.2177  0.4765
19525TIP3   OH279989   1.628   1.934   1.283 -0.5539 -0.3622  0.1376
19525TIP3    H179990   1.535   1.957   1.287 -1.0599 -2.3347  1.1808
19525TIP3    H279991   1.653   1.919   1.374  0.2386 -1.7149 -0.2635
19526TIP3   OH279992   6.540   4.125   1.523 -0.8442  0.5598 -0.4344
19526TIP3    H179993   6.614   4.115   1.464 -1.1505 -1.7775 -0.5014
19526TIP3    H279994   6.579   4.153   1.606  0.1337 -0.5711 -0.4888
19527TIP3   OH279995   2.004   2.490  12.742 -0.1023 -0.4009 -0.7338
19527TIP3    H179996   1.938   2.533  12.688 -0.0969 -1.0706 -1.2969
19527TIP3    H279997   2.064   2.450  12.679  0.2026 -0.7483 -0.2340
19528TIP3   OH279998   1.253   1.079  14.320  0.0010  0.1169  0.1757
19528TIP3    H179999   1.339   1.061  14.358 -0.0936  2.6743  1.8352
19528TIP3    H280000   1.268   1.082  14.226  2.0936  1.9512  0.4994
19529TIP3   OH280001   2.202   3.867  14.267 -0.4651 -0.3120 -0.2524
19529TIP3    H180002   2.290   3.905  14.273 -1.3462  1.7604  0.2346
19529TIP3    H280003   2.200   3.802  14.336  0.7366 -0.5175 -0.3827
19530TIP3   OH280004   4.769   3.837   1.605  0.0338  0.2879  0.2215
19530TIP3    H180005   4.687   3.843   1.654 -1.8738  0.1909 -2.7027
19530TIP3    H280006   4.775   3.746   1.579  1.7422  0.0430  1.3521
19531TIP3   OH280007   0.430   3.386   6.100 -0.3658 -0.4037 -0.1378
19531TIP3    H180008   0.521   3.358   6.092 -0.8273 -1.9216 -0.4560
19531TIP3    H280009   0.424   3.464   6.046  0.8044 -0.1350  0.0875
19532TIP3   OH280010   5.467   4.171  16.084  1.3549  0.3737  0.3869
19532TIP3    H180011   5.396   4.227  16.115  1.5527  0.3483  0.8930
19532TIP3    H280012   5.427   4.084  16.076  0.6825  0.8098 -1.7108
19533TIP3   OH280013   2.415   0.261   1.030  0.5259  0.3780 -0.5428
19533TIP3    H180014   2.395   0.258   1.124  1.1922  2.3960 -0.2985
19533TIP3    H280015   2.488   0.200   1.019 -1.1806 -1.8493 -0.2635
19534TIP3   OH280016   1.769   3.490  16.092  0.0728 -0.4319  0.0616
19534TIP3    H180017   1.723   3.487  16.176 -0.3825 -0.9759 -0.1936
19534TIP3    H280018   1.709   3.537  16.033 -0.0123 -0.8433 -0.1860
19535TIP3   OH280019   6.739   1.126  14.723 -0.4278 -0.4207 -0.0897
19535TIP3    H180020   6.731   1.039  14.683  1.4742 -0.4839 -0.4010
19535TIP3    H280021   6.738   1.186  14.648  2.3198 -0.4872 -0.2814
19536TIP3   OH280022   6.526   3.419  13.432 -0.1450  0.4056  0.1437
19536TIP3    H180023   6.567   3.494  13.389 -2.1510  0.4390 -1.8829
19536TIP3    H280024   6.564   3.342  13.389  0.8654  0.2431  1.2511
19537TIP3   OH280025   1.473   6.714   0.555  0.2146 -0.0029  0.2456
19537TIP3    H180026   1.463   6.736   0.462  0.1767 -1.0252 -0.0039
19537TIP3    H280027   1.401   6.653   0.573 -1.0923  1.7735  1.4982
19538TIP3   OH280028   6.732   0.713  13.431 -0.0980  0.3821 -0.1301
19538TIP3    H180029   6.694   0.637  13.388  2.1015 -0.8405 -0.0640
19538TIP3    H280030   6.712   0.701  13.524  2.0156 -1.3345  0.1861
19539TIP3   OH280031   5.416   3.548  16.797 -0.3816 -0.1794  0.1315
19539TIP3    H180032   5.488   3.485  16.806 -0.6156 -0.7213 -1.4496
19539TIP3    H280033   5.370   3.545  16.880  0.0224 -1.6059  0.3206
19540TIP3   OH280034   4.017   0.646  13.496 -0.0377 -0.2183  0.1932
19540TIP3    H180035   3.974   0.563  13.476 -1.1140 -0.0354  1.6090
19540TIP3    H280036   4.057   0.633  13.582 -0.7268  0.9026  0.7048
19541TIP3   OH280037   0.359   4.123  11.861 -0.6416 -0.2423 -0.3345
19541TIP3    H180038   0.358   4.035  11.823  3.9750 -1.4110  1.6566
19541TIP3    H280039   0.315   4.113  11.946  0.5338 -0.8745  0.2178
19542TIP3   OH280040   6.336   0.828  13.007 -0.2005  0.1260 -0.2144
19542TIP3    H180041   6.259   0.820  13.064 -1.5470  1.2316 -1.7963
19542TIP3    H280042   6.395   0.887  13.054 -0.1754 -0.9090  1.1214
19543TIP3   OH280043   2.835   5.181   4.043 -0.1299 -0.6625 -0.3650
19543TIP3    H180044   2.872   5.177   3.955 -0.0873 -0.5024 -0.3535
19543TIP3    H280045   2.904   5.219   4.096 -1.1148  1.8850 -0.7681
19544TIP3   OH280046   1.465   2.043   0.293  0.2601  0.0490  0.5741
19544TIP3    H180047   1.500   1.965   0.337  1.3514  0.0445 -0.2400
19544TIP3    H280048   1.504   2.040   0.205 -0.6507  0.8674  0.1228
19545TIP3   OH280049   5.763   5.496   4.005  0.4603 -0.0521 -0.1149
19545TIP3    H180050   5.682   5.448   3.990  0.9200 -0.9678  0.2731
19545TIP3    H280051   5.738   5.570   4.060 -0.1743 -0.1089 -0.3279
19546TIP3   OH280052   6.341   3.027  12.711 -0.2079 -0.2045 -0.1916
19546TIP3    H180053   6.355   3.052  12.620 -0.2372  1.6116  0.2470
19546TIP3    H280054   6.264   2.971  12.709 -1.3877  1.3467 -1.1284
19547TIP3   OH280055   1.146   6.178   1.447  0.0242  0.3209 -0.1864
19547TIP3    H180056   1.183   6.100   1.406 -0.6016 -0.8008  1.2855
19547TIP3    H280057   1.051   6.166   1.440 -0.0744  1.2116 -0.4190
19548TIP3   OH280058   1.221   5.256   4.277 -0.4362  0.3872 -0.4991
19548TIP3    H180059   1.296   5.242   4.219 -0.7133 -0.6580 -0.6352
19548TIP3    H280060   1.224   5.349   4.300  1.4503  0.1750  0.2684
19549TIP3   OH280061   5.851   0.660  13.329 -0.2092 -0.2344 -0.7404
19549TIP3    H180062   5.814   0.619  13.251  2.5173 -0.8544 -1.8523
19549TIP3    H280063   5.839   0.595  13.398  0.1389 -1.0586 -1.4287
19550TIP3   OH280064   3.825   6.690   1.889 -0.7428  1.0484 -0.6788
19550TIP3    H180065   3.840   6.760   1.953  1.6348  1.4774 -1.5921
19550TIP3    H280066   3.904   6.637   1.894 -2.7515 -2.1469  0.5326
19551TIP3   OH280067   4.057   3.415  14.756 -0.4711  0.0457 -0.7243
19551TIP3    H180068   4.018   3.451  14.836 -1.3898 -0.6088 -0.8595
19551TIP3    H280069   4.121   3.351  14.787 -2.3359 -1.8047 -0.4616
19552TIP3   OH280070   2.727   4.264   4.028 -0.7585 -0.2047  0.1222
19552TIP3    H180071   2.683   4.180   4.032  0.7754 -1.0631 -0.1616
19552TIP3    H280072   2.818   4.245   4.049 -0.4400  1.4501  0.4406
19553TIP3   OH280073   2.507   1.469   1.652 -0.3135 -0.2066 -0.2389
19553TIP3    H180074   2.433   1.522   1.682 -0.5099 -0.4774 -0.2352
19553TIP3    H280075   2.584   1.516   1.683 -0.3767  1.1975 -2.0296
19554TIP3   OH280076   5.207   5.354   4.529 -0.4036 -0.2511 -0.1211
19554TIP3    H180077   5.271   5.367   4.598  0.5946  3.7864 -1.5119
19554TIP3    H280078   5.124   5.386   4.566  0.2687  2.5650 -0.8337
19555TIP3   OH280079   4.314   1.577  11.307 -0.1830  0.4067  0.7723
19555TIP3    H180080   4.317   1.487  11.273  1.3431  0.0552  1.7649
19555TIP3    H280081   4.237   1.615  11.265  1.0790 -0.2472 -2.4272
19556TIP3   OH280082   3.798   4.794  11.530 -0.2548  0.1149 -0.0337
19556TIP3    H180083   3.750   4.712  11.542 -0.5603  0.4028  0.8036
19556TIP3    H280084   3.758   4.834  11.452 -0.1444 -0.4940 -0.4097
19557TIP3   OH280085   3.283   2.457  14.742  0.2788 -0.1674  0.6426
19557TIP3    H180086   3.278   2.447  14.837 -0.5210  0.2359  0.6503
19557TIP3    H280087   3.287   2.367  14.709  1.6584 -0.3052  1.0866
19558TIP3   OH280088   5.007   6.751  14.935 -0.3156  0.1517  0.4121
19558TIP3    H180089   4.916   6.777  14.950  0.1184  1.6841  0.5089
19558TIP3    H280090   5.046   6.825  14.888  0.9023 -0.4563  0.4199
19559TIP3   OH280091   6.721   1.442  11.437 -0.2636  0.0177  0.2975
19559TIP3    H180092   6.643   1.475  11.393 -1.2798 -0.6688  1.5098
19559TIP3    H280093   6.793   1.493  11.400 -1.3394  1.0066 -0.4986
19560TIP3   OH280094   2.581   2.722  14.098 -0.0389 -0.2488  0.3993
19560TIP3    H180095   2.665   2.715  14.052  0.8602  2.2141  1.4700
19560TIP3    H280096   2.577   2.643  14.152  1.5689 -0.4808  0.2437
19561TIP3   OH280097   2.547   3.537   6.529  0.0424  0.3080  0.2383
19561TIP3    H180098   2.584   3.612   6.483 -1.3944  0.8902 -0.0048
19561TIP3    H280099   2.595   3.533   6.611  2.1666 -0.3200 -0.9406
19562TIP3   OH280100   5.352   5.095   2.164  0.0850 -0.0565  0.6966
19562TIP3    H180101   5.309   5.010   2.157 -0.5048  0.2811 -0.1974
19562TIP3    H280102   5.280   5.158   2.156  0.6858  0.5287 -0.3592
19563TIP3   OH280103   0.708   5.502  11.691  0.7068 -0.4312  0.2951
19563TIP3    H180104   0.714   5.588  11.650 -0.0722 -0.1475  0.7522
19563TIP3    H280105   0.787   5.497  11.746  1.7511 -0.8162 -1.1787
19564TIP3   OH280106   6.248   2.113   2.610  0.1400 -0.1551 -0.4373
19564TIP3    H180107   6.177   2.176   2.610 -0.0252 -0.2679 -2.4170
19564TIP3    H280108   6.264   2.094   2.517  2.8423 -0.0128 -0.1060
19565TIP3   OH280109   4.469   2.560   3.461 -0.0592 -0.1768 -0.7085
19565TIP3    H180110   4.485   2.509   3.381  1.0043 -0.2963 -0.4402
19565TIP3    H280111   4.382   2.533   3.490 -0.1489 -0.6821 -1.4286
19566TIP3   OH280112   6.503   5.822   1.176 -0.3484 -0.5326 -0.4457
19566TIP3    H180113   6.485   5.737   1.215  0.9983 -1.6061 -2.0713
19566TIP3    H280114   6.441   5.828   1.103  0.7249 -0.9242 -1.4121
19567TIP3   OH280115   2.123   2.162   2.151 -0.0812 -0.1631 -0.4714
19567TIP3    H180116   2.079   2.154   2.235 -1.5494 -0.4614 -1.2447
19567TIP3    H280117   2.109   2.254   2.125  0.5122 -0.0252 -0.3270
19568TIP3   OH280118   4.855   3.202   2.873  0.5891 -0.1436  0.7944
19568TIP3    H180119   4.841   3.267   2.942 -0.9850 -1.7518  2.0855
19568TIP3    H280120   4.799   3.129   2.898 -0.7060 -0.4925 -2.6188
19569TIP3   OH280121   5.375   3.497  12.943  0.3538  0.0818  0.5966
19569TIP3    H180122   5.422   3.414  12.936 -0.6568 -0.4841  0.2963
19569TIP3    H280123   5.395   3.529  13.031  1.0439 -0.2883  0.5836
19570TIP3   OH280124   2.061   3.932  16.509  1.0104  0.1262  0.0411
19570TIP3    H180125   2.059   3.902  16.418  1.1322  1.6143 -0.4797
19570TIP3    H280126   2.123   3.873  16.552 -0.4151 -1.7847 -0.3602
19571TIP3   OH280127   1.984   0.524   3.477  0.0819  0.1618  0.2107
19571TIP3    H180128   1.963   0.480   3.395  0.6147  1.1542 -0.4702
19571TIP3    H280129   1.938   0.472   3.544 -1.4686  0.1108 -0.8350
19572TIP3   OH280130   4.631   6.684  15.125  0.7581  0.1851 -0.2064
19572TIP3    H180131   4.603   6.678  15.217 -0.2857 -0.8288 -0.5650
19572TIP3    H280132   4.706   6.625  15.119  0.0374 -0.7383 -0.2762
19573TIP3   OH280133   5.986   1.376   0.495 -0.3433  0.3373 -0.5198
19573TIP3    H180134   5.986   1.452   0.553  1.8456 -1.1603  1.6959
19573TIP3    H280135   5.914   1.322   0.526 -0.0166  0.1658 -0.0367
19574TIP3   OH280136   6.728   4.860   1.706  1.3068  0.0754  0.2558
19574TIP3    H180137   6.645   4.907   1.694  1.2099  0.2189  1.3032
19574TIP3    H280138   6.791   4.929   1.726  1.8918  0.0522 -1.4218
19575TIP3   OH280139   6.583   5.566  15.591  0.6468 -0.3635 -0.4760
19575TIP3    H180140   6.620   5.478  15.585  0.2020 -0.4888 -1.6885
19575TIP3    H280141   6.658   5.623  15.604  1.0051 -0.8478 -0.3768
19576TIP3   OH280142   2.491   6.311   3.852 -0.0366  0.2129 -0.0293
19576TIP3    H180143   2.478   6.385   3.793  1.3001  0.0297 -0.6033
19576TIP3    H280144   2.506   6.350   3.938  2.0587  0.7480 -0.5666
19577TIP3   OH280145   4.974   0.731  12.509 -0.0473  0.4631 -0.3626
19577TIP3    H180146   5.007   0.655  12.460 -0.0568  0.6118 -0.5941
19577TIP3    H280147   5.053   0.782  12.529  0.0115  0.1952  0.1342
19578TIP3   OH280148   0.441   4.996  14.418  0.5600  0.3462  0.5847
19578TIP3    H180149   0.485   5.067  14.464  0.0126  0.6947  0.5897
19578TIP3    H280150   0.360   4.983  14.467  0.2933  0.2563  0.1286
19579TIP3   OH280151   1.047   5.741  11.608  0.0911  0.0127 -0.2988
19579TIP3    H180152   1.087   5.766  11.525 -0.6671  2.0534 -0.1003
19579TIP3    H280153   0.956   5.720  11.586  0.1641 -0.4843 -0.1354
19580TIP3   OH280154   2.659   6.005   0.119  0.2815 -0.2691 -0.2006
19580TIP3    H180155   2.605   6.045   0.051 -0.7590 -1.4345 -0.0843
19580TIP3    H280156   2.629   5.915   0.124 -0.0717 -0.0810  2.2146
19581TIP3   OH280157   4.193   6.273   5.674 -0.0765 -0.0337 -0.3321
19581TIP3    H180158   4.166   6.349   5.623  2.4063  1.5801  0.5772
19581TIP3    H280159   4.243   6.220   5.612 -2.8507 -1.7253 -1.3180
19582TIP3   OH280160   1.832   5.246  13.688  0.3393 -0.3270  0.3547
19582TIP3    H180161   1.881   5.212  13.613 -1.8639 -1.0298 -0.8603
19582TIP3    H280162   1.836   5.342  13.678 -0.5411 -0.4253 -1.1028
19583TIP3   OH280163   3.011   5.257   2.480 -0.2119  0.3623 -0.0523
19583TIP3    H180164   3.068   5.306   2.539  1.9202 -0.4627 -1.3153
19583TIP3    H280165   2.964   5.325   2.431  1.1012  1.1508 -0.2726
19584TIP3   OH280166   6.237   6.634   6.401 -0.2331 -0.1512 -0.1076
19584TIP3    H180167   6.163   6.684   6.366 -0.8658 -0.1287  1.2012
19584TIP3    H280168   6.246   6.559   6.342  0.3554  1.1645 -1.7607
19585TIP3   OH280169   1.285   0.627  15.764 -0.3088 -0.0299 -0.3013
19585TIP3    H180170   1.236   0.610  15.683  1.9372  1.1621 -2.0452
19585TIP3    H280171   1.317   0.717  15.754  0.1049  0.1259  1.9159
19586TIP3   OH280172   3.953   3.569  17.275  0.3322  0.5917 -0.3680
19586TIP3    H180173   3.931   3.554  17.183  0.3251  0.3045 -0.3200
19586TIP3    H280174   4.037   3.614  17.273  0.4736  0.3234 -0.5059
19587TIP3   OH280175   6.440   3.743  12.084 -0.4668  0.3501 -0.3176
19587TIP3    H180176   6.459   3.759  12.176 -2.0783 -1.8623  0.4850
19587TIP3    H280177   6.525   3.750  12.041  0.5343  0.2394  1.5279
19588TIP3   OH280178   1.665   6.153   2.404 -0.3264 -0.9081 -0.0844
19588TIP3    H180179   1.571   6.136   2.393 -0.2102 -0.6904 -1.5969
19588TIP3    H280180   1.683   6.227   2.346  0.6364 -0.4403  0.7930
19589TIP3   OH280181   2.976   2.426  12.682  0.6104  0.0993  0.3460
19589TIP3    H180182   2.960   2.332  12.674  2.7772 -0.2950  0.0364
19589TIP3    H280183   3.043   2.432  12.750  2.4611  1.1446 -1.4541
19590TIP3   OH280184   5.069   4.308  13.688 -0.3118 -0.5870  0.3220
19590TIP3    H180185   5.007   4.380  13.698  2.5129  2.0449  0.2354
19590TIP3    H280186   5.115   4.326  13.606  2.0937 -1.0684  1.4570
19591TIP3   OH280187   1.143   2.999   5.539  0.0500  0.1116  0.0731
19591TIP3    H180188   1.121   3.002   5.632 -0.9377 -0.8212 -0.1129
19591TIP3    H280189   1.141   2.906   5.516 -0.7836  0.3948 -1.1145
19592TIP3   OH280190   2.352   6.684  15.533  0.2767 -0.0360  0.6079
19592TIP3    H180191   2.322   6.761  15.581  0.0479  0.4744 -0.3376
19592TIP3    H280192   2.335   6.611  15.593 -3.3836  0.1251  0.0284
19593TIP3   OH280193   5.505   3.707   4.286 -0.6505  0.5026  0.2721
19593TIP3    H180194   5.540   3.795   4.302  0.4015  0.4004 -1.2703
19593TIP3    H280195   5.425   3.722   4.234  0.4081  0.5391 -1.4320
19594TIP3   OH280196   6.450   2.370  11.717  0.1261  0.0320  0.0505
19594TIP3    H180197   6.411   2.432  11.779 -0.3188 -1.0372  0.8788
19594TIP3    H280198   6.399   2.289  11.730  1.0749 -0.6776 -0.5734
19595TIP3   OH280199   5.938   5.866   2.002 -0.1872 -0.3774 -0.2702
19595TIP3    H180200   5.930   5.886   2.096 -0.5698  0.6554 -0.5063
19595TIP3    H280201   6.024   5.826   1.994  1.3044  2.5417  0.0665
19596TIP3   OH280202   5.297   2.744  11.320 -0.1912 -0.1399  0.3003
19596TIP3    H180203   5.266   2.732  11.230  0.0609 -2.0728  0.4320
19596TIP3    H280204   5.371   2.805  11.312 -0.7166  0.4028 -0.6640
19597TIP3   OH280205   1.943   1.302  12.663  0.3684  0.0870 -0.2396
19597TIP3    H180206   1.990   1.331  12.741 -0.6121  1.9582 -0.2770
19597TIP3    H280207   1.853   1.287  12.693 -0.3342  2.0459 -1.1794
19598TIP3   OH280208   0.212   4.369   5.387 -0.2933 -0.6509 -0.3485
19598TIP3    H180209   0.159   4.289   5.380 -4.0020  1.4965  0.7785
19598TIP3    H280210   0.252   4.364   5.474 -0.1063 -1.4796 -0.4759
19599TIP3   OH280211   2.269   0.239   4.743  0.1865  0.4425 -0.0411
19599TIP3    H180212   2.240   0.190   4.666  2.5322  0.8205 -1.2777
19599TIP3    H280213   2.250   0.331   4.721  0.4036  0.5044  0.0259
19600TIP3   OH280214   5.383   3.727  14.027 -0.0584  0.3451  0.3421
19600TIP3    H180215   5.420   3.796  13.972 -0.3653  0.5589  0.3972
19600TIP3    H280216   5.412   3.748  14.116 -0.7337  0.8104  0.4593
19601TIP3   OH280217   6.019   0.396  15.229  0.3661 -0.2598 -0.0029
19601TIP3    H180218   6.097   0.341  15.232  1.9012  1.6639 -1.5146
19601TIP3    H280219   5.967   0.362  15.157  0.5213 -0.6709  0.0805
19602TIP3   OH280220   6.517   0.802   0.512 -0.4555  0.0875 -0.4580
19602TIP3    H180221   6.522   0.863   0.439 -0.8754 -0.1280 -0.6709
19602TIP3    H280222   6.523   0.715   0.471  0.5265 -0.0157 -0.1278
19603TIP3   OH280223   4.853   2.329  12.690 -0.4568 -0.1966 -0.0403
19603TIP3    H180224   4.861   2.423  12.705  1.1520 -0.4241  0.7271
19603TIP3    H280225   4.828   2.322  12.598 -1.1855  0.9884  0.0495
19604TIP3   OH280226   3.709   2.862   2.913  0.3520 -0.5170 -0.4563
19604TIP3    H180227   3.617   2.888   2.915 -0.0147 -1.7900  0.9438
19604TIP3    H280228   3.749   2.922   2.850 -1.1112  1.1219  0.0807
19605TIP3   OH280229   0.517   2.510   0.772  0.4199 -0.4275 -0.1968
19605TIP3    H180230   0.572   2.581   0.738  2.1243 -0.5659  2.0675
19605TIP3    H280231   0.552   2.492   0.859 -1.6984 -2.2440  0.3626
19606TIP3   OH280232   3.700   0.850   4.809  0.2727  0.4751  0.3353
19606TIP3    H180233   3.733   0.913   4.746  0.1322 -0.5483 -0.7889
19606TIP3    H280234   3.763   0.854   4.882  1.4397  0.4158 -0.6360
19607TIP3   OH280235   2.563   0.871   2.651  0.3022 -0.4149 -0.0720
19607TIP3    H180236   2.577   0.852   2.558  1.1928  0.2730 -0.0838
19607TIP3    H280237   2.616   0.806   2.697  0.5841 -0.1788 -0.0612
19608TIP3   OH280238   6.438   4.504  11.813  0.5613 -0.3306 -0.8342
19608TIP3    H180239   6.414   4.412  11.826  1.5602 -0.9447 -2.8673
19608TIP3    H280240   6.364   4.554  11.850  0.1356 -1.9136  0.5692
19609TIP3   OH280241   2.778   1.962  15.738 -0.0981 -0.2260 -0.1256
19609TIP3    H180242   2.708   1.926  15.793 -2.1551  1.8573 -1.2106
19609TIP3    H280243   2.816   2.032  15.791  0.1147 -0.3196 -0.1520
19610TIP3   OH280244   4.150   6.381  15.336  0.6992  0.0787  0.0395
19610TIP3    H180245   4.113   6.356  15.420  0.5375  0.1292 -0.0167
19610TIP3    H280246   4.112   6.320  15.273  0.4235  0.3640 -0.0733
19611TIP3   OH280247   1.641   6.574   5.436 -0.6287 -0.5720  0.3793
19611TIP3    H180248   1.641   6.492   5.486  0.6198 -0.0841  1.2093
19611TIP3    H280249   1.623   6.642   5.501  2.5954  0.2567  0.5616
19612TIP3   OH280250   5.943   0.927   5.545 -0.2060 -0.0316 -0.1765
19612TIP3    H180251   6.035   0.902   5.531 -0.1913  0.0856 -0.2964
19612TIP3    H280252   5.912   0.953   5.458 -0.5242 -0.6253 -0.2436
19613TIP3   OH280253   3.630   3.455  12.478 -0.1457 -0.2007  0.3461
19613TIP3    H180254   3.711   3.447  12.428 -1.2999 -1.0943 -1.5031
19613TIP3    H280255   3.597   3.365  12.485 -1.3972  0.2279  0.2934
19614TIP3   OH280256   2.026   2.255  16.212  0.1098  0.6236 -0.3920
19614TIP3    H180257   1.968   2.226  16.283 -1.8724 -1.3025 -2.6129
19614TIP3    H280258   2.108   2.210  16.229 -0.2747  0.3063  0.7441
19615TIP3   OH280259   5.164   1.294   3.378 -0.0056  0.5616  0.1339
19615TIP3    H180260   5.095   1.261   3.436  0.7816 -3.5386 -0.9120
19615TIP3    H280261   5.238   1.312   3.437 -0.2467 -0.3854  0.7518
19616TIP3   OH280262   4.323   1.493   4.464 -0.0220 -0.1270  0.2861
19616TIP3    H180263   4.297   1.407   4.497  0.5876  0.1858  1.6460
19616TIP3    H280264   4.289   1.555   4.528 -1.3672  0.7672 -1.2148
19617TIP3   OH280265   6.551   0.604   2.271  0.3412  0.1874  0.2124
19617TIP3    H180266   6.628   0.557   2.302  0.0316 -0.4811 -0.0219
19617TIP3    H280267   6.502   0.540   2.219 -0.0493  0.7837 -0.1766
19618TIP3   OH280268   6.054   3.993  12.744 -0.8613  0.5126  0.1345
19618TIP3    H180269   5.995   4.017  12.673 -0.8254  0.1525 -0.0173
19618TIP3    H280270   6.099   3.914  12.713  0.2093  1.1692 -0.0506
19619TIP3   OH280271   0.616   5.266   0.789  0.0500 -0.1501 -0.5854
19619TIP3    H180272   0.649   5.182   0.822  1.6123  0.6211 -0.1107
19619TIP3    H280273   0.636   5.329   0.858 -1.2807  0.6131 -0.8479
19620TIP3   OH280274   3.826   6.333  13.780 -0.1607 -0.0757 -1.0747
19620TIP3    H180275   3.797   6.271  13.847 -1.0672 -2.2022 -3.2681
19620TIP3    H280276   3.758   6.400  13.778 -0.0366  0.1057  0.1901
19621TIP3   OH280277   4.010   5.528  13.564  0.1606  0.2600  0.3116
19621TIP3    H180278   4.028   5.576  13.483  1.5913  0.8267  0.9541
19621TIP3    H280279   3.933   5.571  13.601 -1.3662 -0.8454 -1.3791
19622TIP3   OH280280   3.936   2.541   5.465  0.2332 -0.3324 -0.1517
19622TIP3    H180281   3.950   2.603   5.536 -2.6807 -1.9731  2.0681
19622TIP3    H280282   3.999   2.471   5.481 -0.4434 -0.7175  0.8884
19623TIP3   OH280283   2.521   0.830  15.382  0.3484  0.8335  0.5526
19623TIP3    H180284   2.467   0.751  15.384  1.7543 -0.1632  1.5446
19623TIP3    H280285   2.583   0.814  15.310 -0.6814  2.0172 -0.6563
19624TIP3   OH280286   0.759   0.671  10.479  0.1764  0.7702  0.5314
19624TIP3    H180287   0.731   0.744  10.534 -1.5355 -0.9209  2.0625
19624TIP3    H280288   0.680   0.646  10.430  0.3063 -0.9137  1.1140
19625TIP3   OH280289   3.538   1.954   0.673 -0.0084 -0.2255  0.9610
19625TIP3    H180290   3.529   1.971   0.767 -1.1257  0.3564  0.7671
19625TIP3    H280291   3.505   2.033   0.631  0.5991 -0.4319  0.0644
19626TIP3   OH280292   4.855   6.564  16.176  1.1081  0.3569 -0.5588
19626TIP3    H180293   4.860   6.488  16.234  0.4065  0.0540 -0.8837
19626TIP3    H280294   4.797   6.625  16.222 -2.3151 -1.2483 -2.3788
19627TIP3   OH280295   6.570   3.426  15.993  0.0504  0.6746 -0.2510
19627TIP3    H180296   6.527   3.410  16.077  1.3877  0.1101  0.3427
19627TIP3    H280297   6.570   3.521  15.983  0.9619  0.8126  0.9724
19628TIP3   OH280298   0.801   1.211   5.000 -0.2003 -0.1269 -0.3578
19628TIP3    H180299   0.770   1.271   4.933 -0.6892  0.7146  0.5992
19628TIP3    H280300   0.894   1.231   5.009 -0.1323 -0.2394 -0.7546
19629TIP3   OH280301   3.541   4.151  15.875 -0.0872  0.2225  0.0325
19629TIP3    H180302   3.627   4.143  15.834 -0.1264 -1.7651  0.2655
19629TIP3    H280303   3.479   4.130  15.806 -0.3074 -0.0364  0.3089
19630TIP3   OH280304   6.489   6.031  11.937 -0.2477  0.4833 -0.2299
19630TIP3    H180305   6.516   6.080  11.858 -0.6508  0.6827 -0.2450
19630TIP3    H280306   6.405   6.070  11.961  0.1979  0.9015  0.7064
19631TIP3   OH280307   0.173   4.616  11.034  0.5655 -0.4172 -0.2516
19631TIP3    H180308   0.258   4.646  11.001  0.9644  0.2901  1.2964
19631TIP3    H280309   0.108   4.664  10.982  0.9968 -2.3460 -2.7547
19632TIP3   OH280310   6.219   6.617  16.361  0.2973  0.1282  0.1441
19632TIP3    H180311   6.259   6.641  16.277  1.2138 -0.0638  0.5106
19632TIP3    H280312   6.129   6.594  16.339  0.1933  1.1896 -0.6170
19633TIP3   OH280313   2.398   0.562  16.695  0.1877  0.5250  0.0275
19633TIP3    H180314   2.412   0.469  16.679 -0.4359  0.8537 -3.0011
19633TIP3    H280315   2.452   0.607  16.629  1.1921  2.3975  1.9823
19634TIP3   OH280316   1.941   5.130  11.359  0.1366 -0.1663 -0.1910
19634TIP3    H180317   1.879   5.195  11.393  0.1543 -1.7527  3.3379
19634TIP3    H280318   2.008   5.182  11.315 -1.5145  1.8979 -0.4501
19635TIP3   OH280319   0.445   0.474   2.655  1.1122 -0.1755 -0.1237
19635TIP3    H180320   0.522   0.500   2.705  0.6477 -0.8124  0.9518
19635TIP3    H280321   0.451   0.379   2.649  1.4075 -0.0773 -1.7215
19636TIP3   OH280322   0.562   5.771   0.290  0.4907  0.5637  0.7014
19636TIP3    H180323   0.509   5.751   0.213  2.1641  1.4620 -0.7792
19636TIP3    H280324   0.605   5.688   0.311  0.0927  0.3330  0.6101
19637TIP3   OH280325   5.536   0.856  14.644  0.2504 -0.0631  0.1457
19637TIP3    H180326   5.511   0.930  14.699 -0.1120  1.0873 -1.4816
19637TIP3    H280327   5.514   0.779  14.696 -0.2579  0.9645  1.5082
19638TIP3   OH280328   1.681   1.060  15.945 -0.5384  0.0750 -0.3930
19638TIP3    H180329   1.662   0.992  16.010 -0.1646 -0.3050 -0.6710
19638TIP3    H280330   1.712   1.135  15.995  1.4145 -0.7875 -0.2125
19639TIP3   OH280331   2.600   5.198  14.481  0.1045  0.4662  0.1147
19639TIP3    H180332   2.514   5.157  14.481 -0.3807  1.2481  3.2958
19639TIP3    H280333   2.659   5.129  14.513  0.0070  0.9514  1.3846
19640TIP3   OH280334   5.963   5.778   1.747  0.1847  0.0126 -0.2194
19640TIP3    H180335   5.897   5.823   1.694  0.5857  0.6687 -0.1670
19640TIP3    H280336   5.943   5.805   1.837  1.6438  1.7240 -0.3536
19641TIP3   OH280337   0.156   4.716  13.574  0.3073  0.5814  0.2048
19641TIP3    H180338   0.186   4.803  13.546  0.1432  0.4671 -0.3477
19641TIP3    H280339   0.063   4.728  13.591  0.5921  0.8716  1.6545
19642TIP3   OH280340   3.310   1.089   2.347 -0.5039  0.2659 -0.5480
19642TIP3    H180341   3.307   1.097   2.251  1.2430 -0.0838 -0.6551
19642TIP3    H280342   3.387   1.137   2.374  0.2889 -1.4511  0.4496
19643TIP3   OH280343   2.186   3.925  15.464  0.4183 -0.4862  0.7556
19643TIP3    H180344   2.254   3.894  15.404 -0.2481  1.1863 -0.9403
19643TIP3    H280345   2.230   3.991  15.518  0.2629  0.3445 -0.1082
19644TIP3   OH280346   3.230   2.761   0.407 -0.1110 -0.2798 -0.3565
19644TIP3    H180347   3.150   2.814   0.406 -0.7495 -1.1417  1.3167
19644TIP3    H280348   3.284   2.799   0.338 -0.7872  2.1315  0.3451
19645TIP3   OH280349   3.891   2.923   5.518  0.2264  0.1595  0.1596
19645TIP3    H180350   3.807   2.891   5.485  0.5342 -0.0756 -0.4079
19645TIP3    H280351   3.940   2.948   5.440  0.9790 -0.4310  0.4165
19646TIP3   OH280352   2.903   1.695  10.995  0.2510  0.3754 -0.2606
19646TIP3    H180353   2.996   1.674  10.982  0.5579  2.1647 -1.2780
19646TIP3    H280354   2.868   1.704  10.906 -0.5317  1.1749  0.1207
19647TIP3   OH280355   4.834   5.534   3.485  0.0943  0.2122 -0.4436
19647TIP3    H180356   4.743   5.550   3.459  0.0180 -1.2473 -1.1535
19647TIP3    H280357   4.830   5.454   3.538  0.9952 -0.0370 -0.7367
19648TIP3   OH280358   5.480   3.252   2.781 -0.4093  0.1556 -0.2809
19648TIP3    H180359   5.522   3.170   2.754 -0.2665  0.1094  0.0897
19648TIP3    H280360   5.474   3.303   2.700  0.2663  0.1247 -0.3546
19649TIP3   OH280361   2.488   4.441  15.560 -0.1635 -0.0351 -0.0205
19649TIP3    H180362   2.491   4.364  15.617  0.1476  0.2933  0.4154
19649TIP3    H280363   2.552   4.501  15.599 -1.2493  0.9167  0.3348
19650TIP3   OH280364   0.520   3.813  14.897 -0.2928 -0.2043  0.4955
19650TIP3    H180365   0.602   3.793  14.942 -0.1979  2.1870  1.5410
19650TIP3    H280366   0.544   3.875  14.829 -0.9619 -1.1438 -0.6358
19651TIP3   OH280367   2.607   1.887   6.084 -0.0302  0.2242 -0.6537
19651TIP3    H180368   2.655   1.843   6.154 -0.4633 -0.0414 -0.5241
19651TIP3    H280369   2.663   1.877   6.007 -0.0854 -0.4846 -0.6046
19652TIP3   OH280370   2.916   4.088  12.436 -0.3231 -0.8314 -0.5591
19652TIP3    H180371   2.830   4.109  12.473  0.1803 -0.0310  0.1744
19652TIP3    H280372   2.919   3.992  12.436 -0.7038 -0.8561  0.6122
19653TIP3   OH280373   0.210   1.127   0.216  0.5282 -0.0943  0.2156
19653TIP3    H180374   0.135   1.131   0.275  0.4816 -1.3404  0.2628
19653TIP3    H280375   0.205   1.208   0.165 -1.2557 -0.4720 -0.2682
19654TIP3   OH280376   0.580   2.822   2.179 -0.2986  0.6089 -0.3588
19654TIP3    H180377   0.673   2.844   2.182 -0.0211 -0.1388  4.1864
19654TIP3    H280378   0.535   2.900   2.210 -0.7816 -0.0648  0.7333
19655TIP3   OH280379   6.627   3.387  16.441  0.0716  0.3633  0.1682
19655TIP3    H180380   6.635   3.310  16.497 -0.0802  0.8557  0.8880
19655TIP3    H280381   6.711   3.432  16.449  0.9438 -0.7680 -1.8754
19656TIP3   OH280382   1.782   4.034   3.155 -0.0252  0.5264  0.2257
19656TIP3    H180383   1.855   4.038   3.217  0.7539 -0.9772 -0.5592
19656TIP3    H280384   1.823   4.036   3.069 -1.0163  1.1533 -0.2561
19657TIP3   OH280385   0.398   5.438  13.754 -0.3778  0.3687 -0.1086
19657TIP3    H180386   0.334   5.447  13.684 -0.0116 -1.2266 -0.6961
19657TIP3    H280387   0.362   5.369  13.810  0.2176  0.3395  0.2447
19658TIP3   OH280388   2.109   1.572   4.515 -0.1239  0.0256  0.9030
19658TIP3    H180389   2.198   1.608   4.520 -0.6124  1.3341  0.6384
19658TIP3    H280390   2.101   1.518   4.593  0.6272  0.5528  1.3653
19659TIP3   OH280391   3.517   3.151  10.929 -0.2320  0.6183  0.4749
19659TIP3    H180392   3.466   3.071  10.916  1.5717 -0.3418 -1.2688
19659TIP3    H280393   3.605   3.128  10.898  0.0593  3.6493 -1.3415
19660TIP3   OH280394   5.344   6.621  16.983  0.4315  0.0460 -0.5119
19660TIP3    H180395   5.374   6.668  17.061 -0.1490 -1.0905  0.4162
19660TIP3    H280396   5.327   6.532  17.013 -1.6397  0.0463 -1.4940
19661TIP3   OH280397   2.516   4.706  12.100  0.2076 -0.2437  0.0687
19661TIP3    H180398   2.442   4.744  12.148  0.6539  0.4568  0.2293
19661TIP3    H280399   2.572   4.670  12.169 -0.1060 -1.0159 -0.0701
19662TIP3   OH280400   2.295   5.307  15.198  0.0637  0.3680 -0.5040
19662TIP3    H180401   2.260   5.280  15.283  0.8440 -1.1916 -0.6538
19662TIP3    H280402   2.223   5.292  15.137 -0.9169  2.6117  0.0006
19663TIP3   OH280403   3.011   5.732   0.176 -0.2488  0.0660 -0.3275
19663TIP3    H180404   2.928   5.713   0.132  1.2488 -1.2814 -2.8047
19663TIP3    H280405   3.018   5.827   0.173 -1.5286  0.1767 -0.3822
19664TIP3   OH280406   6.775   6.161  16.484  0.5593 -0.0880  0.6543
19664TIP3    H180407   6.785   6.179  16.578 -1.3932 -0.6138  1.0010
19664TIP3    H280408   6.719   6.084  16.480 -1.1256  1.1379 -0.9523
19665TIP3   OH280409   4.822   2.220   5.455  0.1462  0.7750 -0.1466
19665TIP3    H180410   4.818   2.270   5.537  1.6516 -1.8717  1.7021
19665TIP3    H280411   4.744   2.164   5.458 -1.2114  2.4642 -1.9003
19666TIP3   OH280412   3.772   1.411   3.713 -0.2020 -0.0415  0.2085
19666TIP3    H180413   3.744   1.463   3.638  0.6317  0.3696  0.1669
19666TIP3    H280414   3.819   1.473   3.769 -2.2982  0.0832  1.9468
19667TIP3   OH280415   2.270   4.100  13.918 -0.8196 -0.3687  0.5463
19667TIP3    H180416   2.334   4.092  13.848 -0.1960 -0.3085  1.1079
19667TIP3    H280417   2.186   4.079  13.876 -0.0850 -3.8913  0.4856
19668TIP3   OH280418   2.193   2.312   0.940 -0.2449  0.0771  0.5944
19668TIP3    H180419   2.237   2.228   0.928 -2.4639 -1.1300  0.2477
19668TIP3    H280420   2.179   2.345   0.851 -1.5391 -0.4594  0.5610
19669TIP3   OH280421   2.214   4.932  13.283  0.1776  0.1334  0.2035
19669TIP3    H180422   2.170   4.942  13.368  0.5002  1.6225  0.2217
19669TIP3    H280423   2.287   4.873  13.301 -0.4805 -0.5717  0.6656
19670TIP3   OH280424   0.917   5.231  15.706 -0.5715  0.3345 -0.1323
19670TIP3    H180425   1.001   5.274  15.722 -0.7412  0.7878 -0.4588
19670TIP3    H280426   0.852   5.301  15.707 -0.9940 -0.0515  0.4207
19671TIP3   OH280427   6.316   3.075   4.380  0.1606  0.1295 -0.2683
19671TIP3    H180428   6.320   2.996   4.434 -0.0799  0.7019  0.6118
19671TIP3    H280429   6.223   3.097   4.378  0.2409  0.4611 -0.3954
19672TIP3   OH280430   6.096   6.160  16.226 -0.5070  0.5759 -0.7374
19672TIP3    H180431   6.059   6.182  16.141  1.2487 -1.4408 -2.1366
19672TIP3    H280432   6.178   6.209  16.229  1.3069 -2.0989 -2.0051
19673TIP3   OH280433   0.933   1.870   2.141 -0.5853  0.0214  0.2009
19673TIP3    H180434   0.842   1.840   2.143 -0.5997  0.1088  1.4683
19673TIP3    H280435   0.976   1.820   2.210  0.5044 -0.4908 -0.7994
19674TIP3   OH280436   4.667   5.627  15.515 -0.0808  0.3728 -0.0013
19674TIP3    H180437   4.664   5.533  15.534 -2.7498  0.0846 -1.3275
19674TIP3    H280438   4.734   5.636  15.447  0.8751 -0.3915  0.8107
19675TIP3   OH280439   4.501   2.492  11.932  0.6719 -0.2998  0.2027
19675TIP3    H180440   4.570   2.443  11.977  1.9986  0.5909 -0.7611
19675TIP3    H280441   4.548   2.543  11.866 -1.0440 -0.5709 -1.3082
19676TIP3   OH280442   1.281   6.514   0.558 -0.2368  0.9011  0.0191
19676TIP3    H180443   1.200   6.565   0.548 -0.7313 -0.0966 -1.4163
19676TIP3    H280444   1.253   6.434   0.603 -0.3264  0.0504 -1.4528
19677TIP3   OH280445   5.330   1.065   4.346 -0.1972  0.0087 -0.7359
19677TIP3    H180446   5.380   1.147   4.337  1.8525 -1.0917  0.0356
19677TIP3    H280447   5.317   1.055   4.440 -0.5744 -0.4961 -0.8364
19678TIP3   OH280448   1.620   4.997   2.467  0.3515 -0.6631  0.2641
19678TIP3    H180449   1.628   4.909   2.429 -0.9152 -0.4866 -0.4548
19678TIP3    H280450   1.605   5.054   2.392 -0.7301 -0.0973  0.8868
19679TIP3   OH280451   2.836   5.089   0.316  0.1034  0.5119  0.4321
19679TIP3    H180452   2.878   5.076   0.401  0.2875  0.3891  0.3237
19679TIP3    H280453   2.875   5.170   0.282  0.6070  0.1423  0.1209
19680TIP3   OH280454   5.999   5.322  12.118  0.2739  0.3191 -0.2729
19680TIP3    H180455   5.904   5.311  12.116  0.3086 -0.1715  0.2895
19680TIP3    H280456   6.033   5.244  12.074  0.4437 -0.1746  0.7116
19681TIP3   OH280457   4.198   0.457   5.463  0.1199  0.0282  0.0432
19681TIP3    H180458   4.245   0.388   5.416 -1.6601 -1.7492  0.7730
19681TIP3    H280459   4.142   0.411   5.525 -1.3721  2.1156  0.3596
19682TIP3   OH280460   6.573   2.237   6.400 -0.0070 -0.4024 -0.1887
19682TIP3    H180461   6.649   2.258   6.345 -0.2188 -0.1361 -0.3768
19682TIP3    H280462   6.601   2.159   6.449 -0.0983 -1.1019 -1.2300
19683TIP3   OH280463   5.387   0.989   1.096 -0.6509  0.0311 -0.1335
19683TIP3    H180464   5.442   0.959   1.024 -0.7115  1.1420 -0.6630
19683TIP3    H280465   5.366   0.909   1.145  0.2352 -0.5995 -0.7485
19684TIP3   OH280466   4.129   2.293  13.579 -0.0721  0.0030 -0.1419
19684TIP3    H180467   4.072   2.268  13.652 -0.1529  2.9497  0.9269
19684TIP3    H280468   4.070   2.323  13.511  0.1145  0.6793 -0.0102
19685TIP3   OH280469   6.760   3.851  16.280  0.7907 -0.3464  0.5070
19685TIP3    H180470   6.765   3.894  16.195  1.2841 -1.4060 -0.0241
19685TIP3    H280471   6.844   3.872  16.322  1.0519 -0.7973  0.2280
19686TIP3   OH280472   3.327   6.038   3.439 -0.4079 -0.2306  0.4095
19686TIP3    H180473   3.344   6.023   3.532 -0.6188 -0.2961  0.4379
19686TIP3    H280474   3.414   6.045   3.400 -0.3089  1.3267  0.8563
19687TIP3   OH280475   3.187   2.511  14.433 -0.0670  0.1342  0.4408
19687TIP3    H180476   3.143   2.449  14.492  0.4412  1.0761  1.8700
19687TIP3    H280477   3.280   2.496  14.449  0.0699  1.5837  1.2113
19688TIP3   OH280478   0.336   2.974  13.081  0.1903  0.8314  0.4377
19688TIP3    H180479   0.260   2.973  13.022 -0.4039 -0.3796  1.1971
19688TIP3    H280480   0.411   2.981  13.022 -0.4268  0.5046 -0.4167
19689TIP3   OH280481   0.136   0.017  16.938 -0.0324  0.2030  0.0876
19689TIP3    H180482   0.210   0.012  16.877  0.2915  0.3848  0.4602
19689TIP3    H280483   0.170   0.067  17.012 -0.5339  0.2926  0.2581
19690TIP3   OH280484   1.531   4.638   3.574  0.2314  0.7712  0.2736
19690TIP3    H180485   1.540   4.545   3.594  1.5034  0.3628 -1.8337
19690TIP3    H280486   1.437   4.654   3.572 -0.0089 -0.5573  0.3204
19691TIP3   OH280487   3.917   6.135   0.817  0.6116 -0.0626  0.0229
19691TIP3    H180488   3.879   6.136   0.729  2.9176  3.2366 -1.1410
19691TIP3    H280489   3.998   6.086   0.808  0.0888 -1.0743  0.7348
19692TIP3   OH280490   6.240   6.369   6.197 -0.5223  0.2429  0.6500
19692TIP3    H180491   6.146   6.360   6.215 -0.5008  0.8917  1.0880
19692TIP3    H280492   6.244   6.422   6.118 -0.5344 -0.2481  0.3141
19693TIP3   OH280493   6.172   2.221  13.249  0.0009 -0.0860  0.2450
19693TIP3    H180494   6.191   2.312  13.269 -0.2877  0.8591 -3.1554
19693TIP3    H280495   6.089   2.224  13.201  0.1660 -2.0781 -0.2630
19694TIP3   OH280496   0.652   5.547   3.634  0.1083  0.0420  0.2420
19694TIP3    H180497   0.562   5.579   3.632  0.1262  0.3698  2.5661
19694TIP3    H280498   0.648   5.469   3.689  1.4035  0.6691  1.2635
19695TIP3   OH280499   5.069   4.852   4.367  0.2129  0.4798  0.0389
19695TIP3    H180500   4.982   4.829   4.401  0.2510  0.2594 -0.0071
19695TIP3    H280501   5.072   4.947   4.371  0.7959  0.4195  2.1146
19696TIP3   OH280502   5.750   4.356  13.102  0.3049 -0.0917 -0.1208
19696TIP3    H180503   5.722   4.432  13.052 -0.4711 -0.6022 -0.4813
19696TIP3    H280504   5.845   4.351  13.087  0.8716  2.2827  1.9570
19697TIP3   OH280505   1.426   0.310  12.059 -0.2820 -0.0490 -1.0904
19697TIP3    H180506   1.368   0.241  12.027  0.2242  0.0338 -2.2358
19697TIP3    H280507   1.481   0.267  12.125  0.3724 -0.8776 -2.1557
19698TIP3   OH280508   2.963   0.504   3.903 -0.6825 -0.0519 -0.1151
19698TIP3    H180509   3.045   0.538   3.939 -0.3049 -0.8408 -0.1923
19698TIP3    H280510   2.898   0.572   3.921 -0.0337  0.5372  0.0435
19699TIP3   OH280511   1.864   2.375  14.815  0.1375 -0.1022  0.3700
19699TIP3    H180512   1.787   2.379  14.757 -0.3261 -1.2263  0.8619
19699TIP3    H280513   1.827   2.379  14.903  0.9312  3.1320  0.6822
19700TIP3   OH280514   4.637   4.483  16.137 -0.0380 -0.0335 -0.3397
19700TIP3    H180515   4.714   4.469  16.192  1.7609  1.6078 -2.2649
19700TIP3    H280516   4.625   4.578  16.136 -0.9653 -0.1435 -1.5303
19701TIP3   OH280517   4.292   2.481  13.695  0.0636  0.1055  0.1070
19701TIP3    H180518   4.231   2.422  13.649 -1.7549  1.1589  1.0497
19701TIP3    H280519   4.292   2.561  13.642 -1.5155  1.0766  1.4759
19702TIP3   OH280520   5.292   1.435  12.479 -0.3511  0.2584  0.4883
19702TIP3    H180521   5.304   1.526  12.453  2.1118 -0.1628 -0.1893
19702TIP3    H280522   5.366   1.417  12.537  0.6536 -1.9146 -1.3045
19703TIP3   OH280523   4.726   2.203   2.407 -0.1742  0.1892 -0.5505
19703TIP3    H180524   4.694   2.264   2.340 -1.9918 -0.5971 -0.4526
19703TIP3    H280525   4.651   2.148   2.427  0.6245 -0.2720  1.4049
19704TIP3   OH280526   2.867   3.637  13.081  0.1525  0.0409 -0.2834
19704TIP3    H180527   2.875   3.614  13.173  0.5939 -2.8648 -0.9535
19704TIP3    H280528   2.955   3.661  13.054 -0.1235  1.7196  0.1768
19705TIP3   OH280529   3.263   3.540  12.489 -0.3583  0.1298  0.5931
19705TIP3    H180530   3.279   3.631  12.462  3.2300  0.0248  1.8401
19705TIP3    H280531   3.258   3.492  12.407  0.7211  1.1022 -0.0910
19706TIP3   OH280532   2.302   0.048   3.208  0.1192 -0.4537 -0.1458
19706TIP3    H180533   2.220   0.095   3.194 -1.0298 -2.4612 -0.5677
19706TIP3    H280534   2.322   0.062   3.301 -1.3179 -0.8216  0.2426
19707TIP3   OH280535   5.779   5.373  11.139 -0.2751  0.2911 -0.1221
19707TIP3    H180536   5.842   5.313  11.178  0.9408  1.2167 -0.5777
19707TIP3    H280537   5.709   5.380  11.203  0.5879  0.0309  0.8714
19708TIP3   OH280538   2.358   5.171  12.189  0.3580 -0.4478  0.3813
19708TIP3    H180539   2.345   5.264  12.203 -1.0773 -0.3970 -1.0889
19708TIP3    H280540   2.452   5.162  12.172  0.7450  0.5169  1.8316
19709TIP3   OH280541   3.647   6.718   1.107 -0.0895  0.2991 -0.2943
19709TIP3    H180542   3.688   6.649   1.159  1.1313  1.8601  0.9530
19709TIP3    H280543   3.593   6.672   1.044 -1.1774 -1.7523  1.9731
19710TIP3   OH280544   4.174   5.628   1.088 -0.1351 -0.3138 -0.5682
19710TIP3    H180545   4.144   5.649   1.176 -0.8393 -0.0938 -0.8578
19710TIP3    H280546   4.268   5.610   1.098  0.1890  1.4774 -0.0604
19711TIP3   OH280547   4.616   6.427   2.674  0.0016  0.3001 -0.2912
19711TIP3    H180548   4.699   6.440   2.627  0.3404  0.7334  0.4180
19711TIP3    H280549   4.553   6.481   2.626 -0.1674 -0.9472 -1.5581
19712TIP3   OH280550   0.297   6.719  12.933  0.2008 -0.5121 -0.2295
19712TIP3    H180551   0.228   6.772  12.892  1.2669  0.7964 -0.4247
19712TIP3    H280552   0.339   6.674  12.860  0.2814 -0.4096 -0.2469
19713TIP3   OH280553   1.464   3.511   3.922  0.0422 -0.2101  0.2809
19713TIP3    H180554   1.415   3.470   3.850 -0.5056  0.2682  0.3727
19713TIP3    H280555   1.453   3.450   3.995 -0.6990  0.0380  0.3921
19714TIP3   OH280556   2.882   1.051   6.597  0.1950  0.1215  0.6074
19714TIP3    H180557   2.942   1.039   6.670 -0.7725 -0.4025  1.3315
19714TIP3    H280558   2.909   1.134   6.557  0.6391  0.4930  1.6487
19715TIP3   OH280559   3.964   3.379   0.131 -0.3157  0.1266  0.6941
19715TIP3    H180560   4.057   3.367   0.115 -0.0810 -0.1585  2.0982
19715TIP3    H280561   3.937   3.447   0.069  0.1868 -1.6576 -1.6014
19716TIP3   OH280562   0.082   2.943   4.468  0.0733 -0.5957  0.6723
19716TIP3    H180563  -0.013   2.936   4.462 -0.2056 -1.4310  3.9170
19716TIP3    H280564   0.115   2.871   4.415 -1.0190  0.2174 -1.1830
19717TIP3   OH280565   0.584   1.451   5.718  0.1820 -0.1833  0.3107
19717TIP3    H180566   0.644   1.462   5.645 -1.1878  0.1541 -0.8082
19717TIP3    H280567   0.608   1.520   5.780  2.4523 -1.5216  1.0029
19718TIP3   OH280568   1.684   2.167  15.191 -0.2681  0.3445 -0.3330
19718TIP3    H180569   1.762   2.170  15.246  1.0860  0.7719 -2.1624
19718TIP3    H280570   1.664   2.259  15.174 -0.5831  0.2169 -0.6579
19719TIP3   OH280571   5.092   2.424  13.446  0.4479  0.2301 -0.3341
19719TIP3    H180572   5.118   2.380  13.527 -1.9286 -3.3342 -1.2387
19719TIP3    H280573   5.035   2.496  13.474  0.4074 -0.3732  1.2056
19720TIP3   OH280574   1.078   0.860   0.865  0.3023  0.1646 -0.0627
19720TIP3    H180575   1.165   0.822   0.873 -0.6710 -2.5191 -0.9091
19720TIP3    H280576   1.093   0.953   0.848  3.0376 -0.4826 -1.8164
19721TIP3   OH280577   2.043   2.551   5.930 -0.5761  0.2062 -0.5176
19721TIP3    H180578   1.993   2.537   5.850 -1.3762  0.9589 -0.1698
19721TIP3    H280579   1.978   2.579   5.994  0.1909  0.5432  0.1297
19722TIP3   OH280580   3.757   1.138   1.825 -0.5204 -0.3091 -0.0038
19722TIP3    H180581   3.670   1.100   1.833 -0.7742  0.5770  1.8270
19722TIP3    H280582   3.753   1.220   1.874  1.6110 -0.7124  0.9660
19723TIP3   OH280583   0.289   6.389   2.410 -0.0286  0.5662  0.4852
19723TIP3    H180584   0.238   6.436   2.344  0.2603  0.8318  0.4481
19723TIP3    H280585   0.379   6.418   2.396  0.2111 -0.2844  0.2192
19724TIP3   OH280586   5.294   5.924  11.489  0.0182 -0.6989 -0.1005
19724TIP3    H180587   5.384   5.896  11.504  0.2235  0.0814  0.1784
19724TIP3    H280588   5.259   5.860  11.427  0.7065 -1.1098 -0.0769
19725TIP3   OH280589   5.901   5.334  17.300 -0.2012  0.5824 -0.1904
19725TIP3    H180590   5.899   5.427  17.321 -1.1875  0.4717  0.2772
19725TIP3    H280591   5.880   5.329  17.207  0.2344  0.8470 -0.3028
19726TIP3   OH280592   3.832   2.332  15.477  0.5334 -0.3777  0.0549
19726TIP3    H180593   3.885   2.411  15.464  1.5149 -0.8339  1.0719
19726TIP3    H280594   3.802   2.308  15.390  0.1501  1.1555 -0.2631
19727TIP3   OH280595   1.485   1.473  15.959 -0.3289 -0.2338  0.3610
19727TIP3    H180596   1.499   1.500  15.868 -1.0403 -0.0977  0.2848
19727TIP3    H280597   1.503   1.552  16.011  1.4841 -0.6745  0.4780
19728TIP3   OH280598   4.480   0.572  15.407 -0.4500 -0.4636 -0.4573
19728TIP3    H180599   4.391   0.557  15.437 -0.6106  0.1779 -0.6031
19728TIP3    H280600   4.534   0.514  15.461 -0.7349  0.6212  1.0665
19729TIP3   OH280601   4.420   1.908  15.458 -0.4166 -0.2268 -0.2079
19729TIP3    H180602   4.429   1.969  15.385  0.4408  1.0130  0.8689
19729TIP3    H280603   4.444   1.823  15.422  0.4823  0.4441 -1.2518
19730TIP3   OH280604   3.862   1.540  16.262  0.3853  0.4950  0.6088
19730TIP3    H180605   3.828   1.549  16.174 -1.6930  1.2985  1.4240
19730TIP3    H280606   3.895   1.450  16.267  1.4459  0.7479 -1.2324
19731TIP3   OH280607   3.005   4.891  11.422  0.2798  0.2467  0.2638
19731TIP3    H180608   3.063   4.871  11.349 -1.2063  1.0412 -1.2096
19731TIP3    H280609   3.038   4.973  11.458  0.4759  0.3362 -0.1246
19732TIP3   OH280610   3.025   5.452  17.191  0.0998  0.1578  0.0934
19732TIP3    H180611   3.033   5.546  17.176  2.9507 -0.3207 -2.3511
19732TIP3    H280612   2.987   5.418  17.110  2.9827 -1.1230 -0.8463
19733TIP3   OH280613   3.714   1.863   4.412  0.0739  0.4860  0.0685
19733TIP3    H180614   3.733   1.812   4.333 -0.4278  2.0723 -1.1036
19733TIP3    H280615   3.799   1.873   4.455  0.1171 -1.8240  0.6959
19734TIP3   OH280616   6.546   2.787   1.891  0.1967 -0.4813 -0.0829
19734TIP3    H180617   6.473   2.841   1.923 -0.4471 -1.2575 -0.1943
19734TIP3    H280618   6.576   2.832   1.812 -0.9782 -0.7785 -0.7367
19735TIP3   OH280619   1.834   0.308   4.812  0.1688 -0.1731  0.0268
19735TIP3    H180620   1.902   0.375   4.802  0.1498 -0.0995  0.3765
19735TIP3    H280621   1.852   0.268   4.897 -0.5606  0.2370  0.3897
19736TIP3   OH280622   3.644   2.100   2.788  0.1759 -0.2130  0.5985
19736TIP3    H180623   3.718   2.138   2.740  1.0098 -0.6183  1.5325
19736TIP3    H280624   3.572   2.161   2.773  1.2025  1.1975  1.2036
19737TIP3   OH280625   0.999   0.866  11.726 -0.0485  0.0013  0.0349
19737TIP3    H180626   1.020   0.773  11.728 -0.0781 -0.0056  0.0303
19737TIP3    H280627   0.903   0.869  11.728 -0.0480  0.0312  0.0197
19738TIP3   OH280628   4.213   4.084   2.945 -0.1670 -0.2052  0.0122
19738TIP3    H180629   4.121   4.101   2.924 -0.2560  0.5606  0.9469
19738TIP3    H280630   4.259   4.091   2.862 -0.7346  0.9910 -0.2184
19739TIP3   OH280631   3.800   2.745   1.774  0.5323  0.4571  0.2018
19739TIP3    H180632   3.737   2.813   1.752  0.6335  0.5631  0.2395
19739TIP3    H280633   3.770   2.668   1.726  0.8848  0.7461 -0.4911
19740TIP3   OH280634   2.215   6.211  14.581 -0.1713 -0.2786 -0.0358
19740TIP3    H180635   2.154   6.222  14.508  1.9816 -0.8153 -2.0653
19740TIP3    H280636   2.210   6.118  14.602  2.0494 -1.0564 -2.3699
19741TIP3   OH280637   2.104   6.518  14.575 -0.0490 -0.2247 -0.6879
19741TIP3    H180638   2.022   6.562  14.554  1.0784  2.8507  0.6939
19741TIP3    H280639   2.160   6.534  14.499  0.1568  0.1787 -0.4538
19742TIP3   OH280640   4.290   1.443  13.993  0.9234 -0.1603  0.3884
19742TIP3    H180641   4.374   1.472  14.029  0.5997 -0.2654  1.2645
19742TIP3    H280642   4.227   1.507  14.025  0.4419 -0.9442  1.0611
19743TIP3   OH280643   0.916   5.466  11.879  0.2009 -0.2462  0.4866
19743TIP3    H180644   0.965   5.512  11.947  0.9966 -0.2630 -0.0703
19743TIP3    H280645   0.935   5.374  11.893 -2.5226 -0.6350  2.5094
19744TIP3   OH280646   5.097   3.674   1.647  0.0952 -0.5468 -0.5324
19744TIP3    H180647   5.130   3.584   1.644  2.0321  0.1185 -1.0755
19744TIP3    H280648   5.119   3.704   1.735  1.1176 -0.0573 -0.9389
19745TIP3   OH280649   6.226   0.367  12.692  0.0906 -0.1600  0.1457
19745TIP3    H180650   6.137   0.333  12.702  0.4415 -0.5002  2.4492
19745TIP3    H280651   6.264   0.312  12.623 -1.5696  0.2910 -1.2336
19746TIP3   OH280652   5.482   6.233   3.309  0.3272  0.1261 -1.0569
19746TIP3    H180653   5.520   6.146   3.317  0.9327  0.4662 -0.1107
19746TIP3    H280654   5.436   6.231   3.225  2.2175 -0.3718 -2.1298
19747TIP3   OH280655   3.552   4.999  13.385 -0.2912  0.9446 -0.3336
19747TIP3    H180656   3.525   5.077  13.434  0.6875  2.3306 -1.9301
19747TIP3    H280657   3.474   4.976  13.334 -1.1676 -0.2408  1.4104
19748TIP3   OH280658   4.439   2.583  15.541 -0.6729 -0.0682 -0.2924
19748TIP3    H180659   4.511   2.636  15.506  0.2772  0.1833  1.8626
19748TIP3    H280660   4.482   2.512  15.588 -1.7779  0.2467  1.2934
19749TIP3   OH280661   4.620   2.659  14.184  0.2618 -0.1054  0.3671
19749TIP3    H180662   4.635   2.637  14.092 -0.5864  1.0220 -0.0575
19749TIP3    H280663   4.544   2.717  14.183 -0.7429 -1.3077  1.9357
19750TIP3   OH280664   0.970   2.549   4.485  0.0458 -0.3151  0.1674
19750TIP3    H180665   0.883   2.572   4.518 -0.2110 -2.3151  1.0035
19750TIP3    H280666   0.953   2.484   4.416  0.8083  0.6912 -1.0069
19751TIP3   OH280667   0.142   4.315   4.902  0.0534 -0.4922 -0.0336
19751TIP3    H180668   0.098   4.300   4.985  0.5526 -1.8067  0.0095
19751TIP3    H280669   0.106   4.250   4.842  0.5617 -0.3376 -0.5212
19752TIP3   OH280670   3.918   4.976  11.730  0.1548  0.4716  0.0130
19752TIP3    H180671   4.012   4.971  11.713  0.2737  1.6973  0.2478
19752TIP3    H280672   3.879   4.918  11.664  0.7660  3.1984 -3.0212
19753TIP3   OH280673   2.286   4.005   4.179  0.2578  0.0055  0.1810
19753TIP3    H180674   2.272   3.967   4.266  0.6527  0.0031  0.2461
19753TIP3    H280675   2.323   4.092   4.197  0.8117 -0.1913  0.0121
19754TIP3   OH280676   0.010   5.990  16.025  0.0855  0.3738  0.4268
19754TIP3    H180677   0.050   6.067  15.983  0.7356  0.1059  0.5443
19754TIP3    H280678   0.067   5.917  16.001 -1.0887 -0.2652 -0.5384
19755TIP3   OH280679   3.820   0.360  11.235 -0.3079  0.3041  0.1549
19755TIP3    H180680   3.797   0.282  11.286 -0.5911 -0.7831 -1.5409
19755TIP3    H280681   3.868   0.415  11.296  1.8863 -2.1831  0.8743
19756TIP3   OH280682   1.335   6.040  11.888 -0.3463  0.1174  0.2236
19756TIP3    H180683   1.371   6.129  11.886  1.8428 -0.7198 -0.0627
19756TIP3    H280684   1.354   6.008  11.975 -1.8226  0.1409  0.5908
19757TIP3   OH280685   6.027   0.878   3.031  0.3666 -0.5025  0.6630
19757TIP3    H180686   6.062   0.903   3.117 -1.7103 -0.1203  1.4665
19757TIP3    H280687   5.943   0.925   3.025  0.6015 -0.2757 -1.7282
19758TIP3   OH280688   1.454   2.935   2.126 -0.5294  0.4362  0.2176
19758TIP3    H180689   1.413   3.021   2.137 -1.3240 -0.1065  1.8914
19758TIP3    H280690   1.534   2.939   2.178 -0.5199  0.1912  0.2228
19759TIP3   OH280691   0.126   0.617  16.861  0.1080  0.1189 -0.3576
19759TIP3    H180692   0.077   0.699  16.855  0.4535  0.3747  0.2108
19759TIP3    H280693   0.166   0.619  16.948 -0.1622 -0.8172 -0.2033
19760TIP3   OH280694   1.778   4.731  13.249 -0.2354 -0.2526  0.7839
19760TIP3    H180695   1.775   4.661  13.183  0.5123  1.0931 -0.7410
19760TIP3    H280696   1.716   4.796  13.217  1.2548  1.1067  0.5452
19761TIP3   OH280697   4.549   5.252  14.162  0.3748  0.1208 -0.2520
19761TIP3    H180698   4.639   5.283  14.156  0.3446  0.2347 -0.1338
19761TIP3    H280699   4.504   5.319  14.214 -0.0247  0.5919 -1.1866
19762TIP3   OH280700   3.243   6.005   6.680 -0.4251 -0.0100 -0.0711
19762TIP3    H180701   3.196   6.087   6.695  0.4888  0.4995  0.0741
19762TIP3    H280702   3.290   6.019   6.598 -0.1905 -0.3442  0.0031
19763TIP3   OH280703   1.241   0.218  14.694  0.4204 -0.5410 -0.0253
19763TIP3    H180704   1.248   0.146  14.632  1.5936  0.4529 -1.1123
19763TIP3    H280705   1.157   0.205  14.737 -0.5973 -1.0868 -2.0625
19764TIP3   OH280706   6.603   6.702  15.023  0.5703  0.3615 -1.0430
19764TIP3    H180707   6.628   6.679  15.113  1.2933 -1.7089 -1.7019
19764TIP3    H280708   6.643   6.788  15.008  0.4330  0.7528  0.6016
19765TIP3   OH280709   2.483   0.809  11.121 -0.3149  0.1196  0.1193
19765TIP3    H180710   2.419   0.738  11.131 -0.4457 -0.0050 -1.4171
19765TIP3    H280711   2.539   0.781  11.049 -0.7022  1.8156 -0.8849
19766TIP3   OH280712   5.198   6.039   3.971  0.1270  0.1966  0.4177
19766TIP3    H180713   5.156   5.957   3.944 -0.8453  0.2218  1.7443
19766TIP3    H280714   5.209   6.030   4.066 -2.0205  2.4630  0.9712
19767TIP3   OH280715   0.108   5.627   6.030  0.2076  0.1870  0.0000
19767TIP3    H180716   0.057   5.551   6.001  0.6856  0.1930 -0.8974
19767TIP3    H280717   0.198   5.604   6.009  0.4134  0.7895  0.2124
19768TIP3   OH280718   3.346   2.275   4.424 -0.1042  0.2602  0.4443
19768TIP3    H180719   3.306   2.355   4.391 -0.9767 -0.2677  0.1967
19768TIP3    H280720   3.397   2.241   4.350  0.4389  0.6817  0.6142
19769TIP3   OH280721   5.568   2.039   5.004  0.5428 -0.8543 -0.3699
19769TIP3    H180722   5.651   2.075   4.973 -0.3799  2.1876  0.3579
19769TIP3    H280723   5.526   2.005   4.926  1.8725 -1.2448 -0.9521
19770TIP3   OH280724   3.640   2.652   2.596  0.2330  0.5329  0.3804
19770TIP3    H180725   3.723   2.642   2.643 -0.6207 -0.1286  1.8064
19770TIP3    H280726   3.643   2.741   2.561  2.8887 -0.4460 -2.3479
19771TIP3   OH280727   5.379   3.308  13.950  0.2077  0.2293  0.0250
19771TIP3    H180728   5.344   3.318  13.861 -0.2302  1.9572  0.3606
19771TIP3    H280729   5.472   3.330  13.941  0.3959 -0.5708 -0.1538
19772TIP3   OH280730   3.383   5.676  16.366  0.0944  0.1626  0.0868
19772TIP3    H180731   3.319   5.612  16.398 -0.2741  1.0250  1.1669
19772TIP3    H280732   3.445   5.625  16.315 -1.6353 -0.6674 -1.2881
19773TIP3   OH280733   5.850   3.636  15.297  0.4240 -0.3363 -0.1600
19773TIP3    H180734   5.886   3.720  15.271 -2.4320 -0.2623 -5.2164
19773TIP3    H280735   5.916   3.572  15.270  0.7550  0.1102 -0.4201
19774TIP3   OH280736   0.456   5.726  13.450  0.5988 -0.6195  0.3104
19774TIP3    H180737   0.487   5.814  13.427  1.4804 -1.1991 -0.8215
19774TIP3    H280738   0.371   5.740  13.490 -0.2578  0.6339 -1.7787
19775TIP3   OH280739   1.247   4.684   3.561  0.1686  0.8573 -0.1124
19775TIP3    H180740   1.189   4.678   3.485  1.0849  0.4320 -0.7999
19775TIP3    H280741   1.243   4.776   3.587 -1.4150  0.6833  0.3548
19776TIP3   OH280742   0.199   3.183   1.561  0.0470 -0.2158 -0.4471
19776TIP3    H180743   0.113   3.161   1.527  0.2212  0.1350 -1.1232
19776TIP3    H280744   0.185   3.260   1.617  0.1668  0.8925 -1.8996
19777TIP3   OH280745   1.129   4.039   0.630 -0.2191  0.5868  0.2558
19777TIP3    H180746   1.064   4.107   0.611  0.0700  0.7664 -0.0827
19777TIP3    H280747   1.184   4.077   0.699 -1.3962 -0.1429  1.6639
19778TIP3   OH280748   3.459   4.447   2.153  0.7152 -0.2332 -0.0441
19778TIP3    H180749   3.483   4.490   2.235  1.9974 -2.1815  0.6639
19778TIP3    H280750   3.530   4.384   2.137 -0.9875 -1.9875 -1.0755
19779TIP3   OH280751   4.283   2.062   1.104  0.0256 -0.2906 -0.1054
19779TIP3    H180752   4.326   2.002   1.165 -1.1245 -1.5387 -0.4563
19779TIP3    H280753   4.265   2.141   1.155 -0.5330 -1.1488  1.0743
19780TIP3   OH280754   2.331   1.862  13.386 -0.2091  0.1603  0.2108
19780TIP3    H180755   2.309   1.840  13.477  3.1298 -0.8068  0.9134
19780TIP3    H280756   2.317   1.781  13.337  0.2328  0.0003  0.3448
19781TIP3   OH280757   5.233   1.105   6.140 -0.1759 -0.2452 -0.6466
19781TIP3    H180758   5.322   1.116   6.105  0.3048 -1.0441  0.2703
19781TIP3    H280759   5.212   1.189   6.180  1.3097 -0.8597  1.6014
19782TIP3   OH280760   4.042   4.471   0.184 -0.2936  0.3194 -0.1055
19782TIP3    H180761   3.972   4.417   0.222  0.1162 -1.9338 -2.3304
19782TIP3    H280762   4.003   4.508   0.105  1.1615 -1.7263 -1.9056
19783TIP3   OH280763   3.470   2.603   2.074  0.1241  0.3758  0.9501
19783TIP3    H180764   3.553   2.588   2.029 -1.0448  1.1325 -1.6519
19783TIP3    H280765   3.479   2.690   2.114 -0.3653  1.8914 -1.9603
19784TIP3   OH280766   2.356   5.206   4.261 -0.3345  0.5219 -0.1400
19784TIP3    H180767   2.323   5.134   4.208  1.3044  1.0260 -1.9483
19784TIP3    H280768   2.451   5.203   4.251 -0.1275  2.1147  0.8411
19785TIP3   OH280769   5.138   5.415  14.296  0.2760 -0.1116 -0.9893
19785TIP3    H180770   5.104   5.469  14.225  0.1248  0.3602 -0.5654
19785TIP3    H280771   5.185   5.477  14.353 -0.5569 -0.2831 -0.0910
19786TIP3   OH280772   1.524   5.320   3.056 -0.1994 -0.5291  0.0355
19786TIP3    H180773   1.590   5.381   3.024 -0.6834  0.3527  0.6992
19786TIP3    H280774   1.542   5.311   3.149 -0.8591 -0.4922  0.1700
19787TIP3   OH280775   3.631   2.536  14.602 -0.1696  0.4330  0.4832
19787TIP3    H180776   3.713   2.567  14.565 -1.0898  2.6201  0.1056
19787TIP3    H280777   3.646   2.535  14.697  0.2561  1.0189  0.4276
19788TIP3   OH280778   2.251   4.235  16.442 -0.5248  0.0554 -0.0006
19788TIP3    H180779   2.269   4.228  16.348 -1.7535  1.2172 -0.3504
19788TIP3    H280780   2.298   4.162  16.481 -0.0911 -0.5155 -1.5384
19789TIP3   OH280781   6.089   4.332   4.201 -0.1673 -0.3660 -0.4199
19789TIP3    H180782   6.102   4.395   4.131 -1.3276 -0.7140 -0.9885
19789TIP3    H280783   6.069   4.250   4.155  0.0407 -0.8328  0.3127
19790TIP3   OH280784   5.891   4.858   4.172  0.0354  0.2444  0.2216
19790TIP3    H180785   5.798   4.875   4.162  0.4720  3.0544  0.2443
19790TIP3    H280786   5.934   4.933   4.130  2.4074 -2.3148 -2.4619
19791TIP3   OH280787   2.694   5.683  15.535  0.6071  0.2157 -0.2092
19791TIP3    H180788   2.787   5.695  15.550  0.3858  2.1574 -0.1961
19791TIP3    H280789   2.680   5.710  15.444 -0.0400  0.5705 -0.0127
19792TIP3   OH280790   1.622   2.403   1.709  0.2696  0.6557 -0.5878
19792TIP3    H180791   1.582   2.334   1.655 -1.1754  1.0215 -0.0131
19792TIP3    H280792   1.679   2.355   1.770 -0.0910  0.0406 -0.7275
19793TIP3   OH280793   3.651   3.961   4.880 -0.1372 -0.1145 -0.8130
19793TIP3    H180794   3.644   3.868   4.900  2.9847 -0.3757 -0.4022
19793TIP3    H280795   3.726   3.991   4.932 -1.0214  2.6279 -0.9832
19794TIP3   OH280796   1.842   0.167   0.425  0.5142 -0.9109  0.2526
19794TIP3    H180797   1.876   0.256   0.415 -0.4168 -0.5192  0.4789
19794TIP3    H280798   1.920   0.112   0.427  1.1441 -0.0226  0.9261
19795TIP3   OH280799   4.751   5.804  10.742 -0.7781 -0.1078  0.0791
19795TIP3    H180800   4.658   5.787  10.722 -1.2783  0.6266  1.5980
19795TIP3    H280801   4.772   5.741  10.811 -1.2014  1.9031  2.1868
19796TIP3   OH280802   3.531   3.682  17.207  0.3308  0.1785 -0.3577
19796TIP3    H180803   3.441   3.659  17.232  0.7460  0.0022  1.0835
19796TIP3    H280804   3.541   3.648  17.118 -1.3782  1.1903 -0.9679
19797TIP3   OH280805   1.981   6.459   1.009  0.4910  0.0973  0.2366
19797TIP3    H180806   1.956   6.529   1.069 -0.3537  0.7745 -0.8624
19797TIP3    H280807   1.926   6.472   0.932  1.5632 -0.7215 -0.7129
19798TIP3   OH280808   2.468   4.474   5.021 -0.1649 -0.1023 -1.0572
19798TIP3    H180809   2.529   4.549   5.022  0.1802 -0.3572  1.0150
19798TIP3    H280810   2.383   4.513   5.004  0.0046  0.7945  0.0416
19799TIP3   OH280811   3.680   4.261  14.770  0.2112 -0.2197  0.3261
19799TIP3    H180812   3.619   4.321  14.727 -0.0235 -0.6206  0.0941
19799TIP3    H280813   3.737   4.318  14.822 -0.5822  0.1341  0.8246
19800TIP3   OH280814   3.101   4.494  12.993  0.2064 -0.4221  0.2262
19800TIP3    H180815   3.071   4.451  12.913  1.6383 -0.2691 -0.4261
19800TIP3    H280816   3.026   4.544  13.023 -1.3747 -2.9385  0.7441
19801TIP3   OH280817   6.678   2.650  13.139 -0.4819  0.1967 -0.1517
19801TIP3    H180818   6.749   2.586  13.128  1.6354  2.0304  1.7370
19801TIP3    H280819   6.655   2.676  13.050  3.3570  1.6415 -0.9200
19802TIP3   OH280820   3.767   2.824  11.666  0.1997 -0.6561 -0.2122
19802TIP3    H180821   3.843   2.772  11.690  0.5628  0.1487  0.4284
19802TIP3    H280822   3.773   2.834  11.571  1.2289 -0.1038 -0.0983
19803TIP3   OH280823   0.515   1.604  11.649 -0.2648 -0.4768 -0.3989
19803TIP3    H180824   0.455   1.531  11.662 -1.1662  0.3573  0.1939
19803TIP3    H280825   0.576   1.599  11.723 -0.4361 -0.5206 -0.2607
19804TIP3   OH280826   1.377   2.787  16.941  0.1889  0.0895  0.7563
19804TIP3    H180827   1.378   2.866  16.996  1.4147  0.2709  0.5045
19804TIP3    H280828   1.430   2.810  16.865  3.0248 -1.8085  1.9637
19805TIP3   OH280829   3.034   3.040   5.588 -0.0649 -0.0297 -0.1679
19805TIP3    H180830   2.990   3.082   5.662 -0.6064  0.5031 -0.7883
19805TIP3    H280831   3.084   3.110   5.547  0.0117 -0.2631 -0.4753
19806TIP3   OH280832   2.924   2.548  13.704  0.1756  0.1240  0.7685
19806TIP3    H180833   2.913   2.552  13.609  0.8225  2.2297  0.7257
19806TIP3    H280834   3.012   2.513  13.716  0.1655  0.0307  0.5736
19807TIP3   OH280835   6.642   3.411   1.528 -0.0847  0.2315  0.2302
19807TIP3    H180836   6.564   3.410   1.472  0.8519  0.7750 -1.1489
19807TIP3    H280837   6.696   3.481   1.492 -0.4383  2.2348  3.2990
19808TIP3   OH280838   4.135   0.955   3.454  0.0856  0.0002  0.0681
19808TIP3    H180839   4.207   0.911   3.499 -0.1853 -0.3412  0.1763
19808TIP3    H280840   4.177   1.003   3.383  0.2197 -1.9499 -1.2412
19809TIP3   OH280841   0.996   4.417  13.930  0.0343  0.1343  0.3226
19809TIP3    H180842   1.047   4.392  14.007 -1.0806 -0.1504  0.9933
19809TIP3    H280843   1.046   4.488  13.890  0.7697  0.0970  1.1547
19810TIP3   OH280844   1.851   4.397  15.427 -0.1420 -0.1231  0.1578
19810TIP3    H180845   1.865   4.302  15.425  1.2942  0.0806 -2.1815
19810TIP3    H280846   1.810   4.413  15.513  1.1262 -2.6220  1.3294
19811TIP3   OH280847   3.597   0.738  15.841  0.2808  0.1850  0.4478
19811TIP3    H180848   3.684   0.771  15.863  0.6595 -0.9073  0.6649
19811TIP3    H280849   3.542   0.764  15.915  1.1556 -1.9354  1.9496
19812TIP3   OH280850   0.795   3.657   0.378  0.3131 -0.2461 -0.1273
19812TIP3    H180851   0.783   3.703   0.295 -1.1648 -0.3294  0.0244
19812TIP3    H280852   0.858   3.588   0.358 -1.1792 -1.2598 -1.6086
19813TIP3   OH280853   1.684   2.342   1.172 -0.4713  0.4803 -0.0192
19813TIP3    H180854   1.775   2.370   1.166 -0.4263  0.5661  0.9850
19813TIP3    H280855   1.684   2.271   1.236 -1.0827  0.3704 -0.1359
19814TIP3   OH280856   3.775   3.214  13.227  1.0010  0.6917  0.0538
19814TIP3    H180857   3.797   3.259  13.145  0.2495 -0.3948 -0.7800
19814TIP3    H280858   3.736   3.282  13.281 -2.8484  0.6741 -2.2548
19815TIP3   OH280859   0.456   4.979   5.691  0.6519  0.2114 -0.0899
19815TIP3    H180860   0.475   4.905   5.748  1.5843  0.2014 -0.3991
19815TIP3    H280861   0.398   4.944   5.624 -0.9392  0.3503  1.1459
19816TIP3   OH280862   1.726   1.782   1.513  0.2869  0.3941  0.5755
19816TIP3    H180863   1.788   1.831   1.566 -0.6860  1.3170  0.8823
19816TIP3    H280864   1.779   1.712   1.473  1.8547  2.0512 -0.3973
19817TIP3   OH280865   6.200   2.040   3.817  0.6300  0.1164 -0.6600
19817TIP3    H180866   6.152   1.960   3.841  0.4517 -0.4256 -2.6496
19817TIP3    H280867   6.276   2.041   3.875 -0.3125 -0.5059  0.6392
19818TIP3   OH280868   0.483   6.091  12.594 -0.0871  0.7103 -0.0898
19818TIP3    H180869   0.429   6.048  12.661  0.6706 -0.9795 -0.5037
19818TIP3    H280870   0.422   6.110  12.523 -0.3944 -0.0624 -0.0521
19819TIP3   OH280871   6.612   6.577   4.458  0.0390 -0.0980 -0.1138
19819TIP3    H180872   6.564   6.618   4.386 -1.6444 -0.8321  0.5352
19819TIP3    H280873   6.544   6.549   4.519  1.3517 -0.6516  1.1558
19820TIP3   OH280874   3.460   6.504   0.650 -0.3136  0.2423 -0.1564
19820TIP3    H180875   3.535   6.558   0.627 -0.4848 -0.4497 -2.6480
19820TIP3    H280876   3.499   6.421   0.679 -0.1172  0.8299  1.3954
19821TIP3   OH280877   3.837   3.640  10.716 -0.2599  0.4066 -0.3662
19821TIP3    H180878   3.914   3.606  10.669 -0.2417 -0.1711  0.0759
19821TIP3    H280879   3.867   3.722  10.755  0.0151  0.3841 -0.5258
19822TIP3   OH280880   0.234   5.613  12.034  0.1144  0.3931  0.2103
19822TIP3    H180881   0.277   5.623  11.949  0.0029  1.1067  0.2307
19822TIP3    H280882   0.275   5.536  12.073  0.1373  0.0361 -0.5083
19823TIP3   OH280883   4.990   4.591  17.174  0.0756 -0.8504  0.2132
19823TIP3    H180884   5.066   4.534  17.179 -0.2021 -1.6672 -2.8159
19823TIP3    H280885   4.923   4.539  17.130 -0.3528  1.5222 -2.2465
19824TIP3   OH280886   0.131   4.604   3.061  0.1905 -0.3725  0.5282
19824TIP3    H180887   0.167   4.611   3.149 -1.1074  2.2105  0.9453
19824TIP3    H280888   0.199   4.559   3.011  1.2760 -1.2263  2.6409
19825TIP3   OH280889   1.304   0.554  13.496 -0.2768  0.1407 -0.4467
19825TIP3    H180890   1.352   0.562  13.578  0.6685 -1.1071 -0.8545
19825TIP3    H280891   1.359   0.596  13.431 -0.4801  0.1090 -0.6412
19826TIP3   OH280892   1.270   6.760   3.450 -0.1239 -0.5105 -0.5525
19826TIP3    H180893   1.271   6.688   3.387 -0.3550 -1.4707  0.5068
19826TIP3    H280894   1.179   6.767   3.477  0.0149 -0.3007 -0.1246
19827TIP3   OH280895   4.864   4.255   1.052 -0.3188  0.4819 -0.4608
19827TIP3    H180896   4.928   4.282   0.986  0.0238 -2.5989 -1.5816
19827TIP3    H280897   4.915   4.202   1.114 -1.2273  0.6252  0.4345
19828TIP3   OH280898   5.825   0.357  12.822  0.0867  0.5660 -0.1897
19828TIP3    H180899   5.883   0.319  12.756 -3.0181  0.1948 -2.9595
19828TIP3    H280900   5.765   0.286  12.846 -1.5438  1.8465 -0.2952
19829TIP3   OH280901   1.093   6.477   3.544  0.0227  0.7098  0.8270
19829TIP3    H180902   1.175   6.447   3.506 -0.7919  1.0844 -1.4040
19829TIP3    H280903   1.027   6.417   3.508 -0.8122  1.0742  1.7109
19830TIP3   OH280904   5.821   0.450  13.133  0.9316 -0.1856  0.3783
19830TIP3    H180905   5.876   0.373  13.121  0.4202 -0.1436 -3.5813
19830TIP3    H280906   5.732   0.418  13.120  0.4468  0.6206  1.5564
19831TIP3   OH280907   4.095   3.302  11.797 -0.3868  0.6619  0.1661
19831TIP3    H180908   4.180   3.280  11.759  0.3517 -2.4947  3.0968
19831TIP3    H280909   4.116   3.336  11.884 -2.0831  0.6153  0.6385
19832TIP3   OH280910   6.639   5.847   2.524  0.0749  0.3233  0.5180
19832TIP3    H180911   6.558   5.797   2.534 -0.9256  1.0905 -2.5310
19832TIP3    H280912   6.649   5.894   2.607 -1.0927 -1.8427  1.9622
19833TIP3   OH280913   2.373   3.225  11.713  0.1056  0.7402 -0.4300
19833TIP3    H180914   2.290   3.262  11.742 -0.4031  1.9351 -3.1565
19833TIP3    H280915   2.438   3.291  11.738  0.3666 -0.2681  1.8521
19834TIP3   OH280916   2.861   6.352  12.158 -0.0062  0.4414  0.2694
19834TIP3    H180917   2.790   6.393  12.108  0.7897  1.8648  0.2480
19834TIP3    H280918   2.927   6.330  12.093 -0.3076 -0.6546  0.3204
19835TIP3   OH280919   4.805   1.731  11.732  0.1581  0.2668 -0.4423
19835TIP3    H180920   4.753   1.811  11.737  1.9911  1.4442  0.5290
19835TIP3    H280921   4.806   1.698  11.822 -0.8775 -1.0859 -0.8919
19836TIP3   OH280922   6.028   3.754   2.379  0.3784 -0.3502 -0.2021
19836TIP3    H180923   6.084   3.831   2.374  0.1966 -0.2333 -0.5279
19836TIP3    H280924   5.939   3.789   2.376  0.2946 -0.5940 -0.7795
19837TIP3   OH280925   1.103   4.222  13.591  0.0434 -0.0311  0.1653
19837TIP3    H180926   1.027   4.258  13.635  1.6016  1.2666  1.9898
19837TIP3    H280927   1.123   4.142  13.641 -1.6047 -1.9089 -1.9770
19838TIP3   OH280928   6.413   1.923   3.932  0.8959 -0.6091 -0.3838
19838TIP3    H180929   6.483   1.984   3.957 -0.0872  0.6700 -0.6725
19838TIP3    H280930   6.383   1.887   4.015  0.3889  0.5506 -0.0379
19839TIP3   OH280931   6.261   6.386  12.412  0.2394  0.2601 -0.1385
19839TIP3    H180932   6.311   6.308  12.436 -0.4867  0.0699  0.8371
19839TIP3    H280933   6.184   6.352  12.366  0.1506  0.4378 -0.1225
19840TIP3   OH280934   5.821   5.049  12.393 -0.3088 -0.2136 -0.1269
19840TIP3    H180935   5.917   5.038  12.394 -0.1226  1.1170 -0.8897
19840TIP3    H280936   5.792   4.993  12.321  0.0400  0.2689 -0.6561
19841TIP3   OH280937   2.876   3.838  14.378 -0.5067  0.9690  0.1317
19841TIP3    H180938   2.925   3.828  14.296 -0.9201 -0.4878  0.0229
19841TIP3    H280939   2.942   3.825  14.447 -0.5673 -0.2928 -0.0115
19842TIP3   OH280940   3.986   3.931  11.463 -0.0850 -0.2014  0.6014
19842TIP3    H180941   4.026   3.953  11.547  0.2693 -0.6844  0.5663
19842TIP3    H280942   3.941   4.010  11.436  2.9899  1.2788 -0.6179
19843TIP3   OH280943   0.269   2.360  12.139 -0.4166 -0.5839 -0.3039
19843TIP3    H180944   0.269   2.266  12.158 -0.7224 -0.8590 -1.6035
19843TIP3    H280945   0.356   2.377  12.104 -0.4117 -0.4061 -0.2053
19844TIP3   OH280946   6.694   0.138  15.823  0.6343 -0.4780 -0.1620
19844TIP3    H180947   6.637   0.213  15.807  0.3380 -0.5173  0.6416
19844TIP3    H280948   6.780   0.176  15.841  0.5663 -0.3521 -0.1029
19845TIP3   OH280949   0.986   2.299   5.882  0.1100 -0.1537 -0.2303
19845TIP3    H180950   1.015   2.264   5.966  0.3635  3.1641  1.2467
19845TIP3    H280951   1.066   2.326   5.838 -0.0906 -1.0223 -1.1646
19846TIP3   OH280952   1.296   1.089   1.730  0.2960  0.1123 -0.2523
19846TIP3    H180953   1.277   1.178   1.760 -2.1149  0.1699 -1.6870
19846TIP3    H280954   1.299   1.096   1.635  1.2530 -1.1584 -0.3347
19847TIP3   OH280955   5.993   4.021   2.538 -0.4538 -0.6758  0.4094
19847TIP3    H180956   6.015   4.074   2.615  1.1614 -0.1466 -0.3703
19847TIP3    H280957   5.898   4.032   2.528 -0.6942 -0.7093  2.2668
19848TIP3   OH280958   0.585   3.856  13.911  0.4084 -0.0100 -0.1888
19848TIP3    H180959   0.581   3.895  13.999  1.4532  1.2480 -0.6678
19848TIP3    H280960   0.500   3.877  13.872  1.9425  4.8166 -1.5847
19849TIP3   OH280961   0.749   1.395  12.033  0.0000 -0.7571  0.1203
19849TIP3    H180962   0.660   1.374  12.061  0.3370 -1.6682  0.5412
19849TIP3    H280963   0.738   1.437  11.947 -0.9016  0.1842  0.6745
19850TIP3   OH280964   0.294   3.109  15.132 -0.2483 -0.2028  0.6390
19850TIP3    H180965   0.222   3.066  15.086  0.8432 -0.1741 -1.1738
19850TIP3    H280966   0.258   3.129  15.219 -1.4557 -2.8896  0.8655
19851TIP3   OH280967   0.608   1.914   3.689  0.1548  0.1802 -0.1099
19851TIP3    H180968   0.610   1.834   3.741 -1.2832 -0.2923 -0.7210
19851TIP3    H280969   0.538   1.898   3.625  0.9435  1.2838 -1.2803
19852TIP3   OH280970   1.521   6.373   3.050 -0.1718 -0.0717 -0.2050
19852TIP3    H180971   1.555   6.460   3.028 -1.3107  0.4422 -0.0158
19852TIP3    H280972   1.529   6.367   3.145  1.9601 -1.0915 -0.3931
19853TIP3   OH280973   6.159   4.371  12.649  0.0247  0.5177 -0.0920
19853TIP3    H180974   6.238   4.317  12.650  0.4058  0.9977 -1.3404
19853TIP3    H280975   6.128   4.370  12.739  0.7173 -0.7472  0.1624
19854TIP3   OH280976   6.201   2.165   4.922 -0.6098 -0.8629  0.5968
19854TIP3    H180977   6.283   2.214   4.922 -1.1632  0.0937  0.4040
19854TIP3    H280978   6.201   2.118   4.838 -0.9577  0.3846 -0.1334
19855TIP3   OH280979   4.096   2.962  16.738 -0.1352  0.3645 -0.0985
19855TIP3    H180980   4.013   2.938  16.696 -0.5348 -1.4162  1.5667
19855TIP3    H280981   4.145   3.007  16.669 -1.5732 -0.5482 -1.8181
19856TIP3   OH280982   6.197   5.178  14.379  0.4082  0.1144 -0.1515
19856TIP3    H180983   6.271   5.173  14.440  0.4641 -0.9588 -0.2866
19856TIP3    H280984   6.201   5.096  14.329 -1.5577 -0.5518  0.6600
19857TIP3   OH280985   6.107   5.124   0.028 -0.7042 -0.2366 -0.0709
19857TIP3    H180986   6.178   5.147   0.089  1.2026 -1.3112 -1.7756
19857TIP3    H280987   6.046   5.197   0.033  1.6052  1.7946 -0.1131
19858TIP3   OH280988   3.879   1.625   3.874  0.0217 -0.2573  0.4576
19858TIP3    H180989   3.835   1.699   3.832  0.1733  0.7808  2.0421
19858TIP3    H280990   3.950   1.665   3.924  1.9421 -1.7700 -0.9101
19859TIP3   OH280991   3.372   1.620  15.857  0.2610  0.2696  0.5386
19859TIP3    H180992   3.461   1.640  15.828 -0.3140  2.5839  0.2340
19859TIP3    H280993   3.316   1.644  15.784 -0.7093 -0.1248  1.1338
19860TIP3   OH280994   4.910   5.716  13.543  0.1364 -0.1650 -0.1106
19860TIP3    H180995   4.944   5.778  13.607 -0.0382  0.4615 -0.6167
19860TIP3    H280996   4.978   5.650  13.535  0.1067 -0.3280  0.8164
19861TIP3   OH280997   0.577   6.250   5.387  0.0280 -0.3492  0.0565
19861TIP3    H180998   0.613   6.163   5.404 -0.0313 -0.2789  0.5671
19861TIP3    H280999   0.490   6.248   5.427  0.6038  0.4265  1.4467
19862TIP3   OH281000   1.246   1.656   6.178 -0.3413 -0.0405  0.3420
19862TIP3    H181001   1.315   1.717   6.153 -0.7469  0.5016  0.5399
19862TIP3    H281002   1.204   1.632   6.096 -0.1883 -0.0549  0.2664
19863TIP3   OH281003   3.696   1.725   5.995  0.0171  0.1857  0.6076
19863TIP3    H181004   3.786   1.737   6.024  0.6688  0.4955 -1.3759
19863TIP3    H281005   3.688   1.781   5.918 -2.0139  0.4908  0.9802
19864TIP3   OH281006   0.349   4.643   0.642 -0.6576  0.3189 -0.3872
19864TIP3    H181007   0.313   4.556   0.622  1.1445 -0.2915 -1.1548
19864TIP3    H281008   0.386   4.674   0.560  1.7468  0.2888  0.5891
19865TIP3   OH281009   1.293   1.311   4.528  0.4332 -0.2151  0.6288
19865TIP3    H181010   1.255   1.391   4.493 -1.9384 -1.4443  0.2022
19865TIP3    H281011   1.369   1.295   4.472  0.0671  0.9305 -0.2367
19866TIP3   OH281012   3.541   3.489   6.021  0.2679 -0.5843  0.4191
19866TIP3    H181013   3.563   3.489   6.114 -0.6675  1.8736  0.7330
19866TIP3    H281014   3.451   3.455   6.017  0.1881 -0.3876  0.4832
19867TIP3   OH281015   2.843   4.323   2.871  0.5287  0.0736  0.3418
19867TIP3    H181016   2.823   4.237   2.908 -0.4922 -0.3844 -1.1644
19867TIP3    H281017   2.761   4.371   2.875  0.6808  0.4009 -0.2954
19868TIP3   OH281018   1.612   5.496   2.157 -0.2725 -0.0219 -0.0413
19868TIP3    H181019   1.574   5.421   2.202 -0.8773  0.0078 -0.4938
19868TIP3    H281020   1.537   5.549   2.130  0.1323  0.5527 -0.0666
19869TIP3   OH281021   4.487   1.424   4.232 -0.6065  0.2349  0.5672
19869TIP3    H181022   4.441   1.449   4.313 -0.0699  1.7597  0.4339
19869TIP3    H281023   4.566   1.379   4.262 -0.3918  0.8254  0.9121
19870TIP3   OH281024   3.795   1.480   2.298 -0.6442  0.7324 -0.4350
19870TIP3    H181025   3.756   1.557   2.338  0.7541 -0.4810  3.7689
19870TIP3    H281026   3.889   1.499   2.294 -0.1963 -0.8153  1.1812
19871TIP3   OH281027   5.268   5.923  16.191  0.0404 -0.3204  0.0854
19871TIP3    H181028   5.304   5.898  16.276  0.4106 -0.9341 -0.2491
19871TIP3    H281029   5.176   5.943  16.209  0.4133  0.8477  0.8644
19872TIP3   OH281030   0.461   5.197   3.935  0.5031  0.3703 -0.6732
19872TIP3    H181031   0.418   5.186   4.020 -0.1154  0.2249 -1.0001
19872TIP3    H281032   0.389   5.203   3.873  0.9393  1.2201 -1.1040
19873TIP3   OH281033   4.109   5.480  14.170 -0.3429 -0.1616  0.0107
19873TIP3    H181034   4.170   5.549  14.145 -0.0709 -0.6175 -0.6029
19873TIP3    H281035   4.040   5.484  14.104  0.8476 -1.9806 -1.4353
19874TIP3   OH281036   3.936   1.104   4.015 -0.2452 -0.4763  0.3038
19874TIP3    H181037   3.851   1.148   4.008 -0.6802 -1.4133 -0.5961
19874TIP3    H281038   3.967   1.125   4.103 -0.7673  1.0050  0.1633
19875TIP3   OH281039   3.660   4.033   1.057  0.1610  0.3504  0.0926
19875TIP3    H181040   3.571   4.066   1.047  0.3517  0.8734  0.1367
19875TIP3    H281041   3.654   3.941   1.030 -0.0843  0.7752 -1.4194
19876TIP3   OH281042   2.422   4.655  16.455 -0.1070 -0.3537 -0.3188
19876TIP3    H181043   2.351   4.643  16.392 -0.4944 -1.9595  0.3440
19876TIP3    H281044   2.421   4.574  16.507  0.6167  0.6242  1.3086
19877TIP3   OH281045   0.335   4.473   4.473 -0.3280  0.6445 -0.0991
19877TIP3    H181046   0.273   4.524   4.526  0.1214  0.0615  1.0222
19877TIP3    H281047   0.420   4.508   4.497 -0.1147  0.3136 -0.3781
19878TIP3   OH281048   6.154   3.101  16.441 -0.4958 -0.0145 -0.7841
19878TIP3    H181049   6.112   3.185  16.424 -0.9995  0.0067  0.4688
19878TIP3    H281050   6.106   3.064  16.515  1.0006 -0.4903 -0.0154
19879TIP3   OH281051   4.551   0.249  12.735  0.1216 -0.6250  0.0036
19879TIP3    H181052   4.482   0.305  12.699 -0.4839  1.2988  3.6639
19879TIP3    H281053   4.632   0.284  12.698 -0.4967  0.5926 -0.2436
19880TIP3   OH281054   2.825   3.888   2.520  0.1185 -0.4987 -0.2495
19880TIP3    H181055   2.808   3.799   2.487 -0.2437  0.4588 -2.8675
19880TIP3    H281056   2.891   3.923   2.461  0.8327  0.7453  1.2329
19881TIP3   OH281057   3.550   0.621   4.242 -0.3776 -0.1484  0.0652
19881TIP3    H181058   3.528   0.691   4.180  1.7119  0.1822 -0.3578
19881TIP3    H281059   3.504   0.544   4.207 -2.0587  0.7928  0.0999
19882TIP3   OH281060   4.763   1.199   5.349 -0.1254  0.6448  0.7296
19882TIP3    H181061   4.777   1.108   5.376  0.0994  0.5680  0.3656
19882TIP3    H281062   4.739   1.245   5.430  1.4730  0.6204  1.2403
19883TIP3   OH281063   1.406   5.334   0.529  0.3321 -0.0235 -0.2449
19883TIP3    H181064   1.493   5.373   0.523 -0.0047  0.7040 -0.4750
19883TIP3    H281065   1.407   5.264   0.463  0.2970  0.8660 -1.2141
19884TIP3   OH281066   4.531   4.522   6.243  0.3591 -0.2294  0.4159
19884TIP3    H181067   4.489   4.479   6.318 -0.6017  0.1707  0.1126
19884TIP3    H281068   4.553   4.610   6.276 -0.9019  0.2718 -0.0360
19885TIP3   OH281069   0.856   5.939  16.011 -0.4527 -0.0495  0.3069
19885TIP3    H181070   0.860   5.870  16.077 -0.8009  0.6031  1.0255
19885TIP3    H281071   0.765   5.937  15.981 -0.2731 -0.4045 -0.2296
19886TIP3   OH281072   4.174   3.128  15.508  0.4351  0.2228 -0.0459
19886TIP3    H181073   4.162   3.077  15.428  1.8828  1.8736 -1.4119
19886TIP3    H281074   4.150   3.218  15.483  1.3761  0.8619  1.2208
19887TIP3   OH281075   0.376   0.949   5.503  0.0554 -0.0366  0.1540
19887TIP3    H181076   0.318   0.993   5.441 -0.3937 -1.2613 -0.3167
19887TIP3    H281077   0.338   0.862   5.515 -0.0298  0.2384  2.3568
19888TIP3   OH281078   6.408   0.911  12.579 -0.2320  0.3682  0.0748
19888TIP3    H181079   6.502   0.909  12.599 -0.4253  0.5627  1.0901
19888TIP3    H281080   6.370   0.959  12.653 -1.0781  0.6773 -0.5493
19889TIP3   OH281081   3.903   1.620  11.933  0.0458 -0.3571  0.3829
19889TIP3    H181082   3.990   1.582  11.930  1.2336  2.1140  0.6225
19889TIP3    H281083   3.858   1.573  12.003  1.4988 -1.0610  0.8692
19890TIP3   OH281084   2.130   2.262   1.597 -0.1969  0.3610  0.0337
19890TIP3    H181085   2.201   2.233   1.539 -1.4240 -0.2053 -1.2421
19890TIP3    H281086   2.087   2.332   1.550 -0.8737  0.2832  0.5142
19891TIP3   OH281087   4.715   4.466  11.623 -0.5576  1.2720 -0.1213
19891TIP3    H181088   4.698   4.416  11.544 -2.0597  1.7965 -0.1475
19891TIP3    H281089   4.714   4.401  11.694 -0.3919  0.9804 -0.3855
19892TIP3   OH281090   6.193   4.470   6.243 -0.1725 -0.3163 -1.1470
19892TIP3    H181091   6.233   4.484   6.329  1.9276  2.8766 -2.4750
19892TIP3    H281092   6.202   4.375   6.228  0.9905 -0.6948  1.3764
19893TIP3   OH281093   0.905   0.612  11.439  0.2070  0.5122  0.0388
19893TIP3    H181094   0.814   0.638  11.428 -0.3294 -1.2691 -0.1356
19893TIP3    H281095   0.954   0.694  11.441 -1.5649  1.6144  1.9188
19894TIP3   OH281096   0.218   5.474   3.070  0.5164 -0.7248 -0.5436
19894TIP3    H181097   0.285   5.433   3.124  0.9139  1.5580  0.8188
19894TIP3    H281098   0.262   5.493   2.987  2.0621  1.9323  0.7869
19895TIP3   OH281099   5.986   0.668  16.930  0.1057 -0.4393 -0.0121
19895TIP3    H181100   5.990   0.763  16.934  0.4966 -0.3777 -1.3369
19895TIP3    H281101   5.913   0.649  16.870  0.1900 -0.9644  0.0432
19896TIP3   OH281102   3.566   4.633  13.333  0.6339 -0.5041 -0.0440
19896TIP3    H181103   3.502   4.563  13.333  0.0967 -0.0785  2.2280
19896TIP3    H281104   3.552   4.679  13.415  2.3450  1.0107 -0.5291
19897TIP3   OH281105   2.196   5.702  14.933  0.5160 -0.6327  0.6272
19897TIP3    H181106   2.125   5.759  14.965  1.0285 -0.9132  2.3709
19897TIP3    H281107   2.240   5.672  15.013  1.7073 -1.6185 -0.3675
19898TIP3   OH281108   4.441   6.638   1.613  0.1808 -0.0834  0.4262
19898TIP3    H181109   4.380   6.706   1.640 -1.0159 -0.8132 -0.3863
19898TIP3    H281110   4.398   6.593   1.541  1.5576 -0.8038  0.0116
19899TIP3   OH281111   1.945   4.790  13.450 -0.0153  0.1268  0.4498
19899TIP3    H181112   1.900   4.776  13.367 -0.9583  0.7460  0.8395
19899TIP3    H281113   2.011   4.721  13.454 -0.6876 -0.5782 -0.3037
19900TIP3   OH281114   1.508   2.705   3.073 -0.7679  0.3527 -0.2552
19900TIP3    H181115   1.530   2.765   3.145 -0.9473  0.2421 -0.1069
19900TIP3    H281116   1.586   2.651   3.062 -0.4976  0.8085 -0.5854
19901TIP3   OH281117   5.708   1.200   6.488 -0.1062 -0.3433  0.5056
19901TIP3    H181118   5.649   1.238   6.423  0.0907 -0.0175  0.5162
19901TIP3    H281119   5.728   1.113   6.454 -2.8598 -1.6667  1.8791
19902TIP3   OH281120   5.708   2.398   4.977  0.3174 -0.3838 -0.5707
19902TIP3    H181121   5.624   2.390   5.021 -0.3473 -0.3067 -1.8026
19902TIP3    H281122   5.693   2.362   4.889  1.7317 -0.9718 -0.6030
19903TIP3   OH281123   4.712   5.602  10.511  0.2169 -0.3239  0.1699
19903TIP3    H181124   4.659   5.548  10.452  1.7186 -0.3887 -1.2207
19903TIP3    H281125   4.649   5.657  10.557 -1.2145 -1.9918  0.3254
19904TIP3   OH281126   3.075   1.284   0.517 -0.2641  0.5820  0.5204
19904TIP3    H181127   3.033   1.288   0.603 -0.2160 -2.5795  0.7954
19904TIP3    H281128   3.157   1.332   0.528 -0.2777  0.2572  2.2627
19905TIP3   OH281129   0.746   0.916   0.062 -0.5902  0.1205 -0.5148
19905TIP3    H181130   0.816   0.856   0.037 -0.2050 -0.5928  2.0051
19905TIP3    H281131   0.786   0.974   0.127 -0.9536  3.2299 -2.8322
19906TIP3   OH281132   1.110   1.494  13.922 -0.0450 -0.2467  0.3028
19906TIP3    H181133   1.083   1.584  13.902  0.6124 -0.1872 -0.3308
19906TIP3    H281134   1.061   1.440  13.859  0.6983 -0.2056 -0.3137
19907TIP3   OH281135   1.118   1.521   5.274 -0.0305  0.4865  0.2819
19907TIP3    H181136   1.082   1.609   5.264  0.7450  0.8852  0.8555
19907TIP3    H281137   1.041   1.464   5.277 -0.4975  0.9100 -1.9126
19908TIP3   OH281138   0.266   6.348   5.630 -0.6790  0.4420 -1.0507
19908TIP3    H181139   0.329   6.279   5.648 -1.7549 -0.1685  0.5288
19908TIP3    H281140   0.245   6.385   5.716 -3.3847 -0.2003 -1.3648
19909TIP3   OH281141   0.013   1.877  14.378 -0.1749 -0.1575  0.1494
19909TIP3    H181142   0.103   1.883  14.410 -0.6263  0.9687  1.3079
19909TIP3    H281143   0.005   1.949  14.316  0.0528 -0.9873 -0.8608
19910TIP3   OH281144   2.013   6.367   2.983 -0.3585 -0.1533  0.2292
19910TIP3    H181145   1.940   6.306   2.996 -1.2437  0.6987 -0.5436
19910TIP3    H281146   2.067   6.358   3.061 -1.0018 -1.1997  0.5705
19911TIP3   OH281147   0.146   1.598  11.332 -0.4390 -0.2801 -0.5174
19911TIP3    H181148   0.210   1.622  11.399 -1.1892  0.5721 -0.0768
19911TIP3    H281149   0.197   1.551  11.266  0.4073 -0.6779  0.3936
19912TIP3   OH281150   1.633   4.457  11.936 -0.1767 -0.1346  0.6174
19912TIP3    H181151   1.608   4.548  11.921  0.8151  0.1622  0.6742
19912TIP3    H281152   1.722   4.463  11.973 -0.6493 -1.0574  1.9920
19913TIP3   OH281153   1.586   3.208   2.027 -0.7178 -0.3384  0.1593
19913TIP3    H181154   1.631   3.123   2.021  0.6405  0.2313  1.5697
19913TIP3    H281155   1.538   3.204   2.110 -1.3693 -0.0339 -0.1932
19914TIP3   OH281156   5.232   3.841   4.495 -0.8420  0.5166  0.4000
19914TIP3    H181157   5.158   3.816   4.550 -0.5845 -1.3246 -0.0417
19914TIP3    H281158   5.287   3.896   4.551 -0.5604 -1.3581  2.0426
19915TIP3   OH281159   1.233   5.664  12.340  0.5474  0.8692 -0.0126
19915TIP3    H181160   1.269   5.645  12.427 -1.4185 -2.3810  0.2559
19915TIP3    H281161   1.303   5.637  12.279  1.1046  1.0419  0.5422
19916TIP3   OH281162   2.610   3.772   1.329  0.4833 -0.1912  0.4830
19916TIP3    H181163   2.551   3.700   1.350 -1.9471  1.7971  0.9245
19916TIP3    H281164   2.569   3.816   1.254  2.7772 -0.1675 -0.8633
19917TIP3   OH281165   6.763   2.737  14.517 -0.1498  0.5217  0.1215
19917TIP3    H181166   6.763   2.710  14.425  0.5875 -1.0277  0.5326
19917TIP3    H281167   6.808   2.821  14.517  0.4428  0.2320 -0.8624
19918TIP3   OH281168   5.015   3.532  16.934 -0.0098  0.2237  0.1550
19918TIP3    H181169   5.058   3.452  16.964 -0.6169  0.1059  0.7304
19918TIP3    H281170   4.928   3.528  16.973  0.1835  1.4940  0.7393
19919TIP3   OH281171   3.077   6.122  16.439 -0.1450 -0.1942  0.8385
19919TIP3    H181172   3.135   6.046  16.437  1.4574  0.9733 -1.4626
19919TIP3    H281173   3.119   6.182  16.501  0.4297  0.1289  0.1483
19920TIP3   OH281174   2.836   5.016  12.395 -0.3867 -0.6035  0.1526
19920TIP3    H181175   2.860   5.061  12.476  1.8156 -0.5152 -0.4713
19920TIP3    H281176   2.812   5.086  12.335 -0.8030 -0.5748  0.3494
19921TIP3   OH281177   4.028   4.080  11.732 -0.1356  0.5883  0.0625
19921TIP3    H181178   4.046   4.069  11.825 -0.1528 -1.0020 -0.0800
19921TIP3    H281179   4.107   4.118  11.696 -0.2719  1.5706  0.7806
19922TIP3   OH281180   0.125   6.284  14.503 -0.5682 -0.3654 -0.2822
19922TIP3    H181181   0.111   6.338  14.580  0.2491 -0.8131  0.1994
19922TIP3    H281182   0.198   6.227  14.527 -1.2366 -1.4988 -0.8685
19923TIP3   OH281183   3.717   3.338  15.733  0.4442  0.4776 -0.0644
19923TIP3    H181184   3.630   3.366  15.761 -0.8652 -1.8287 -1.5482
19923TIP3    H281185   3.729   3.378  15.647  1.5254  1.9485  0.7239
19924TIP3   OH281186   4.273   3.797   6.474  0.4379  0.3667  0.1961
19924TIP3    H181187   4.186   3.828   6.499  0.3483  0.5446 -0.3204
19924TIP3    H281188   4.284   3.714   6.521 -0.0852  0.2529  0.1203
19925TIP3   OH281189   3.918   3.579   2.740  0.0136 -0.1840 -0.0203
19925TIP3    H181190   3.850   3.538   2.794 -2.1058  1.1311 -1.5316
19925TIP3    H281191   3.915   3.671   2.763 -0.6969  0.3517 -2.0333
19926TIP3   OH281192   2.374   3.870  15.267  0.1273 -0.3427 -0.7067
19926TIP3    H181193   2.305   3.832  15.213  0.0716 -0.2829 -0.6775
19926TIP3    H281194   2.451   3.815  15.251  0.3618  0.1940 -1.5259
19927TIP3   OH281195   6.022   3.554   5.738  0.4318 -0.0936 -0.0322
19927TIP3    H181196   6.073   3.635   5.745  1.1084 -0.5918  0.9714
19927TIP3    H281197   6.071   3.501   5.675  0.3505  0.0163 -0.1881
19928TIP3   OH281198   2.834   1.700   0.357  0.1065 -0.1506 -0.6271
19928TIP3    H181199   2.802   1.729   0.272 -0.3153 -0.9957 -0.7645
19928TIP3    H281200   2.849   1.781   0.406  0.4223  0.3441 -1.5221
19929TIP3   OH281201   5.425   2.062   2.951 -0.1970  0.3504 -0.3687
19929TIP3    H181202   5.400   2.062   2.859 -0.6185  1.3818 -0.2700
19929TIP3    H281203   5.512   2.020   2.952 -1.4331 -2.4433 -0.8325
19930TIP3   OH281204   5.796   5.239   4.997 -0.3277 -0.3092 -0.0601
19930TIP3    H181205   5.878   5.260   5.040  0.8631 -1.4722 -1.6635
19930TIP3    H281206   5.751   5.323   4.988  0.7640  0.3648  0.6197
19931TIP3   OH281207   2.411   0.197  11.498 -0.2408 -0.0825  0.0753
19931TIP3    H181208   2.346   0.264  11.482  0.0119  0.4997  1.4116
19931TIP3    H281209   2.366   0.114  11.479 -1.4755  0.2846  1.3247
19932TIP3   OH281210   5.218   2.262  15.072 -0.0928  0.0417  0.3509
19932TIP3    H181211   5.249   2.177  15.041  0.5984  0.1884  0.6323
19932TIP3    H281212   5.230   2.320  14.997 -2.1110 -0.4355 -0.4138
19933TIP3   OH281213   5.225   0.248  13.903  0.6286 -0.3567  0.2335
19933TIP3    H181214   5.242   0.255  13.809  0.1575  0.0887  0.1851
19933TIP3    H281215   5.216   0.153  13.918 -3.5681 -0.3088 -0.9308
19934TIP3   OH281216   2.836   6.482  13.235  0.0806  0.0181 -0.1350
19934TIP3    H181217   2.931   6.481  13.226 -0.0104  0.1664 -1.2525
19934TIP3    H281218   2.806   6.543  13.167 -0.8306 -0.2554  0.0082
19935TIP3   OH281219   6.604   2.436   2.628 -0.2251  0.8028 -0.4305
19935TIP3    H181220   6.573   2.358   2.676  0.0165  0.3752 -0.9546
19935TIP3    H281221   6.681   2.464   2.676 -0.1906  0.5870 -0.3561
19936TIP3   OH281222   3.342   2.131  14.455 -0.0736  0.5893  0.2104
19936TIP3    H181223   3.356   2.222  14.483  0.5967  0.8044 -0.7862
19936TIP3    H281224   3.286   2.094  14.523  0.5161  1.4468  1.1980
19937TIP3   OH281225   3.928   4.050   2.660  0.4280 -0.0033  0.2107
19937TIP3    H181226   3.915   4.143   2.678 -0.7435  0.4316 -2.4120
19937TIP3    H281227   3.894   4.006   2.738 -1.1529  1.7213  0.5803
19938TIP3   OH281228   2.568   3.321   0.439 -0.0614 -0.3408 -0.2307
19938TIP3    H181229   2.632   3.392   0.425  0.0920 -0.7864 -2.0176
19938TIP3    H281230   2.583   3.293   0.529  0.5064  1.2674  0.2216
19939TIP3   OH281231   0.375   1.454  16.552 -0.2527  0.3643 -0.2969
19939TIP3    H181232   0.364   1.529  16.610 -0.0169 -0.3410  0.6664
19939TIP3    H281233   0.340   1.380  16.601  0.4778 -0.3382 -0.8175
19940TIP3   OH281234   2.956   4.840  14.701  0.4022 -0.0328 -0.5784
19940TIP3    H181235   3.006   4.806  14.775  0.3271 -1.0193 -0.9641
19940TIP3    H281236   3.021   4.850  14.631  0.2014 -0.6117 -0.8537
19941TIP3   OH281237   3.510   0.291   2.034  0.2894 -0.4758 -0.9950
19941TIP3    H181238   3.437   0.232   2.054  0.3299 -0.6282 -1.2806
19941TIP3    H281239   3.470   0.378   2.032 -0.0920 -0.6603 -2.1388
19942TIP3   OH281240   4.292   0.375   3.725  0.5363  0.1625  0.3817
19942TIP3    H181241   4.341   0.437   3.671 -0.2275  0.0748 -0.4179
19942TIP3    H281242   4.212   0.422   3.750  0.9765  0.2942  1.6615
19943TIP3   OH281243   0.446   1.919  15.752 -0.0253  0.4776 -0.1895
19943TIP3    H181244   0.486   1.968  15.680  1.3731  0.1636  0.3562
19943TIP3    H281245   0.384   1.980  15.791  0.7195  1.3529 -0.3580
19944TIP3   OH281246   0.813   4.251   5.747  0.0840 -0.5887 -0.0578
19944TIP3    H181247   0.738   4.286   5.795  0.3429  0.5930 -0.4657
19944TIP3    H281248   0.826   4.314   5.675  0.8675 -1.2976 -0.5532
19945TIP3   OH281249   5.227   2.381   3.098 -0.7193 -0.5611 -0.2707
19945TIP3    H181250   5.134   2.403   3.091 -0.3784  1.2113  0.2768
19945TIP3    H281251   5.258   2.380   3.007 -0.8699  0.9110 -0.3689
19946TIP3   OH281252   3.241   3.773  13.530 -0.1809  0.4124 -0.2650
19946TIP3    H181253   3.213   3.759  13.621  0.1174  1.0555 -0.0694
19946TIP3    H281254   3.327   3.731  13.525  0.5345  1.7726  0.2106
19947TIP3   OH281255   6.407   5.268   3.623  0.1674 -0.3283  0.0017
19947TIP3    H181256   6.398   5.196   3.561  0.4344 -0.7937  0.4992
19947TIP3    H281257   6.413   5.226   3.709  0.9092  0.2542  0.2457
19948TIP3   OH281258   2.293   5.056  12.439  0.6649 -0.3462  0.1418
19948TIP3    H181259   2.318   5.080  12.350 -0.3022 -0.4469 -0.1630
19948TIP3    H281260   2.222   5.116  12.461  0.8838 -0.3380  0.8342
19949TIP3   OH281261   2.526   2.551   2.092  0.0699  0.6037 -0.0718
19949TIP3    H181262   2.495   2.532   2.181  1.7098  0.6497  0.5506
19949TIP3    H281263   2.459   2.516   2.035 -1.1406  0.7750  1.1902
19950TIP3   OH281264   2.491   1.743   0.546  0.0708  0.0981 -0.2967
19950TIP3    H181265   2.497   1.697   0.629 -2.0040 -0.0663 -0.1770
19950TIP3    H281266   2.469   1.675   0.482  0.6047  0.3868 -0.8012
19951TIP3   OH281267   4.411   0.264   3.113  0.6997 -0.5589  0.1570
19951TIP3    H181268   4.472   0.192   3.098  0.6799 -0.4064 -0.6858
19951TIP3    H281269   4.341   0.250   3.049 -1.0102 -1.6388  2.1362
19952TIP3   OH281270   3.586   1.775   1.311  0.8917  0.0321  0.2745
19952TIP3    H181271   3.621   1.826   1.384  1.4476 -2.9304  2.2626
19952TIP3    H281272   3.492   1.793   1.314  0.9702  0.3806  1.3900
19953TIP3   OH281273   3.581   3.194  12.486  0.3901  0.2501  0.0535
19953TIP3    H181274   3.496   3.196  12.442 -0.3857  1.1757  1.4946
19953TIP3    H281275   3.636   3.139  12.431 -0.7591  0.7041 -1.6109
19954TIP3   OH281276   1.233   1.270  16.630 -0.0020 -0.4077 -0.1279
19954TIP3    H181277   1.231   1.335  16.700 -0.3770  0.2636 -0.7495
19954TIP3    H281278   1.296   1.205  16.660  0.2950  0.1792  0.5601
19955TIP3   OH281279   3.297   5.605  15.408  0.3698  0.6694 -1.0585
19955TIP3    H181280   3.236   5.676  15.389 -1.0137 -0.1579  0.0746
19955TIP3    H281281   3.328   5.622  15.497 -1.6597 -1.2230  0.0971
19956TIP3   OH281282   4.197   2.118  13.322  0.2251  0.0902  0.0276
19956TIP3    H181283   4.292   2.124  13.329  0.2640  2.5900 -1.3764
19956TIP3    H281284   4.165   2.132  13.411  1.1487 -0.3480  0.4424
19957TIP3   OH281285   0.209   2.937  11.479  0.6451  0.2235 -0.0188
19957TIP3    H181286   0.184   2.981  11.561 -2.6848 -1.7178  0.2039
19957TIP3    H281287   0.177   2.994  11.410 -1.5792 -0.6315  0.2278
19958TIP3   OH281288   2.176   6.316  11.737 -0.0823 -0.4479  0.0399
19958TIP3    H181289   2.171   6.403  11.777  0.0053  0.1768 -1.2303
19958TIP3    H281290   2.254   6.319  11.682  0.3511 -1.6076  0.5649
19959TIP3   OH281291   5.773   1.043  13.584  0.0213  0.2657 -0.4219
19959TIP3    H181292   5.774   1.078  13.673 -0.0309  0.5247 -0.5221
19959TIP3    H281293   5.770   0.948  13.595 -1.0797  0.3232 -0.1423
19960LIG     O181294   5.445   5.303  16.574  0.0894 -0.2053 -0.3417
19960LIG     O281295   5.241   5.199  16.629 -0.6217  0.6165  0.2414
19960LIG     O381296   5.155   5.409  16.637 -0.0110 -0.0391 -0.5307
19960LIG     O481297   5.538   5.014  16.613 -0.3164 -0.0287  0.0508
19960LIG     O581298   5.587   5.166  16.867  0.3799  0.0965 -0.1634
19960LIG     O681299   5.033   5.111  16.458 -0.7346 -0.4229 -0.5035
19960LIG     O781300   4.971   5.111  16.741 -0.1557  0.0831 -0.3824
19960LIG     O881301   4.846   5.349  16.847 -0.4640  0.3496 -0.0822
19960LIG     O981302   5.291   5.018  16.390  0.4837 -0.3461 -0.2797
19960LIG    O1081303   5.404   5.505  16.772  0.4395 -0.1049 -0.2998
19960LIG    O1181304   5.037   5.637  16.755 -0.3598 -0.3693  0.4887
19960LIG     C181305   5.370   5.180  16.573 -0.2002  0.1983  0.0240
19960LIG     C281306   5.432   5.084  16.674 -0.4148 -0.7259  0.2616
19960LIG     C381307   5.487   5.195  16.772 -0.1473  0.5019 -0.1626
19960LIG     C481308   5.539   5.310  16.682  0.7068  0.7443 -0.0253
19960LIG     C581309   5.155   5.294  16.560 -1.0224 -0.2952 -0.6263
19960LIG     C681310   5.017   5.234  16.530 -0.3516  0.8290 -0.4640
19960LIG     C781311   4.926   5.221  16.654  0.6761 -0.2291  0.0515
19960LIG     C881312   4.920   5.357  16.727 -0.3594 -0.4555 -0.1169
19960LIG     C981313   5.067   5.391  16.755 -0.8976 -0.4037 -0.3655
19960LIG    C1081314   5.374   5.129  16.419  0.2675  0.6900 -0.2645
19960LIG    C1181315   5.536   5.454  16.744  0.2514 -0.5580 -0.5685
19960LIG    C1281316   5.072   5.535  16.836  0.6731  0.6962  0.7608
19960LIG     H181317   5.362   5.008  16.713 -2.4857  1.0273  0.0824
19960LIG     H281318   5.401   5.234  16.828  1.1550  1.5410  1.1947
19960LIG     H381319   5.640   5.286  16.646  0.2347 -0.4481 -0.6012
19960LIG     H481320   5.205   5.324  16.466  0.2933  1.1288  0.4754
19960LIG     H581321   4.966   5.302  16.458 -1.9747 -0.8532 -0.9817
19960LIG     H681322   4.825   5.205  16.612  1.3921  1.1824 -2.3943
19960LIG     H781323   4.872   5.429  16.656 -1.6663 -3.0415 -1.9987
19960LIG     H881324   5.116   5.321  16.827  0.3232  3.0910  2.4947
19960LIG     H981325   5.339   5.216  16.360 -2.5902  1.0830  1.7835
19960LIG    H1081326   5.475   5.109  16.377 -1.0368 -2.4406 -2.2728
19960LIG    H1181327   5.597   5.454  16.836  0.7195 -1.4766 -0.8651
19960LIG    H1281328   5.582   5.530  16.678 -0.0240  0.4630  0.3803
19960LIG    H1381329   4.999   5.528  16.919 -0.6840 -1.2531 -0.5431
19960LIG    H1481330   5.178   5.549  16.868  0.2849  0.2197  2.3631
19960LIG    H1581331   5.509   4.922  16.607 -0.3742 -0.1915  2.2601
19960LIG    H1681332   5.548   5.119  16.942  3.5085  0.4626  1.8820
19960LIG    H1781333   4.943   5.081  16.446 -0.9837  0.7173 -1.7209
19960LIG    H1881334   4.898   5.089  16.799 -2.0791 -0.3541 -2.8018
19960LIG    H1981335   4.756   5.356  16.816 -0.5316  0.0642  0.0456
19960LIG    H2081336   5.202   5.054  16.397  0.4021 -0.1690 -1.8539
19960LIG    H2181337   5.363   5.500  16.686  0.0673  1.5453 -0.2481
19960LIG    H2281338   4.941   5.635  16.763 -0.3852  0.5666  0.5724
   6.77963   6.77963  17.33011
